Title
81358
    1CHL1    C3    1   1.750   5.268  10.170  0.1890  0.4670 -0.2877
    1CHL1    H3    2   1.838   5.200  10.168  0.4547  0.7978 -0.0013
    1CHL1    O3    3   1.749   5.321  10.304 -0.3889  0.0393 -0.3108
    1CHL1   H3'    4   1.800   5.256  10.352  0.9479 -0.4702 -2.3845
    1CHL1    C4    5   1.770   5.382  10.062  0.1796  0.3641 -0.2491
    1CHL1   H4A    6   1.708   5.473  10.082 -0.2442 -0.3016  1.5924
    1CHL1   H4B    7   1.871   5.419  10.088 -0.3715  2.4158 -0.9222
    1CHL1    C5    8   1.750   5.335   9.922  0.1452  0.1495  0.0216
    1CHL1    C6    9   1.842   5.368   9.833 -0.0181 -0.6563  0.5885
    1CHL1    H6   10   1.925   5.430   9.870 -0.0157  1.0938 -2.1833
    1CHL1    C7   11   1.825   5.341   9.687 -0.0770 -0.2496  0.3742
    1CHL1   H7A   12   1.835   5.425   9.616 -1.6876 -0.7327 -0.4598
    1CHL1   H7B   13   1.891   5.258   9.654 -0.9044 -1.4464  1.6752
    1CHL1    C8   14   1.684   5.282   9.644  0.1822  0.0614 -0.1752
    1CHL1    H8   15   1.613   5.368   9.641 -0.7657 -0.6236  1.5838
    1CHL1   C14   16   1.700   5.201   9.517  0.2456 -0.3806  0.2910
    1CHL1   H14   17   1.771   5.117   9.531  2.8120  1.3995 -1.5403
    1CHL1   C15   18   1.766   5.269   9.383 -1.1895  0.0517 -0.0173
    1CHL1  H15A   19   1.738   5.377   9.380  0.0090  0.4129  1.6079
    1CHL1  H15B   20   1.876   5.275   9.395 -0.9247 -3.1041 -0.5166
    1CHL1   C16   21   1.714   5.178   9.272 -0.3043 -0.1004 -0.5748
    1CHL1  H16A   22   1.664   5.229   9.187 -1.9674 -0.0135  0.4383
    1CHL1  H16B   23   1.807   5.124   9.242  0.3224  0.4174  0.3953
    1CHL1   C17   24   1.619   5.073   9.341  0.0298  0.0387  0.2918
    1CHL1   H17   25   1.689   4.989   9.361  1.9214  1.2919 -0.8296
    1CHL1   C13   26   1.565   5.136   9.470 -0.5818 -0.1653 -0.4703
    1CHL1   C18   27   1.457   5.241   9.423  0.0919 -0.4184  0.5032
    1CHL1  H18A   28   1.358   5.191   9.426  0.3131 -0.8531  0.5601
    1CHL1  H18B   29   1.466   5.330   9.489 -1.6020  1.5155 -1.7881
    1CHL1  H18C   30   1.476   5.288   9.325 -1.1187  2.0521  1.4102
    1CHL1   C12   31   1.509   5.044   9.575  0.2685  0.4020 -0.2754
    1CHL1  H12A   32   1.410   4.999   9.550 -0.1910  0.6331  1.1031
    1CHL1  H12B   33   1.571   4.952   9.569 -0.9076 -0.3034 -2.4469
    1CHL1   C11   34   1.504   5.112   9.711 -0.0794 -0.1191 -0.0240
    1CHL1  H11A   35   1.410   5.171   9.712 -0.0668 -0.0879 -0.4305
    1CHL1  H11B   36   1.492   5.026   9.780  1.2601  1.2404  1.9693
    1CHL1    C9   37   1.630   5.189   9.754  0.1435  0.1079  0.1960
    1CHL1    H9   38   1.709   5.113   9.771 -1.8895 -1.5559  2.4383
    1CHL1   C10   39   1.626   5.255   9.899 -0.2788  0.6263 -0.5589
    1CHL1   C19   40   1.494   5.341   9.901 -0.9550  0.1165 -0.0669
    1CHL1  H19A   41   1.398   5.285   9.894  0.1692 -1.7213 -1.3342
    1CHL1  H19B   42   1.483   5.405   9.991  0.7509 -1.1172  1.0334
    1CHL1  H19C   43   1.499   5.408   9.812  2.6276  0.3229  0.2350
    1CHL1    C1   44   1.614   5.141  10.008 -0.1417  0.9171  0.3573
    1CHL1   H1A   45   1.517   5.087   9.998 -0.6943  2.0051 -0.2987
    1CHL1   H1B   46   1.686   5.059   9.984 -1.4296 -0.1213 -0.0267
    1CHL1    C2   47   1.624   5.190  10.149  0.5845  1.1421 -0.2360
    1CHL1   H2A   48   1.623   5.100  10.215 -0.1572  0.2261 -1.4728
    1CHL1   H2B   49   1.545   5.261  10.181  0.5569 -1.0050  4.9042
    1CHL1   C20   50   1.517   5.020   9.238  0.2517  0.3549 -0.2881
    1CHL1   H20   51   1.451   5.097   9.193 -0.5019 -0.4776 -0.6387
    1CHL1   C21   52   1.427   4.914   9.300 -0.2761 -0.2770  0.2315
    1CHL1  H21A   53   1.354   4.951   9.376  0.6973  0.4931  0.8111
    1CHL1  H21B   54   1.491   4.837   9.349  2.5235  2.1400  0.4520
    1CHL1  H21C   55   1.359   4.866   9.227 -2.0726  1.1839  0.9031
    1CHL1   C22   56   1.586   4.953   9.117  0.2997  0.7105  0.4409
    1CHL1  H22A   57   1.684   5.004   9.107  1.5138 -0.8724  3.6687
    1CHL1  H22B   58   1.602   4.846   9.139  1.0432  0.9920  1.2890
    1CHL1   C23   59   1.505   4.974   8.982  0.3063 -0.8212 -0.8364
    1CHL1  H23A   60   1.406   4.928   9.004  1.3181 -3.2075 -1.1448
    1CHL1  H23B   61   1.490   5.083   8.966 -2.2155 -0.9546  0.3556
    1CHL1   C24   62   1.560   4.911   8.857 -0.1134 -1.0384 -0.0822
    1CHL1  H24A   63   1.663   4.952   8.846 -1.7050  3.4600  0.6276
    1CHL1  H24B   64   1.561   4.801   8.873 -0.3047 -1.0742 -0.3216
    1CHL1   C25   65   1.488   4.938   8.726  0.6804  0.3335  0.3702
    1CHL1   H25   66   1.477   5.047   8.707  0.8427  0.3611  0.4323
    1CHL1   C26   67   1.569   4.873   8.605  0.1184  0.2360  0.5856
    1CHL1  H26A   68   1.602   4.770   8.633 -1.6735 -0.1402  1.3845
    1CHL1  H26B   69   1.509   4.878   8.512  0.2583  1.6113  0.5540
    1CHL1  H26C   70   1.654   4.943   8.589 -0.2454  0.7135  0.7212
    1CHL1   C27   71   1.342   4.885   8.720 -0.5286 -0.5334  1.3253
    1CHL1  H27A   72   1.338   4.775   8.736 -0.9121 -0.3816  2.2875
    1CHL1  H27B   73   1.278   4.933   8.797 -1.5518  0.3719 -0.0705
    1CHL1  H27C   74   1.308   4.900   8.615  0.3610 -3.0075  0.6568
    2CHL1    C3   75   2.446   3.697   9.942 -0.0365 -0.2305 -0.2119
    2CHL1    H3   76   2.553   3.701   9.909 -0.4867 -1.1451 -1.8075
    2CHL1    O3   77   2.456   3.722  10.083 -0.8752 -0.2042 -0.2467
    2CHL1   H3'   78   2.366   3.714  10.116 -0.5992 -2.3574 -0.0151
    2CHL1    C4   79   2.356   3.806   9.874  0.2701 -0.4825  0.1671
    2CHL1   H4A   80   2.265   3.812   9.938 -0.4084 -2.6469 -0.5619
    2CHL1   H4B   81   2.400   3.906   9.891  1.1788 -0.6091 -1.3639
    2CHL1    C5   82   2.305   3.771   9.731 -0.3062  0.5837  0.4859
    2CHL1    C6   83   2.310   3.866   9.637 -0.5277  0.1615  0.5719
    2CHL1    H6   84   2.345   3.968   9.658  1.8316 -0.8292  1.6039
    2CHL1    C7   85   2.285   3.836   9.492  0.1443  0.4402  0.6135
    2CHL1   H7A   86   2.233   3.918   9.438 -2.2281 -0.9003  0.8082
    2CHL1   H7B   87   2.380   3.829   9.435  0.5468 -4.5073  1.6309
    2CHL1    C8   88   2.212   3.701   9.461 -0.0852  0.8015 -0.6576
    2CHL1    H8   89   2.106   3.719   9.492  0.3394  0.7725  0.8908
    2CHL1   C14   90   2.230   3.664   9.315 -0.0048  0.4639 -0.2680
    2CHL1   H14   91   2.335   3.639   9.292  0.0836  0.5466  0.0522
    2CHL1   C15   92   2.180   3.758   9.214  0.3160  0.0968  0.2485
    2CHL1  H15A   93   2.083   3.798   9.249  1.0819  0.6423  1.7757
    2CHL1  H15B   94   2.245   3.847   9.197  0.4988  0.1804  1.3762
    2CHL1   C16   95   2.164   3.672   9.085  0.0917 -0.4819 -0.6773
    2CHL1  H16A   96   2.065   3.695   9.038 -1.8479 -0.4201  3.2596
    2CHL1  H16B   97   2.252   3.692   9.020  1.1208  0.0607  0.8535
    2CHL1   C17   98   2.180   3.522   9.132  0.1061  0.4900  0.2974
    2CHL1   H17   99   2.286   3.504   9.105 -0.1887 -0.9368  0.0378
    2CHL1   C13  100   2.156   3.530   9.283  0.6030 -0.3361 -0.2274
    2CHL1   C18  101   1.999   3.536   9.307  0.0243 -0.7487  0.8770
    2CHL1  H18A  102   1.986   3.565   9.413 -1.5682  0.5871  0.3374
    2CHL1  H18B  103   1.947   3.609   9.242 -0.7948 -0.8081  1.4623
    2CHL1  H18C  104   1.952   3.435   9.301 -0.4488 -0.6341  2.4373
    2CHL1   C12  105   2.209   3.420   9.361 -0.3732 -0.1955  0.8312
    2CHL1  H12A  106   2.154   3.330   9.329  0.8229 -1.4162  2.1149
    2CHL1  H12B  107   2.317   3.408   9.337 -0.6667 -2.5034  0.6304
    2CHL1   C11  108   2.212   3.453   9.512  0.5913 -0.1460  0.5377
    2CHL1  H11A  109   2.106   3.448   9.546  0.1067 -0.9682 -1.0298
    2CHL1  H11B  110   2.276   3.377   9.563  1.7506  0.7933  0.5039
    2CHL1    C9  111   2.271   3.587   9.550  0.2199  0.4102 -0.2032
    2CHL1    H9  112   2.375   3.584   9.512  0.5174 -1.0778  0.6914
    2CHL1   C10  113   2.271   3.620   9.703  0.5786 -0.0080  0.7901
    2CHL1   C19  114   2.124   3.592   9.751  0.0852  0.3022 -0.0999
    2CHL1  H19A  115   2.104   3.642   9.848 -0.6651  1.2673 -0.7475
    2CHL1  H19B  116   2.051   3.624   9.674  1.0187  4.5436  0.6200
    2CHL1  H19C  117   2.126   3.483   9.774 -0.0390  0.5748  1.2714
    2CHL1    C1  118   2.361   3.512   9.781  0.2115 -0.7688  0.2797
    2CHL1   H1A  119   2.316   3.411   9.772  3.3067 -1.9345 -3.2944
    2CHL1   H1B  120   2.463   3.505   9.738  1.6285  0.4219  3.2651
    2CHL1    C2  121   2.388   3.561   9.925  0.6909  0.1006 -0.3767
    2CHL1   H2A  122   2.444   3.482   9.982 -1.8348 -2.1824 -0.9610
    2CHL1   H2B  123   2.294   3.572   9.983  0.0454 -2.6379 -0.8510
    2CHL1   C20  124   2.097   3.419   9.055  0.0791  0.0442 -0.1618
    2CHL1   H20  125   2.069   3.340   9.127  0.2874  0.4243  0.3406
    2CHL1   C21  126   2.201   3.354   8.957  0.4678  0.2614 -0.3543
    2CHL1  H21A  127   2.294   3.321   9.009  1.5087  2.4339 -0.7746
    2CHL1  H21B  128   2.231   3.422   8.874  0.5620  1.9241  1.0133
    2CHL1  H21C  129   2.152   3.265   8.911  0.6479 -0.9611  1.7697
    2CHL1   C22  130   1.973   3.467   8.977 -0.1847 -0.8719  0.1824
    2CHL1  H22A  131   1.919   3.547   9.031  0.8757  0.5649 -0.8328
    2CHL1  H22B  132   2.003   3.514   8.881  2.4391 -0.8958  0.9567
    2CHL1   C23  133   1.876   3.350   8.948 -0.3845 -0.1461  0.0104
    2CHL1  H23A  134   1.925   3.280   8.877 -0.5807 -0.1866 -0.0895
    2CHL1  H23B  135   1.865   3.286   9.038  1.7192  0.5053  0.7561
    2CHL1   C24  136   1.739   3.403   8.911  0.1911  0.5328  0.5690
    2CHL1  H24A  137   1.714   3.466   8.999  0.5451  1.7087 -0.1623
    2CHL1  H24B  138   1.733   3.469   8.822  4.6166 -1.6879 -1.5269
    2CHL1   C25  139   1.636   3.285   8.894  0.1629  0.0913  0.3722
    2CHL1   H25  140   1.642   3.219   8.983  1.1814 -0.1931  0.0965
    2CHL1   C26  141   1.495   3.342   8.864  0.4701 -0.9259  0.1245
    2CHL1  H26A  142   1.487   3.403   8.771 -1.6124  0.2655  1.0414
    2CHL1  H26B  143   1.424   3.258   8.845  0.5986 -1.1062  0.4443
    2CHL1  H26C  144   1.455   3.404   8.947 -0.3054 -0.6091 -0.4770
    2CHL1   C27  145   1.673   3.205   8.764 -0.3956 -0.7785  0.1182
    2CHL1  H27A  146   1.773   3.156   8.764 -0.1168 -0.2340  1.2804
    2CHL1  H27B  147   1.597   3.125   8.753 -0.2600 -1.1296  1.6040
    2CHL1  H27C  148   1.672   3.278   8.680  1.4049 -1.6572 -0.6816
    3CHL1    C3  149   2.878   3.088  10.111 -0.0894  0.7735  0.2420
    3CHL1    H3  150   2.962   3.028  10.070  1.4011  2.1459  1.2386
    3CHL1    O3  151   2.910   3.096  10.249 -0.1311 -0.0570  0.5946
    3CHL1   H3'  152   2.985   3.039  10.265  0.0467 -0.1915 -0.7137
    3CHL1    C4  153   2.871   3.229  10.047  0.3839 -0.6634 -0.0688
    3CHL1   H4A  154   2.789   3.293  10.087 -1.8237 -0.8683 -4.0289
    3CHL1   H4B  155   2.957   3.297  10.067  0.8206 -1.3243  0.2859
    3CHL1    C5  156   2.853   3.224   9.896  0.1339 -0.2728  0.5058
    3CHL1    C6  157   2.940   3.274   9.814  0.2086 -0.3321 -0.3296
    3CHL1    H6  158   3.024   3.324   9.864 -0.3535 -0.4991  0.8047
    3CHL1    C7  159   2.934   3.270   9.667 -0.7648 -0.3167 -0.5314
    3CHL1   H7A  160   2.950   3.368   9.619 -0.0020 -0.4913 -0.6271
    3CHL1   H7B  161   3.000   3.190   9.628  1.1072  0.7122  0.4779
    3CHL1    C8  162   2.787   3.240   9.621 -0.4146  0.0302  0.2359
    3CHL1    H8  163   2.728   3.331   9.640  0.2429  0.0398  2.4211
    3CHL1   C14  164   2.792   3.206   9.478 -0.2598 -0.5971  0.3920
    3CHL1   H14  165   2.862   3.120   9.473 -1.1058 -1.2556 -0.1992
    3CHL1   C15  166   2.867   3.296   9.388  0.1504  0.7259 -0.3894
    3CHL1  H15A  167   2.824   3.394   9.418 -0.5329  0.1855  0.4222
    3CHL1  H15B  168   2.975   3.307   9.407  0.4977  0.9122 -2.3644
    3CHL1   C16  169   2.843   3.230   9.252 -0.8448  0.0976  0.7536
    3CHL1  H16A  170   2.830   3.298   9.165 -2.0728 -1.4144 -0.2909
    3CHL1  H16B  171   2.931   3.166   9.229  0.9382  3.1696 -1.3154
    3CHL1   C17  172   2.715   3.142   9.266 -0.0339 -0.5887 -0.3350
    3CHL1   H17  173   2.748   3.036   9.268  0.8693 -0.3050  0.2682
    3CHL1   C13  174   2.663   3.169   9.404 -0.3689 -0.7193  0.6930
    3CHL1   C18  175   2.567   3.292   9.398  0.0486  0.0294  0.1216
    3CHL1  H18A  176   2.471   3.262   9.352 -0.8297  0.7736  1.4422
    3CHL1  H18B  177   2.536   3.338   9.494 -1.7531 -0.0434 -0.4112
    3CHL1  H18C  178   2.616   3.370   9.335 -0.6158  1.4887  1.3679
    3CHL1   C12  179   2.609   3.048   9.474 -0.0051  0.5820 -0.5027
    3CHL1  H12A  180   2.516   3.013   9.425  0.4050 -1.0085 -0.1513
    3CHL1  H12B  181   2.683   2.968   9.456 -0.7118 -0.4958  1.2504
    3CHL1   C11  182   2.591   3.077   9.623 -0.2500 -0.2077 -0.0799
    3CHL1  H11A  183   2.503   3.143   9.638 -0.2534 -0.3186  0.3875
    3CHL1  H11B  184   2.557   2.984   9.673  3.4918 -2.1691 -1.0016
    3CHL1    C9  185   2.720   3.128   9.702  0.4129 -0.4923 -0.4766
    3CHL1    H9  186   2.794   3.047   9.683  0.9966  0.0946 -0.7314
    3CHL1   C10  187   2.724   3.147   9.858  0.2144  0.2984 -0.3310
    3CHL1   C19  188   2.592   3.222   9.898 -1.2441  0.9716 -0.0519
    3CHL1  H19A  189   2.498   3.169   9.873 -1.3556 -0.5295  3.3001
    3CHL1  H19B  190   2.575   3.232  10.007  2.9728 -3.6631  1.2136
    3CHL1  H19C  191   2.584   3.324   9.855 -0.8347  0.4863 -1.2879
    3CHL1    C1  192   2.719   3.011   9.932  0.1886  0.8540 -0.0985
    3CHL1   H1A  193   2.622   2.958   9.924  0.3630  0.6781 -1.0936
    3CHL1   H1B  194   2.801   2.947   9.893  1.9945  2.3784  1.0899
    3CHL1    C2  195   2.750   3.011  10.085 -0.3881  0.5138 -0.1473
    3CHL1   H2A  196   2.760   2.908  10.126  1.6706  0.9495  0.5105
    3CHL1   H2B  197   2.664   3.066  10.131 -1.2527 -1.1729  0.2891
    3CHL1   C20  198   2.623   3.145   9.140  0.8147  0.1464  0.4863
    3CHL1   H20  199   2.597   3.250   9.114  0.8563  0.4789  1.7661
    3CHL1   C21  200   2.489   3.059   9.139  0.7119  0.1356 -0.3565
    3CHL1  H21A  201   2.464   3.036   9.033  0.7142 -0.2188 -0.2818
    3CHL1  H21B  202   2.391   3.088   9.181  0.0553 -2.7764  0.2823
    3CHL1  H21C  203   2.515   2.960   9.183 -1.7382  0.6629  2.4436
    3CHL1   C22  204   2.709   3.101   9.017 -0.3446  0.1124  0.3869
    3CHL1  H22A  205   2.818   3.096   9.036 -0.1438  1.4287 -0.4148
    3CHL1  H22B  206   2.669   2.998   8.999  0.7986 -0.4726  1.0962
    3CHL1   C23  207   2.684   3.194   8.893  0.3581  0.1713 -0.0671
    3CHL1  H23A  208   2.576   3.191   8.865  0.0246 -1.7578  1.3502
    3CHL1  H23B  209   2.707   3.296   8.931 -1.7920  0.0198  1.7407
    3CHL1   C24  210   2.774   3.165   8.772  0.5258 -0.1774  0.0328
    3CHL1  H24A  211   2.880   3.175   8.804 -0.0437  2.5790  1.1726
    3CHL1  H24B  212   2.764   3.068   8.719 -0.7705  1.4782 -2.9095
    3CHL1   C25  213   2.758   3.280   8.672  0.1909 -0.1728 -0.1511
    3CHL1   H25  214   2.742   3.377   8.723  0.6085  0.4265 -1.1544
    3CHL1   C26  215   2.883   3.277   8.584 -0.4354  0.6378 -0.0314
    3CHL1  H26A  216   2.884   3.181   8.527  0.7588  0.7555 -0.2282
    3CHL1  H26B  217   2.885   3.358   8.508 -1.4563  0.5517 -0.1527
    3CHL1  H26C  218   2.975   3.292   8.644 -1.6302  1.9360  1.5122
    3CHL1   C27  219   2.640   3.252   8.575  0.5264  0.8016 -0.5866
    3CHL1  H27A  220   2.651   3.147   8.541  1.9826  0.1226  1.8072
    3CHL1  H27B  221   2.537   3.265   8.614  1.1750  0.1280  1.4305
    3CHL1  H27C  222   2.650   3.315   8.484  1.8017  1.2384 -0.1662
    4CHL1    C3  223   2.937   5.175  10.569 -0.6599 -0.0112 -0.3257
    4CHL1    H3  224   3.032   5.130  10.534  0.6007  0.8658  1.8908
    4CHL1    O3  225   2.929   5.193  10.714  0.2118  0.3846 -0.4648
    4CHL1   H3'  226   2.854   5.252  10.726 -1.1832 -1.7601  2.2759
    4CHL1    C4  227   2.906   5.315  10.499 -0.8947  0.1861  0.3710
    4CHL1   H4A  228   2.821   5.374  10.540 -1.1204  0.8017 -0.9658
    4CHL1   H4B  229   2.998   5.376  10.512 -0.3535 -0.5841  0.1885
    4CHL1    C5  230   2.880   5.306  10.351 -0.6561 -0.2009 -0.3628
    4CHL1    C6  231   2.954   5.382  10.268 -0.4776  0.3794 -0.1707
    4CHL1    H6  232   3.032   5.453  10.302  0.3445 -0.7732  0.3725
    4CHL1    C7  233   2.938   5.374  10.115  0.0324 -0.0187 -0.2654
    4CHL1   H7A  234   2.947   5.475  10.068 -0.1887  1.1873  2.2211
    4CHL1   H7B  235   3.014   5.309  10.068 -0.4864 -1.2695  0.6147
    4CHL1    C8  236   2.807   5.301  10.081 -0.3166  0.3820  0.1301
    4CHL1    H8  237   2.733   5.372  10.123 -0.9172 -0.4414  0.4707
    4CHL1   C14  238   2.789   5.277   9.927 -0.0714 -0.7282 -0.0458
    4CHL1   H14  239   2.877   5.217   9.895  1.5783  0.3683  2.2467
    4CHL1   C15  240   2.815   5.400   9.830  0.0004 -0.3312 -0.1925
    4CHL1  H15A  241   2.752   5.485   9.864  2.0590  1.2799 -0.3170
    4CHL1  H15B  242   2.920   5.433   9.821  0.3528 -1.2777  0.3185
    4CHL1   C16  243   2.757   5.358   9.691 -0.0741 -0.5152 -0.3128
    4CHL1  H16A  244   2.689   5.440   9.662  0.0266  0.2707  1.5609
    4CHL1  H16B  245   2.839   5.340   9.618  1.1133 -0.8680  1.0801
    4CHL1   C17  246   2.690   5.225   9.720 -0.2606 -0.1147 -0.7704
    4CHL1   H17  247   2.764   5.146   9.692  1.0523  1.0842 -0.7227
    4CHL1   C13  248   2.671   5.206   9.875 -0.2833 -0.3646  0.2517
    4CHL1   C18  249   2.546   5.289   9.924  0.2179  0.0131 -0.0734
    4CHL1  H18A  250   2.536   5.305  10.034  1.1618  1.9498 -0.2397
    4CHL1  H18B  251   2.551   5.387   9.871 -4.8034 -0.0879 -1.0002
    4CHL1  H18C  252   2.448   5.249   9.890 -1.0655  1.1791  2.1372
    4CHL1   C12  253   2.684   5.066   9.941 -0.4982  0.0743 -0.3026
    4CHL1  H12A  254   2.599   4.999   9.915 -0.6829  0.4140 -0.5827
    4CHL1  H12B  255   2.781   5.028   9.903 -0.6456 -0.6036 -0.0043
    4CHL1   C11  256   2.681   5.078  10.095 -0.5619 -0.5144 -0.3588
    4CHL1  H11A  257   2.576   5.099  10.124 -0.3373 -0.4854  0.4641
    4CHL1  H11B  258   2.694   4.980  10.147  0.5312 -1.3165 -2.0949
    4CHL1    C9  259   2.790   5.168  10.149 -0.2415 -0.3046 -0.3188
    4CHL1    H9  260   2.888   5.119  10.135 -0.1381 -0.0292 -0.5819
    4CHL1   C10  261   2.785   5.195  10.302 -0.5861 -0.4904 -0.0621
    4CHL1   C19  262   2.646   5.231  10.346 -0.0092 -0.0217 -0.1996
    4CHL1  H19A  263   2.649   5.261  10.453  1.2786 -0.8249 -0.0000
    4CHL1  H19B  264   2.605   5.315  10.286 -1.1413  1.1083  2.0981
    4CHL1  H19C  265   2.579   5.143  10.341 -0.0912  0.1202 -1.7918
    4CHL1    C1  266   2.823   5.058  10.380 -0.3028 -0.9503  0.1285
    4CHL1   H1A  267   2.731   4.998  10.367 -0.5475 -0.6740  0.5904
    4CHL1   H1B  268   2.910   5.014  10.326 -0.2559  0.3743 -0.8954
    4CHL1    C2  269   2.838   5.068  10.525 -0.8056  0.3632 -0.2932
    4CHL1   H2A  270   2.866   4.969  10.566  0.5617 -0.1351 -2.3806
    4CHL1   H2B  271   2.739   5.085  10.574 -0.4512  0.4407  0.4066
    4CHL1   C20  272   2.574   5.195   9.633 -0.7937  0.2001  0.3521
    4CHL1   H20  273   2.491   5.269   9.642 -1.1553 -0.2007  0.3639
    4CHL1   C21  274   2.521   5.052   9.666 -0.3206 -0.3970  0.2848
    4CHL1  H21A  275   2.449   5.026   9.585  1.0118 -2.1064 -0.3819
    4CHL1  H21B  276   2.455   5.049   9.756 -0.5983 -1.7197  0.0457
    4CHL1  H21C  277   2.595   4.971   9.686 -1.3802 -1.9637 -1.9305
    4CHL1   C22  278   2.609   5.199   9.480  0.4718  0.3996 -0.6156
    4CHL1  H22A  279   2.656   5.297   9.456  1.3915  0.5146  1.5588
    4CHL1  H22B  280   2.689   5.127   9.453 -0.8193 -1.2537 -0.1610
    4CHL1   C23  281   2.495   5.180   9.376  0.1295 -0.4684  0.0525
    4CHL1  H23A  282   2.454   5.077   9.383  1.1002 -0.8320  0.4366
    4CHL1  H23B  283   2.416   5.254   9.401  1.3181  1.1050 -0.7663
    4CHL1   C24  284   2.553   5.204   9.239 -0.1068 -0.3516 -1.0704
    4CHL1  H24A  285   2.465   5.189   9.173  0.8643 -3.7694 -1.6868
    4CHL1  H24B  286   2.588   5.309   9.241 -1.9384  0.2492  1.7857
    4CHL1   C25  287   2.663   5.105   9.179  0.6597 -0.1113  0.1905
    4CHL1   H25  288   2.755   5.131   9.235  0.8410  2.5807 -1.2545
    4CHL1   C26  289   2.631   4.957   9.195 -0.7290 -0.3032  0.1424
    4CHL1  H26A  290   2.662   4.924   9.296 -2.2239  0.3785  0.8423
    4CHL1  H26B  291   2.521   4.947   9.188 -1.0575  2.1779  1.0392
    4CHL1  H26C  292   2.689   4.902   9.118  0.2358  0.0202  0.6219
    4CHL1   C27  293   2.702   5.142   9.032 -0.2115 -0.2245  0.2041
    4CHL1  H27A  294   2.613   5.139   8.965  0.4712 -0.6764 -0.6880
    4CHL1  H27B  295   2.744   5.244   9.025 -0.9269  0.0382 -0.3176
    4CHL1  H27C  296   2.783   5.072   9.004  0.6012  0.9652 -0.4514
    5CHL1    C3  297   3.046   2.687  10.042 -0.8143  0.0584  0.1857
    5CHL1    H3  298   3.035   2.798  10.044  2.8684  0.7342 -5.1681
    5CHL1    O3  299   3.040   2.651  10.176 -0.7652  0.0393  0.3050
    5CHL1   H3'  300   3.094   2.572  10.185 -0.3826  0.0957 -1.3595
    5CHL1    C4  301   2.927   2.626   9.972 -0.4278 -0.3849  0.2205
    5CHL1   H4A  302   2.924   2.517   9.993 -0.9729 -0.6734 -1.2466
    5CHL1   H4B  303   2.828   2.655  10.011  0.2495  0.1009  1.5866
    5CHL1    C5  304   2.935   2.653   9.826  0.0013  0.0264  0.4638
    5CHL1    C6  305   2.841   2.718   9.753 -0.3594 -1.0584  0.1147
    5CHL1    H6  306   2.754   2.763   9.803 -0.0768 -1.1930  0.7331
    5CHL1    C7  307   2.840   2.742   9.600  0.1121 -0.3771 -0.2814
    5CHL1   H7A  308   2.738   2.726   9.559  0.1658  3.3150 -2.0417
    5CHL1   H7B  309   2.861   2.849   9.580  2.1031 -0.8221 -0.6499
    5CHL1    C8  310   2.937   2.661   9.521  0.2636 -0.0913 -0.3974
    5CHL1    H8  311   2.898   2.557   9.513 -2.1527  0.7399  0.1258
    5CHL1   C14  312   2.950   2.718   9.380 -0.6118  0.3731  0.2127
    5CHL1   H14  313   3.002   2.814   9.398 -1.9160  0.5300  3.5546
    5CHL1   C15  314   2.833   2.742   9.290 -0.3130  0.1823  0.7061
    5CHL1  H15A  315   2.767   2.652   9.288 -1.1380  0.7457  1.9640
    5CHL1  H15B  316   2.776   2.834   9.314  1.3117  1.8711 -1.7258
    5CHL1   C16  317   2.898   2.765   9.153  0.4048 -0.2427  0.0177
    5CHL1  H16A  318   2.857   2.694   9.077 -0.9077  0.1482  0.3430
    5CHL1  H16B  319   2.873   2.865   9.110  2.0405 -0.5265 -1.6593
    5CHL1   C17  320   3.049   2.742   9.167  0.3955 -0.1684  0.7999
    5CHL1   H17  321   3.096   2.841   9.184  1.2765 -0.5564  0.6540
    5CHL1   C13  322   3.064   2.654   9.299  0.4846  0.0847  0.5549
    5CHL1   C18  323   3.028   2.510   9.264 -0.1803 -0.6338 -0.2842
    5CHL1  H18A  324   3.113   2.463   9.211  2.6802  3.0357  0.8328
    5CHL1  H18B  325   3.010   2.453   9.357 -1.9377  0.1636 -0.1101
    5CHL1  H18C  326   2.931   2.504   9.210 -0.1756  2.1738 -0.6808
    5CHL1   C12  327   3.196   2.656   9.377  0.0025 -0.1931  0.4079
    5CHL1  H12A  328   3.278   2.616   9.314  1.2644  0.7972  1.3933
    5CHL1  H12B  329   3.213   2.763   9.403 -2.4627 -0.2610  2.5759
    5CHL1   C11  330   3.185   2.586   9.515  0.0212 -0.1996 -0.3445
    5CHL1  H11A  331   3.177   2.476   9.505 -0.8029 -0.2559  0.8156
    5CHL1  H11B  332   3.275   2.612   9.575  0.2353 -3.2605  0.7508
    5CHL1    C9  333   3.070   2.646   9.601  0.3855 -0.0929 -0.2488
    5CHL1    H9  334   3.098   2.753   9.616 -2.8402  0.8195 -0.3924
    5CHL1   C10  335   3.062   2.599   9.748  0.0986 -0.1146 -0.2672
    5CHL1   C19  336   3.070   2.451   9.749 -0.3439  0.0491 -0.1971
    5CHL1  H19A  337   2.979   2.412   9.698 -0.1715  0.8378 -1.1225
    5CHL1  H19B  338   3.162   2.404   9.708 -0.2185 -0.4703  0.6788
    5CHL1  H19C  339   3.083   2.410   9.851  2.2675  0.4941 -0.3212
    5CHL1    C1  340   3.177   2.666   9.831  0.3096 -0.0661  0.3160
    5CHL1   H1A  341   3.272   2.623   9.794  0.1656 -0.2388  0.1445
    5CHL1   H1B  342   3.191   2.774   9.807  0.9912  0.5757  3.4062
    5CHL1    C2  343   3.176   2.639   9.980  0.8692  0.2605 -0.1340
    5CHL1   H2A  344   3.263   2.682  10.034 -0.2326  1.1119  1.0213
    5CHL1   H2B  345   3.179   2.528   9.992 -2.7182  0.0048 -0.9048
    5CHL1   C20  346   3.127   2.696   9.034 -0.2073 -0.0074  0.1717
    5CHL1   H20  347   3.091   2.596   9.001  0.6836 -0.8209  1.5968
    5CHL1   C21  348   3.277   2.694   9.072  0.1447  0.3406 -0.2839
    5CHL1  H21A  349   3.338   2.699   8.979 -0.8540 -1.8813 -1.1022
    5CHL1  H21B  350   3.309   2.594   9.109 -0.7270  0.2631  0.2550
    5CHL1  H21C  351   3.301   2.775   9.144  0.0834  1.1959 -1.2163
    5CHL1   C22  352   3.103   2.799   8.923 -0.6321  0.0934 -0.0361
    5CHL1  H22A  353   2.993   2.818   8.926 -0.6322 -0.0043  0.8096
    5CHL1  H22B  354   3.155   2.893   8.952 -0.3638  0.1711 -0.7531
    5CHL1   C23  355   3.148   2.751   8.781 -0.2875  0.5341  0.7724
    5CHL1  H23A  356   3.258   2.730   8.783 -0.6979 -2.0994 -1.2946
    5CHL1  H23B  357   3.098   2.654   8.761 -0.8963  0.7966  1.0419
    5CHL1   C24  358   3.119   2.845   8.672  0.3627 -0.0032 -0.0512
    5CHL1  H24A  359   3.014   2.877   8.692  0.9183  1.8356  0.0239
    5CHL1  H24B  360   3.178   2.937   8.689  0.3689  0.3731 -2.0074
    5CHL1   C25  361   3.138   2.796   8.533  0.5375 -0.1985 -0.3182
    5CHL1   H25  362   3.076   2.705   8.526  0.6732 -0.4361  1.4382
    5CHL1   C26  363   3.090   2.905   8.424  0.1898  0.4424  0.2226
    5CHL1  H26A  364   3.093   2.858   8.323  0.7551 -0.4809  0.6580
    5CHL1  H26B  365   2.982   2.924   8.441 -1.0321 -2.9589 -2.9087
    5CHL1  H26C  366   3.148   2.999   8.427  0.5337  0.2178  0.6862
    5CHL1   C27  367   3.290   2.768   8.509  0.8608 -0.1973  0.0497
    5CHL1  H27A  368   3.305   2.736   8.404  2.9945  1.1780 -0.0972
    5CHL1  H27B  369   3.355   2.857   8.526  1.4878 -0.5328 -0.5563
    5CHL1  H27C  370   3.326   2.690   8.580  1.7517  1.7631  1.7910
    6CHL1    C3  371   1.153   0.181  10.363 -0.6617 -0.3740  0.1926
    6CHL1    H3  372   1.174   0.289  10.346  2.1387 -1.2382 -2.1023
    6CHL1    O3  373   1.119   0.174  10.496 -0.1198 -0.2172 -0.2276
    6CHL1   H3'  374   1.180   0.113  10.537 -0.2716  0.1916  0.6078
    6CHL1    C4  375   1.040   0.135  10.266 -0.2352  0.6682 -0.5510
    6CHL1   H4A  376   1.003   0.035  10.299  2.9989 -1.3845 -2.8210
    6CHL1   H4B  377   0.960   0.209  10.284 -1.9131 -0.8274 -1.6938
    6CHL1    C5  378   1.088   0.133  10.119  0.2732 -0.0408 -0.4816
    6CHL1    C6  379   1.022   0.210  10.025  0.0305 -0.0808  0.6590
    6CHL1    H6  380   0.931   0.265  10.052  0.7382  1.6041 -0.2765
    6CHL1    C7  381   1.057   0.201   9.875  0.1740 -0.1574  0.1455
    6CHL1   H7A  382   0.961   0.190   9.821 -0.6754  0.8052  1.4174
    6CHL1   H7B  383   1.104   0.286   9.822 -0.3333  0.4362  0.6364
    6CHL1    C8  384   1.145   0.078   9.843 -0.0826  0.5946 -0.3260
    6CHL1    H8  385   1.083  -0.015   9.849 -0.1294  0.6224 -0.3807
    6CHL1   C14  386   1.201   0.085   9.704 -0.2007 -0.3019  0.4210
    6CHL1   H14  387   1.272   0.170   9.712  0.6046 -0.8640 -0.5664
    6CHL1   C15  388   1.111   0.113   9.584 -0.2012  0.2027  0.6527
    6CHL1  H15A  389   1.021   0.048   9.579  1.7987 -2.4826 -2.8702
    6CHL1  H15B  390   1.063   0.213   9.576  0.0310  0.2643  0.0144
    6CHL1   C16  391   1.200   0.094   9.457 -0.4970  0.1023 -0.0038
    6CHL1  H16A  392   1.155   0.034   9.375 -2.5234  0.4144  0.8261
    6CHL1  H16B  393   1.234   0.193   9.421 -0.4708 -0.5660 -1.8638
    6CHL1   C17  394   1.330   0.023   9.517  0.0585  0.3688  0.7120
    6CHL1   H17  395   1.406   0.104   9.523 -0.1219  0.8029 -2.0005
    6CHL1   C13  396   1.297  -0.027   9.661  0.0227 -0.8253 -0.4964
    6CHL1   C18  397   1.215  -0.159   9.651 -0.1515  0.4382 -0.1388
    6CHL1  H18A  398   1.295  -0.236   9.648 -0.6348 -0.1508  1.4234
    6CHL1  H18B  399   1.163  -0.181   9.747  1.2778 -1.4792  0.2309
    6CHL1  H18C  400   1.147  -0.166   9.564 -2.4981 -0.7750  1.7514
    6CHL1   C12  401   1.409  -0.032   9.764  0.2743  0.6502  0.3961
    6CHL1  H12A  402   1.480  -0.113   9.740 -2.0372 -1.3979  0.2426
    6CHL1  H12B  403   1.458   0.067   9.767  0.3618  0.5673  2.1266
    6CHL1   C11  404   1.357  -0.050   9.908  0.1861  0.2781 -0.7745
    6CHL1  H11A  405   1.308  -0.148   9.922 -1.8837  1.8547  3.9754
    6CHL1  H11B  406   1.447  -0.047   9.973 -0.0322 -0.9610 -0.4114
    6CHL1    C9  407   1.256   0.062   9.946  0.5679  0.2638 -0.1198
    6CHL1    H9  408   1.306   0.161   9.935  4.5218 -1.1732  3.3065
    6CHL1   C10  409   1.208   0.047  10.094  0.2734  1.2542 -0.4555
    6CHL1   C19  410   1.180  -0.103  10.126 -0.4896 -0.1471  1.1238
    6CHL1  H19A  411   1.128  -0.113  10.224 -1.2651  1.7134  0.9237
    6CHL1  H19B  412   1.108  -0.145  10.052  1.5144 -0.8836 -0.4648
    6CHL1  H19C  413   1.275  -0.160  10.123 -0.2189  0.3374 -1.7538
    6CHL1    C1  414   1.321   0.086  10.189 -0.2928  0.1986  0.1500
    6CHL1   H1A  415   1.397   0.006  10.180 -0.1161  0.6144 -2.3953
    6CHL1   H1B  416   1.374   0.178  10.155  1.0064  0.4928  2.8320
    6CHL1    C2  417   1.274   0.102  10.338  0.0079 -0.3686  0.4901
    6CHL1   H2A  418   1.356   0.143  10.401 -0.6012  1.6564 -0.0010
    6CHL1   H2B  419   1.246   0.001  10.375 -0.8702 -0.4954 -0.5009
    6CHL1   C20  420   1.399  -0.074   9.418  0.5655 -0.8416 -0.0367
    6CHL1   H20  421   1.340  -0.168   9.422 -1.2616  0.2912  0.3654
    6CHL1   C21  422   1.540  -0.101   9.470  0.6897 -0.4385 -0.7144
    6CHL1  H21A  423   1.533  -0.179   9.550  1.3113 -0.5425 -0.7570
    6CHL1  H21B  424   1.583  -0.009   9.514  0.0813  0.4696 -2.0231
    6CHL1  H21C  425   1.610  -0.153   9.402  2.3596 -2.5811  2.4824
    6CHL1   C22  426   1.408  -0.023   9.273  0.3284  0.2843  0.6837
    6CHL1  H22A  427   1.348   0.066   9.244 -1.5159 -1.6859 -1.8557
    6CHL1  H22B  428   1.511   0.002   9.241  0.9076 -0.8382  1.6149
    6CHL1   C23  429   1.366  -0.132   9.166 -0.9992  0.7596 -0.3729
    6CHL1  H23A  430   1.410  -0.121   9.064 -1.2245  1.2846 -0.4179
    6CHL1  H23B  431   1.409  -0.224   9.211 -0.7565  0.5255 -1.0643
    6CHL1   C24  432   1.211  -0.136   9.151 -0.4970  0.0918  0.5005
    6CHL1  H24A  433   1.149  -0.135   9.243  0.7719 -3.2519  1.4635
    6CHL1  H24B  434   1.174  -0.040   9.107 -1.9284  0.3509  2.2112
    6CHL1   C25  435   1.159  -0.239   9.051 -0.7256 -0.5025  0.2253
    6CHL1   H25  436   1.050  -0.223   9.036 -0.8690 -1.3300  0.3314
    6CHL1   C26  437   1.213  -0.234   8.907 -0.0191 -0.0454 -0.2918
    6CHL1  H26A  438   1.323  -0.247   8.903 -0.0462 -0.2138 -0.5142
    6CHL1  H26B  439   1.162  -0.311   8.845 -2.3666  0.7411  0.5934
    6CHL1  H26C  440   1.186  -0.134   8.867  0.2644  0.7472  1.4567
    6CHL1   C27  441   1.180  -0.379   9.104 -0.2274 -0.0322 -0.3155
    6CHL1  H27A  442   1.127  -0.444   9.031  1.2964 -1.1729 -0.4222
    6CHL1  H27B  443   1.289  -0.398   9.103 -0.4188 -1.3741  1.3774
    6CHL1  H27C  444   1.141  -0.395   9.207 -2.7250  1.1893 -1.0151
    7CHL1    C3  445   4.405   3.158  10.479 -0.8310  0.0098 -0.2312
    7CHL1    H3  446   4.421   3.053  10.445 -0.2461  0.4583 -1.3656
    7CHL1    O3  447   4.413   3.161  10.618  0.0901 -0.0814  0.3800
    7CHL1   H3'  448   4.372   3.245  10.640 -2.0185 -0.8189 -0.6330
    7CHL1    C4  449   4.503   3.254  10.422  0.0548 -0.0974  0.1970
    7CHL1   H4A  450   4.490   3.357  10.462  0.3768  0.4618 -1.1062
    7CHL1   H4B  451   4.607   3.222  10.443  0.4194  1.0230  0.1367
    7CHL1    C5  452   4.488   3.262  10.269  0.0980  0.3222  0.1875
    7CHL1    C6  453   4.588   3.240  10.179  0.0456  0.3313  0.0420
    7CHL1    H6  454   4.685   3.207  10.219  0.2456 -0.6843 -1.2692
    7CHL1    C7  455   4.578   3.254  10.037  0.1117 -0.2740  0.6156
    7CHL1   H7A  456   4.660   3.313   9.990  0.1032 -0.5437  0.2582
    7CHL1   H7B  457   4.588   3.152   9.994 -1.2788 -0.3515  0.4534
    7CHL1    C8  458   4.451   3.336   9.996  0.7977 -0.0733  0.4175
    7CHL1    H8  459   4.467   3.442  10.026  0.8167 -0.1357  0.6306
    7CHL1   C14  460   4.441   3.322   9.847 -0.0618 -0.1002 -0.3509
    7CHL1   H14  461   4.420   3.216   9.822  2.2983 -0.6737  0.0112
    7CHL1   C15  462   4.561   3.365   9.754 -0.6962  0.7526  0.2860
    7CHL1  H15A  463   4.591   3.471   9.768  1.2767  0.0075  1.9420
    7CHL1  H15B  464   4.647   3.295   9.755  1.1121  2.9280  1.5928
    7CHL1   C16  465   4.492   3.369   9.617 -0.2273 -0.5354 -0.3488
    7CHL1  H16A  466   4.508   3.467   9.567 -0.5434 -1.0288 -1.4471
    7CHL1  H16B  467   4.525   3.282   9.556  1.3038  0.1040 -0.4691
    7CHL1   C17  468   4.335   3.368   9.635  0.1729  0.7436  0.5704
    7CHL1   H17  469   4.304   3.263   9.617 -1.4616  1.3338 -0.1591
    7CHL1   C13  470   4.314   3.398   9.784 -0.9441  0.4287  0.7765
    7CHL1   C18  471   4.319   3.554   9.804  0.1250  0.5361  0.1555
    7CHL1  H18A  472   4.222   3.598   9.772 -0.3213 -2.4143 -2.8683
    7CHL1  H18B  473   4.321   3.582   9.911 -0.4676  0.6809  0.1323
    7CHL1  H18C  474   4.394   3.610   9.744 -0.9058 -0.1244 -1.8069
    7CHL1   C12  475   4.187   3.342   9.850 -0.4950  0.4386 -0.3209
    7CHL1  H12A  476   4.098   3.404   9.824 -1.0294 -0.4736 -0.6664
    7CHL1  H12B  477   4.173   3.239   9.812  0.1715  0.6305 -1.1042
    7CHL1   C11  478   4.195   3.352  10.002 -0.8034 -0.2182 -0.1754
    7CHL1  H11A  479   4.187   3.460  10.024  0.8352 -0.6015  2.4936
    7CHL1  H11B  480   4.108   3.297  10.043 -0.5923 -0.6575 -0.3066
    7CHL1    C9  481   4.325   3.291  10.068  0.5005 -0.2880  0.4836
    7CHL1    H9  482   4.321   3.182  10.049  1.3661 -0.4294  1.0788
    7CHL1   C10  483   4.341   3.292  10.224  0.5568  0.1353  0.0883
    7CHL1   C19  484   4.315   3.441  10.275  0.1672 -0.2001 -0.0973
    7CHL1  H19A  485   4.382   3.511  10.220 -0.4913  1.6993  1.4577
    7CHL1  H19B  486   4.218   3.481  10.242 -0.3979 -2.1838 -0.9094
    7CHL1  H19C  487   4.339   3.455  10.383 -1.4505 -1.9763  0.5164
    7CHL1    C1  488   4.246   3.190  10.294 -0.4631  0.3433 -0.3092
    7CHL1   H1A  489   4.138   3.208  10.274 -1.0181 -3.3533 -0.9005
    7CHL1   H1B  490   4.273   3.088  10.261  2.1478 -0.0201  2.6736
    7CHL1    C2  491   4.256   3.186  10.441  0.7100 -0.0072 -0.3155
    7CHL1   H2A  492   4.173   3.127  10.485  0.3623  1.1357  0.5813
    7CHL1   H2B  493   4.233   3.287  10.483 -6.8152 -1.3622 -0.4361
    7CHL1   C20  494   4.257   3.453   9.530 -0.9842  0.6966 -0.2203
    7CHL1   H20  495   4.295   3.557   9.539 -0.5369  0.7923 -2.8587
    7CHL1   C21  496   4.106   3.453   9.561 -0.8691  0.3893  0.3569
    7CHL1  H21A  497   4.051   3.482   9.469  0.9893 -0.4345 -1.0393
    7CHL1  H21B  498   4.072   3.523   9.641 -1.0938 -2.1394  2.5611
    7CHL1  H21C  499   4.065   3.353   9.586  1.0691 -1.1620 -2.4682
    7CHL1   C22  500   4.291   3.402   9.384 -0.5621 -0.3808 -0.6428
    7CHL1  H22A  501   4.402   3.403   9.375 -0.6803 -1.2612 -2.5548
    7CHL1  H22B  502   4.254   3.298   9.368  1.2199 -1.1045 -0.2513
    7CHL1   C23  503   4.229   3.472   9.261  0.0371 -0.9477 -0.1951
    7CHL1  H23A  504   4.118   3.459   9.260 -0.2564  1.4820 -1.1968
    7CHL1  H23B  505   4.262   3.576   9.284 -0.3419 -0.8943  0.1295
    7CHL1   C24  506   4.284   3.432   9.128 -0.1366  0.8478  0.9852
    7CHL1  H24A  507   4.386   3.390   9.133  0.1481  1.0541 -2.0466
    7CHL1  H24B  508   4.215   3.355   9.086  0.2450  0.3213  1.3186
    7CHL1   C25  509   4.280   3.536   9.017 -0.1015 -0.4524 -0.2466
    7CHL1   H25  510   4.194   3.604   9.034  1.8150  1.5871  1.8627
    7CHL1   C26  511   4.412   3.619   9.025 -1.0341  0.0275  0.0849
    7CHL1  H26A  512   4.429   3.667   9.123 -0.8931  2.2376 -0.9911
    7CHL1  H26B  513   4.495   3.545   9.012  0.5377  1.3141  2.4964
    7CHL1  H26C  514   4.409   3.696   8.945  2.0738  0.1553  0.0102
    7CHL1   C27  515   4.252   3.474   8.879  0.3082 -0.4193 -0.3938
    7CHL1  H27A  516   4.145   3.448   8.870  0.5310 -0.9361 -1.6037
    7CHL1  H27B  517   4.262   3.553   8.803 -1.3371  0.7354  0.5725
    7CHL1  H27C  518   4.327   3.394   8.859  1.2334  0.5224 -0.7289
    8CHL1    C3  519   4.826   5.195  10.561 -0.2825 -0.7193  0.2514
    8CHL1    H3  520   4.770   5.291  10.553 -2.0395 -1.8311 -1.0635
    8CHL1    O3  521   4.887   5.178  10.687  0.0872 -0.2014 -0.1143
    8CHL1   H3'  522   4.876   5.089  10.721 -2.6598  0.6360  1.3442
    8CHL1    C4  523   4.716   5.084  10.535  0.2015 -0.1705 -0.0267
    8CHL1   H4A  524   4.766   4.986  10.548  0.3886  0.0559  0.9751
    8CHL1   H4B  525   4.631   5.080  10.606  0.9209  2.0018  1.0145
    8CHL1    C5  526   4.658   5.092  10.389  0.3869 -0.3510 -0.4346
    8CHL1    C6  527   4.526   5.089  10.362 -0.2844  0.0409 -0.7013
    8CHL1    H6  528   4.449   5.080  10.440 -0.1488  1.3452 -0.4056
    8CHL1    C7  529   4.470   5.087  10.224  0.1768  0.3300  1.0673
    8CHL1   H7A  530   4.396   5.007  10.204 -0.1676  1.1409 -0.9147
    8CHL1   H7B  531   4.418   5.183  10.207 -0.8358 -0.6183 -1.4388
    8CHL1    C8  532   4.574   5.079  10.110 -0.7453 -0.4361 -0.4702
    8CHL1    H8  533   4.598   4.972  10.091  1.6163  0.4679 -2.7880
    8CHL1   C14  534   4.520   5.137   9.983  0.5254 -0.3867  0.0054
    8CHL1   H14  535   4.526   5.244  10.010 -0.8784 -0.4721  0.6881
    8CHL1   C15  536   4.377   5.097   9.936 -0.3621  0.9864 -0.2507
    8CHL1  H15A  537   4.369   4.987   9.949 -1.0168  1.1214  0.5526
    8CHL1  H15B  538   4.293   5.157   9.979  0.1182  3.0491 -2.0956
    8CHL1   C16  539   4.383   5.136   9.788 -0.1053 -0.5716 -0.7084
    8CHL1  H16A  540   4.370   5.041   9.733  2.1941 -0.8047 -0.8927
    8CHL1  H16B  541   4.312   5.214   9.752  0.3813  0.4511  0.4965
    8CHL1   C17  542   4.520   5.202   9.752 -0.5609 -0.3841 -0.1346
    8CHL1   H17  543   4.521   5.309   9.780  1.5906 -0.8987  1.9372
    8CHL1   C13  544   4.616   5.133   9.859  0.5047 -0.2714 -0.5792
    8CHL1   C18  545   4.651   4.987   9.818 -0.1266 -0.2972  0.3441
    8CHL1  H18A  546   4.560   4.924   9.827  0.5455 -1.3361 -0.0355
    8CHL1  H18B  547   4.693   4.990   9.715 -0.7864  2.3052  0.1182
    8CHL1  H18C  548   4.725   4.938   9.885 -1.6395 -1.0575  1.4743
    8CHL1   C12  549   4.741   5.217   9.902 -1.0277 -0.0172  0.6648
    8CHL1  H12A  550   4.804   5.218   9.811  0.8087  0.8529  1.9167
    8CHL1  H12B  551   4.702   5.321   9.912 -0.4947  0.4240 -1.5748
    8CHL1   C11  552   4.802   5.161  10.026 -0.4382 -0.2768 -0.1103
    8CHL1  H11A  553   4.836   5.057  10.007  0.7096 -0.0638  0.7090
    8CHL1  H11B  554   4.898   5.214  10.045 -0.8547  1.0037 -1.4430
    8CHL1    C9  555   4.709   5.152  10.149 -0.7757  0.5289 -0.3971
    8CHL1    H9  556   4.678   5.256  10.172  0.0650  1.1889 -2.1726
    8CHL1   C10  557   4.766   5.100  10.283 -0.7734  0.0307  0.1288
    8CHL1   C19  558   4.827   4.966  10.245 -0.1546  0.1039 -1.0504
    8CHL1  H19A  559   4.868   4.906  10.329  0.5964 -0.2532 -1.6622
    8CHL1  H19B  560   4.746   4.909  10.195 -0.2721 -0.3988 -0.2831
    8CHL1  H19C  561   4.911   4.971  10.171  0.7904  1.0434  0.0616
    8CHL1    C1  562   4.880   5.191  10.322 -0.3506  0.4149 -0.0921
    8CHL1   H1A  563   4.956   5.194  10.241 -0.0786  3.1380  0.2123
    8CHL1   H1B  564   4.838   5.293  10.316  0.7056  0.8198 -0.6511
    8CHL1    C2  565   4.938   5.188  10.463 -0.0830  0.1057 -0.3067
    8CHL1   H2A  566   5.019   5.263  10.469  1.3627 -1.3476 -1.1893
    8CHL1   H2B  567   4.976   5.084  10.468 -0.2483 -0.0340 -1.5741
    8CHL1   C20  568   4.551   5.197   9.601 -0.2775 -0.2992  0.2318
    8CHL1   H20  569   4.590   5.095   9.580  0.7988 -0.1482  1.4429
    8CHL1   C21  570   4.671   5.288   9.565 -0.8662  0.1125  0.0008
    8CHL1  H21A  571   4.773   5.252   9.591  0.6235  4.2026  0.1409
    8CHL1  H21B  572   4.647   5.388   9.608 -0.5940  1.0205 -1.8758
    8CHL1  H21C  573   4.676   5.302   9.455  1.2230 -0.7678 -0.0553
    8CHL1   C22  574   4.432   5.233   9.523  0.2998 -0.0315 -0.1431
    8CHL1  H22A  575   4.450   5.215   9.415 -0.0769  0.9421 -0.3793
    8CHL1  H22B  576   4.342   5.170   9.538  0.9160 -0.9509 -0.2663
    8CHL1   C23  577   4.385   5.392   9.533  0.1707 -0.7144  0.0482
    8CHL1  H23A  578   4.360   5.411   9.640  0.9795 -0.5816  0.2227
    8CHL1  H23B  579   4.477   5.454   9.522  1.1425 -1.5334  3.1318
    8CHL1   C24  580   4.280   5.432   9.435  0.1078  0.1166  0.1528
    8CHL1  H24A  581   4.208   5.349   9.444 -3.0985  2.7231 -0.5801
    8CHL1  H24B  582   4.238   5.531   9.464 -0.0681  0.3673 -0.9182
    8CHL1   C25  583   4.318   5.440   9.291  0.0316  0.0350  0.2143
    8CHL1   H25  584   4.326   5.336   9.251 -2.8432 -0.2826  0.3523
    8CHL1   C26  585   4.196   5.498   9.217 -0.7053  0.5161 -0.4647
    8CHL1  H26A  586   4.189   5.604   9.249  0.1944  1.3240 -2.8046
    8CHL1  H26B  587   4.229   5.492   9.111 -0.6403 -1.2356 -0.3666
    8CHL1  H26C  588   4.096   5.449   9.223 -0.7770  0.5459 -1.2920
    8CHL1   C27  589   4.449   5.521   9.256 -0.2441  0.8098  0.3327
    8CHL1  H27A  590   4.464   5.521   9.146 -0.5185 -2.1445  0.2521
    8CHL1  H27B  591   4.447   5.623   9.299 -1.7776  1.4838 -1.2649
    8CHL1  H27C  592   4.534   5.473   9.308 -0.7849  1.2070  1.5893
    9CHL1    C3  593   0.928   1.548  10.204 -0.7308 -0.1877  0.1997
    9CHL1    H3  594   0.993   1.634  10.178 -0.2476 -0.7286 -0.4254
    9CHL1    O3  595   0.913   1.525  10.348 -0.4618  0.2778  0.0620
    9CHL1   H3'  596   0.992   1.565  10.385  0.0097 -0.1995 -0.4247
    9CHL1    C4  597   0.795   1.582  10.135  0.0602  0.9136  0.9482
    9CHL1   H4A  598   0.739   1.490  10.161 -0.7677  1.1398 -0.0386
    9CHL1   H4B  599   0.730   1.659  10.183  1.3428  1.5534  1.6851
    9CHL1    C5  600   0.797   1.586   9.985  0.6632  0.2127  0.2261
    9CHL1    C6  601   0.743   1.691   9.925  1.1408 -0.5179  0.6422
    9CHL1    H6  602   0.695   1.764   9.991  2.1813  1.8037 -1.0880
    9CHL1    C7  603   0.738   1.716   9.777  0.3033  0.4623 -0.0523
    9CHL1   H7A  604   0.639   1.751   9.742 -1.1546 -1.8282  1.6137
    9CHL1   H7B  605   0.813   1.795   9.753  0.7401 -0.8401 -3.1873
    9CHL1    C8  606   0.791   1.590   9.698 -0.9270  0.2595 -0.1810
    9CHL1    H8  607   0.706   1.519   9.690 -1.3938  0.7390  0.4520
    9CHL1   C14  608   0.832   1.633   9.555 -0.6719  0.2229  0.4140
    9CHL1   H14  609   0.922   1.697   9.564 -0.5588  0.3563 -1.3915
    9CHL1   C15  610   0.727   1.702   9.476 -0.3682 -0.1720 -0.1943
    9CHL1  H15A  611   0.634   1.642   9.486 -2.0521  2.2156 -1.2121
    9CHL1  H15B  612   0.708   1.811   9.487 -1.2393 -0.0738 -2.3708
    9CHL1   C16  613   0.778   1.684   9.325 -0.1369  0.6274 -0.0395
    9CHL1  H16A  614   0.697   1.632   9.268  0.8813 -2.2202  0.9867
    9CHL1  H16B  615   0.802   1.781   9.278 -1.6396  0.5409 -1.0172
    9CHL1   C17  616   0.902   1.602   9.329  0.0834 -0.3827  0.6161
    9CHL1   H17  617   0.980   1.679   9.344 -0.7587  0.6814 -0.4097
    9CHL1   C13  618   0.881   1.522   9.465 -0.2609  0.0786 -0.4824
    9CHL1   C18  619   0.788   1.409   9.445 -0.0595  1.0665  0.4062
    9CHL1  H18A  620   0.844   1.332   9.388 -0.7138  1.9785 -1.4759
    9CHL1  H18B  621   0.766   1.362   9.544  0.6035 -1.4680 -0.5946
    9CHL1  H18C  622   0.698   1.419   9.381  0.7721 -2.8656 -1.5576
    9CHL1   C12  623   1.010   1.468   9.521 -0.3657 -0.0976  0.0163
    9CHL1  H12A  624   1.051   1.383   9.463 -2.2532 -2.0122  1.4024
    9CHL1  H12B  625   1.083   1.549   9.504  0.1720 -0.6506 -0.3233
    9CHL1   C11  626   1.000   1.422   9.673  0.1310 -0.4462 -0.5354
    9CHL1  H11A  627   0.957   1.320   9.675 -1.2827  0.1045  5.1860
    9CHL1  H11B  628   1.099   1.418   9.722  0.0079  3.2005  0.1633
    9CHL1    C9  629   0.915   1.527   9.765 -0.4648  0.3096  0.0604
    9CHL1    H9  630   0.973   1.622   9.762  0.7367 -0.4274 -0.5966
    9CHL1   C10  631   0.889   1.485   9.910  0.5009 -0.3329 -0.4080
    9CHL1   C19  632   0.815   1.348   9.904 -0.3796  0.2793  0.9014
    9CHL1  H19A  633   0.890   1.268   9.886 -1.0949 -0.4129  0.9706
    9CHL1  H19B  634   0.773   1.312  10.000  0.0695 -2.8511 -0.0099
    9CHL1  H19C  635   0.733   1.350   9.829  0.3609 -1.0783  0.0395
    9CHL1    C1  636   1.019   1.459   9.987 -0.5541 -0.1879 -0.1130
    9CHL1   H1A  637   1.075   1.375   9.941 -2.3292 -0.2760 -2.2135
    9CHL1   H1B  638   1.075   1.554   9.970 -0.6637  0.1737  1.5021
    9CHL1    C2  639   0.991   1.426  10.133 -0.2912 -0.1852  0.2294
    9CHL1   H2A  640   1.088   1.389  10.173  0.3441 -0.1821 -1.2624
    9CHL1   H2B  641   0.923   1.339  10.141 -0.3504 -0.0591  1.1441
    9CHL1   C20  642   0.928   1.520   9.197 -0.4101 -0.5645 -0.5637
    9CHL1   H20  643   0.879   1.421   9.208 -1.3946  0.0458  0.7183
    9CHL1   C21  644   1.085   1.497   9.181  0.5169 -0.2226 -0.3158
    9CHL1  H21A  645   1.115   1.458   9.082 -0.0083  0.1139 -0.6069
    9CHL1  H21B  646   1.127   1.440   9.267 -2.9535  0.0995  1.6722
    9CHL1  H21C  647   1.140   1.592   9.198  1.6113 -1.1059  1.2716
    9CHL1   C22  648   0.870   1.588   9.072  0.3262  0.0308 -0.1640
    9CHL1  H22A  649   0.759   1.584   9.069  0.1584  2.3215  1.6161
    9CHL1  H22B  650   0.899   1.695   9.078  1.7744 -0.3949  0.4977
    9CHL1   C23  651   0.904   1.537   8.929  0.0425  0.1317  0.5252
    9CHL1  H23A  652   1.012   1.547   8.905 -0.3148  2.2133 -0.2881
    9CHL1  H23B  653   0.872   1.430   8.930 -1.6304  0.6226  0.2817
    9CHL1   C24  654   0.829   1.602   8.815 -0.3189 -0.3992 -0.1122
    9CHL1  H24A  655   0.723   1.606   8.845  0.3556  1.2878  2.1761
    9CHL1  H24B  656   0.867   1.707   8.809  0.4260 -0.7454 -1.8181
    9CHL1   C25  657   0.852   1.530   8.675 -0.0090 -0.3691 -0.0038
    9CHL1   H25  658   0.865   1.427   8.713  1.2849  0.0085  0.6316
    9CHL1   C26  659   0.727   1.539   8.581  0.1203 -0.5127  0.6500
    9CHL1  H26A  660   0.645   1.503   8.647 -2.6413  1.0884 -1.8257
    9CHL1  H26B  661   0.709   1.643   8.545  3.0032  0.3803  1.6408
    9CHL1  H26C  662   0.738   1.475   8.491 -1.2000  3.5183 -2.5400
    9CHL1   C27  663   0.983   1.571   8.615 -0.1725 -0.1314  0.4673
    9CHL1  H27A  664   0.998   1.680   8.598  1.1634 -0.1676  1.3125
    9CHL1  H27B  665   1.068   1.528   8.673  0.7581  0.0937 -0.7102
    9CHL1  H27C  666   0.985   1.522   8.515  0.2005  0.8292 -0.0034
   10CHL1    C3  667   6.754   5.443  10.121  0.3978 -0.5206  0.1575
   10CHL1    H3  668   6.676   5.371  10.087  1.3121 -1.1285 -0.6720
   10CHL1    O3  669   6.782   5.439  10.262  0.0937  0.3826 -0.7070
   10CHL1   H3'  670   6.795   5.530  10.290  1.3278 -0.1320  0.4469
   10CHL1    C4  671   6.878   5.400  10.044  0.0725  0.8576 -0.5662
   10CHL1   H4A  672   6.964   5.464  10.075  0.4056 -1.0722  2.7073
   10CHL1   H4B  673   6.913   5.304  10.088  0.2438  0.6823 -1.0813
   10CHL1    C5  674   6.854   5.407   9.899  0.8163 -0.0060  0.0684
   10CHL1    C6  675   6.878   5.299   9.824 -0.2440 -0.2169 -0.2659
   10CHL1    H6  676   6.914   5.206   9.871  3.7894  1.4659  0.1967
   10CHL1    C7  677   6.864   5.294   9.675  0.2998  0.7014  0.0206
   10CHL1   H7A  678   6.955   5.247   9.631  2.5337  1.8074  3.2585
   10CHL1   H7B  679   6.790   5.216   9.647  1.8554 -0.9051  0.2360
   10CHL1    C8  680   6.844   5.437   9.621  0.6545  0.9481 -0.1624
   10CHL1    H8  681   6.950   5.471   9.618  0.7301  0.6195 -2.4839
   10CHL1   C14  682   6.792   5.431   9.476 -0.5945 -0.0703 -0.0201
   10CHL1   H14  683   6.694   5.380   9.487  0.9615 -3.5005 -1.3606
   10CHL1   C15  684   6.864   5.342   9.377 -0.3421  0.1203  0.1237
   10CHL1  H15A  685   6.968   5.380   9.385 -0.9580  1.2618  3.4749
   10CHL1  H15B  686   6.871   5.233   9.396 -0.6096  0.2536  1.0080
   10CHL1   C16  687   6.814   5.388   9.241 -0.1484 -0.0782 -0.5045
   10CHL1  H16A  688   6.906   5.414   9.186  0.3803 -1.7317 -0.4307
   10CHL1  H16B  689   6.764   5.300   9.195 -0.5578 -0.7012  1.0931
   10CHL1   C17  690   6.713   5.503   9.267 -0.3611 -0.0463  0.1490
   10CHL1   H17  691   6.615   5.451   9.266  0.3510 -1.4238 -2.8846
   10CHL1   C13  692   6.760   5.562   9.405 -0.0018  0.2741  0.6027
   10CHL1   C18  693   6.902   5.628   9.387  0.1778 -0.3219 -0.0773
   10CHL1  H18A  694   6.960   5.583   9.304 -1.8715 -0.5895 -1.3790
   10CHL1  H18B  695   6.878   5.731   9.353  0.0240 -1.1041 -2.3926
   10CHL1  H18C  696   6.963   5.623   9.480  1.5601  1.3650 -0.8391
   10CHL1   C12  697   6.668   5.640   9.492  0.5105  0.3091  0.4952
   10CHL1  H12A  698   6.640   5.739   9.449  0.3975 -0.8846 -2.2743
   10CHL1  H12B  699   6.569   5.590   9.507  1.5084 -1.9621 -0.2978
   10CHL1   C11  700   6.740   5.666   9.626  0.1609 -0.5843  0.1738
   10CHL1  H11A  701   6.834   5.725   9.621  0.0908 -0.5911 -1.4876
   10CHL1  H11B  702   6.672   5.737   9.679 -2.1430 -2.2409 -0.4732
   10CHL1    C9  703   6.759   5.533   9.702 -0.6270  0.2436 -0.2018
   10CHL1    H9  704   6.655   5.494   9.704 -0.1850 -0.9121  2.3129
   10CHL1   C10  705   6.810   5.551   9.851 -0.6884  0.1938  0.1972
   10CHL1   C19  706   6.927   5.649   9.858  0.9192  0.3840  0.6537
   10CHL1  H19A  707   6.967   5.642   9.961 -0.3112 -3.1826  0.9409
   10CHL1  H19B  708   7.000   5.604   9.787 -0.8668 -1.7687  0.1336
   10CHL1  H19C  709   6.900   5.752   9.828  0.6234 -0.1214 -0.8728
   10CHL1    C1  710   6.695   5.611   9.932  0.5115  0.2346  0.2673
   10CHL1   H1A  711   6.683   5.720   9.912  1.5022  0.2796 -0.1313
   10CHL1   H1B  712   6.599   5.564   9.902  0.8644 -0.1423 -0.2956
   10CHL1    C2  713   6.703   5.586  10.088 -0.2927  0.3415 -0.0966
   10CHL1   H2A  714   6.598   5.591  10.124 -1.5535 -2.5549 -3.0516
   10CHL1   H2B  715   6.763   5.665  10.137  1.5251 -0.1360 -1.4622
   10CHL1   C20  716   6.709   5.604   9.152  0.2908  0.3746  0.6063
   10CHL1   H20  717   6.814   5.640   9.149 -0.1995  1.7989  0.1956
   10CHL1   C21  718   6.608   5.717   9.176 -0.0322  0.4649  0.1835
   10CHL1  H21A  719   6.576   5.761   9.079  4.0196  3.1737 -0.0679
   10CHL1  H21B  720   6.634   5.804   9.240 -1.1510  0.2582  0.9312
   10CHL1  H21C  721   6.513   5.672   9.211 -0.4256  1.4969  0.4686
   10CHL1   C22  722   6.681   5.542   9.011  0.2747 -0.0089 -0.3096
   10CHL1  H22A  723   6.762   5.468   8.998 -0.5802 -1.3577  1.7775
   10CHL1  H22B  724   6.581   5.493   9.013  0.2993 -0.1859 -2.5072
   10CHL1   C23  725   6.687   5.631   8.883 -0.0889  0.2421 -0.2100
   10CHL1  H23A  726   6.692   5.560   8.799  1.1481 -1.4344  1.2523
   10CHL1  H23B  727   6.596   5.695   8.874 -0.6452 -0.7347 -1.6635
   10CHL1   C24  728   6.812   5.718   8.879 -0.5261  0.0837 -0.2392
   10CHL1  H24A  729   6.828   5.760   8.980 -0.2738 -0.7167  0.0551
   10CHL1  H24B  730   6.904   5.660   8.854  0.0507  0.1574  1.6964
   10CHL1   C25  731   6.804   5.823   8.767  0.6549  0.1546 -0.5829
   10CHL1   H25  732   6.715   5.886   8.788 -0.3068 -2.1865  2.8382
   10CHL1   C26  733   6.929   5.903   8.759 -0.3334 -0.2920 -0.3069
   10CHL1  H26A  734   7.006   5.842   8.707 -0.6613 -1.2538  0.3126
   10CHL1  H26B  735   6.928   5.998   8.701  2.6165 -1.1222 -1.8191
   10CHL1  H26C  736   6.965   5.920   8.863 -1.9934 -1.4739  0.4831
   10CHL1   C27  737   6.792   5.750   8.631  0.2194  0.0425 -0.4979
   10CHL1  H27A  738   6.790   5.824   8.548 -2.3719 -0.9576 -1.3643
   10CHL1  H27B  739   6.880   5.684   8.616  2.7793  3.2658 -0.1089
   10CHL1  H27C  740   6.698   5.691   8.622  0.4492 -0.3325 -0.4320
   11CHL1    C3  741   2.505   1.746   9.917 -0.0380 -0.4479 -1.0200
   11CHL1    H3  742   2.395   1.731   9.906  0.1776 -3.4509  0.3774
   11CHL1    O3  743   2.536   1.751  10.061 -0.1339  0.1945  0.5497
   11CHL1   H3'  744   2.618   1.701  10.066  0.0127  0.2823 -0.6912
   11CHL1    C4  745   2.580   1.623   9.875 -0.2509 -1.1332 -0.5271
   11CHL1   H4A  746   2.689   1.629   9.891 -0.0972  2.7302 -2.5625
   11CHL1   H4B  747   2.543   1.530   9.925  0.3532 -1.1465 -0.1088
   11CHL1    C5  748   2.561   1.597   9.728  0.0815  0.7060  0.5385
   11CHL1    C6  749   2.501   1.481   9.680 -0.2271  0.3130  0.1405
   11CHL1    H6  750   2.475   1.403   9.753 -0.5667 -0.6418 -0.9803
   11CHL1    C7  751   2.485   1.452   9.536 -0.4527 -0.2589 -0.6702
   11CHL1   H7A  752   2.525   1.352   9.508  0.3330  0.5277 -2.4378
   11CHL1   H7B  753   2.377   1.438   9.515 -0.9515  0.1086  1.5038
   11CHL1    C8  754   2.557   1.553   9.443 -0.1099  0.7397  0.1865
   11CHL1    H8  755   2.664   1.522   9.444 -0.2661  0.2051  0.4999
   11CHL1   C14  756   2.494   1.553   9.308  0.0308 -0.6871  0.2191
   11CHL1   H14  757   2.387   1.584   9.312  0.6881  1.5156  1.1839
   11CHL1   C15  758   2.505   1.412   9.247  0.2516 -0.7623 -0.0197
   11CHL1  H15A  759   2.597   1.358   9.275  0.7957  1.0550  1.8008
   11CHL1  H15B  760   2.417   1.352   9.279 -1.2416  1.4819  0.2490
   11CHL1   C16  761   2.508   1.440   9.093  0.2153 -0.4668 -0.5943
   11CHL1  H16A  762   2.599   1.397   9.047  1.6542  3.1344 -1.2047
   11CHL1  H16B  763   2.414   1.396   9.052  0.2069 -0.0253 -1.0466
   11CHL1   C17  764   2.504   1.596   9.073 -0.4214  0.1490 -0.0438
   11CHL1   H17  765   2.395   1.618   9.084 -0.1023  1.1769  1.1808
   11CHL1   C13  766   2.567   1.646   9.206 -0.5502 -0.4775  0.4928
   11CHL1   C18  767   2.720   1.630   9.204 -0.7708  0.9488 -0.4071
   11CHL1  H18A  768   2.762   1.663   9.301  2.4388 -0.9634 -1.0553
   11CHL1  H18B  769   2.754   1.525   9.189 -1.2241  0.7699 -0.2069
   11CHL1  H18C  770   2.775   1.688   9.127 -0.3843  1.2207  0.0766
   11CHL1   C12  771   2.528   1.790   9.251  0.2205  0.7521 -0.4012
   11CHL1  H12A  772   2.567   1.863   9.177  1.0910  0.0413 -0.6574
   11CHL1  H12B  773   2.419   1.808   9.255  0.5656  2.6442  1.4789
   11CHL1   C11  774   2.589   1.815   9.391  0.8443 -0.1864  0.0487
   11CHL1  H11A  775   2.699   1.830   9.395  0.6988  1.2339 -0.6895
   11CHL1  H11B  776   2.559   1.919   9.417  0.6775 -0.4236  0.8144
   11CHL1    C9  777   2.542   1.702   9.495 -0.7293  0.4422  0.3756
   11CHL1    H9  778   2.432   1.711   9.501 -0.7967  1.1266 -1.6749
   11CHL1   C10  779   2.595   1.714   9.635  0.1497 -0.7886 -0.2785
   11CHL1   C19  780   2.751   1.732   9.625  0.3191 -0.4033 -0.0828
   11CHL1  H19A  781   2.788   1.745   9.729 -0.5578  2.3811 -0.0777
   11CHL1  H19B  782   2.801   1.651   9.569  2.2210  0.6224  0.1043
   11CHL1  H19C  783   2.775   1.830   9.579  1.5733 -1.3352 -1.4371
   11CHL1    C1  784   2.542   1.848   9.698 -0.2279  0.1019 -0.2552
   11CHL1   H1A  785   2.582   1.938   9.645 -0.5913 -0.8751 -2.2473
   11CHL1   H1B  786   2.434   1.846   9.671 -0.1384  2.9039 -1.0004
   11CHL1    C2  787   2.565   1.865   9.845 -0.2357 -0.3138 -0.8214
   11CHL1   H2A  788   2.533   1.959   9.896 -3.0777 -0.6687 -1.8775
   11CHL1   H2B  789   2.676   1.855   9.855 -0.3259 -0.4701  0.0768
   11CHL1   C20  790   2.556   1.654   8.945  0.4688  0.8507 -0.7013
   11CHL1   H20  791   2.663   1.683   8.954  0.8041 -0.6635  0.2886
   11CHL1   C21  792   2.464   1.769   8.917  0.0074  0.3922 -0.0545
   11CHL1  H21A  793   2.359   1.733   8.916  0.4259 -0.8711 -0.9184
   11CHL1  H21B  794   2.486   1.817   8.819  1.1309 -0.1851 -0.0953
   11CHL1  H21C  795   2.465   1.855   8.988  2.2127 -0.4733  1.0354
   11CHL1   C22  796   2.535   1.550   8.834 -0.1849 -0.0263 -0.1004
   11CHL1  H22A  797   2.581   1.450   8.842  0.0695  0.0890 -0.1231
   11CHL1  H22B  798   2.428   1.520   8.828  0.2682 -1.4857 -1.1337
   11CHL1   C23  799   2.563   1.600   8.689  0.2245  0.7378 -0.5416
   11CHL1  H23A  800   2.469   1.652   8.662 -0.6088 -0.1400  0.6847
   11CHL1  H23B  801   2.637   1.683   8.685  2.0810 -0.7898  0.7934
   11CHL1   C24  802   2.598   1.484   8.588  0.2278 -0.4633 -0.4247
   11CHL1  H24A  803   2.696   1.445   8.624  0.1052 -0.1699  0.2334
   11CHL1  H24B  804   2.527   1.404   8.617 -0.2441  1.0637  2.8522
   11CHL1   C25  805   2.593   1.532   8.442 -0.7832  0.2112 -0.7182
   11CHL1   H25  806   2.496   1.582   8.425 -1.2629 -0.1248  0.9127
   11CHL1   C26  807   2.698   1.646   8.419  0.7497  0.5360 -0.1851
   11CHL1  H26A  808   2.791   1.605   8.463 -1.0906 -0.4979  2.9497
   11CHL1  H26B  809   2.699   1.667   8.310  0.8521  0.7010 -0.1514
   11CHL1  H26C  810   2.682   1.739   8.477 -1.4627 -1.0560  1.8484
   11CHL1   C27  811   2.618   1.420   8.342  0.7287  0.0552  0.2206
   11CHL1  H27A  812   2.661   1.466   8.251  0.9699  0.0915  0.3524
   11CHL1  H27B  813   2.699   1.361   8.389  0.7046  1.1925  1.7311
   11CHL1  H27C  814   2.539   1.346   8.317  1.2782 -1.1605  1.9347
   12CHL1    C3  815   5.383   4.329  10.337  0.5559 -0.4276 -0.5991
   12CHL1    H3  816   5.433   4.410  10.280 -2.6017  1.6023 -0.5810
   12CHL1    O3  817   5.391   4.343  10.479 -0.5599  0.7754  0.1752
   12CHL1   H3'  818   5.350   4.263  10.512  0.8815 -0.4310 -0.9016
   12CHL1    C4  819   5.232   4.323  10.299  0.7549  0.4133  0.6402
   12CHL1   H4A  820   5.181   4.248  10.363 -4.2166  3.4042  0.4402
   12CHL1   H4B  821   5.204   4.430  10.316 -1.3713  0.1590 -0.9583
   12CHL1    C5  822   5.202   4.291  10.155  0.3642  0.2804 -0.0601
   12CHL1    C6  823   5.126   4.377  10.084 -0.0875 -0.3066 -0.4601
   12CHL1    H6  824   5.084   4.468  10.129  3.0104  0.0234  1.9352
   12CHL1    C7  825   5.093   4.359   9.937 -0.8281 -0.9237  0.2083
   12CHL1   H7A  826   4.988   4.378   9.906 -0.7625  0.4889  0.8006
   12CHL1   H7B  827   5.145   4.441   9.883 -0.9248 -1.4848 -0.7404
   12CHL1    C8  828   5.137   4.219   9.883  0.2509  0.5686 -0.3938
   12CHL1    H8  829   5.068   4.141   9.923  1.4141 -0.6796 -0.7981
   12CHL1   C14  830   5.142   4.215   9.728 -0.4589 -0.2131  0.2817
   12CHL1   H14  831   5.216   4.292   9.698  0.6993 -1.5118 -0.2687
   12CHL1   C15  832   5.006   4.233   9.657 -0.2015  0.3034  0.6631
   12CHL1  H15A  833   4.922   4.177   9.704  1.4160 -0.0347  3.2572
   12CHL1  H15B  834   4.974   4.340   9.659 -0.9036  0.1302 -0.9085
   12CHL1   C16  835   5.030   4.191   9.509  0.3739 -0.8322  0.0044
   12CHL1  H16A  836   4.948   4.126   9.473  0.9573 -1.9591  0.6877
   12CHL1  H16B  837   5.036   4.282   9.445 -3.0242  2.1225  3.6443
   12CHL1   C17  838   5.169   4.118   9.519  0.3710 -0.2097 -0.2702
   12CHL1   H17  839   5.246   4.196   9.500 -0.5992  0.6233 -0.7994
   12CHL1   C13  840   5.198   4.078   9.667 -0.2208 -0.1555  0.0270
   12CHL1   C18  841   5.118   3.958   9.710  0.6051  1.0839 -0.1099
   12CHL1  H18A  842   5.112   3.945   9.821 -0.3355 -0.7498 -0.3642
   12CHL1  H18B  843   5.012   3.953   9.676  1.2797  0.0501 -2.1337
   12CHL1  H18C  844   5.171   3.871   9.666 -0.7370 -0.3094  0.9986
   12CHL1   C12  845   5.343   4.067   9.714  0.0675 -0.5683  0.2358
   12CHL1  H12A  846   5.396   3.972   9.688 -1.4569 -1.7838  1.4640
   12CHL1  H12B  847   5.410   4.152   9.690  1.2229 -1.8401 -1.2113
   12CHL1   C11  848   5.349   4.065   9.870  0.5295 -0.9603  1.0605
   12CHL1  H11A  849   5.309   3.967   9.902 -1.1674 -0.6340  0.0059
   12CHL1  H11B  850   5.456   4.064   9.902  0.6002 -0.7054  0.8382
   12CHL1    C9  851   5.276   4.185   9.935 -0.0034 -0.2921  0.8017
   12CHL1    H9  852   5.346   4.269   9.916 -0.0112 -0.4806 -0.0700
   12CHL1   C10  853   5.278   4.175  10.088  0.5133 -0.4212  0.3639
   12CHL1   C19  854   5.205   4.051  10.140  0.2049  0.3967 -0.1358
   12CHL1  H19A  855   5.098   4.042  10.111  0.2127 -1.8786  0.4217
   12CHL1  H19B  856   5.259   3.960  10.105  0.7722 -0.1680  2.0993
   12CHL1  H19C  857   5.210   4.048  10.251  0.5471 -0.4693 -0.1656
   12CHL1    C1  858   5.424   4.164  10.145 -0.2161  0.3523 -0.4637
   12CHL1   H1A  859   5.447   4.057  10.125 -0.6800 -0.3686  2.6525
   12CHL1   H1B  860   5.481   4.226  10.072  0.3802 -0.8700 -1.0483
   12CHL1    C2  861   5.447   4.193  10.291  0.1783  0.4134 -0.4829
   12CHL1   H2A  862   5.556   4.202  10.313  0.1188 -1.6650  0.7934
   12CHL1   H2B  863   5.414   4.109  10.355  0.1067 -0.4267 -1.6074
   12CHL1   C20  864   5.194   4.007   9.407  0.1531  0.1927 -0.2800
   12CHL1   H20  865   5.143   3.916   9.446  0.6060 -0.2706 -0.7644
   12CHL1   C21  866   5.348   3.962   9.396  0.0786  0.2564  0.1500
   12CHL1  H21A  867   5.417   4.046   9.373 -2.1812  2.3305  0.6666
   12CHL1  H21B  868   5.341   3.890   9.311 -2.2326 -0.2482  0.7285
   12CHL1  H21C  869   5.372   3.910   9.490 -0.2247 -0.5305 -0.2017
   12CHL1   C22  870   5.143   4.047   9.267  0.1609  0.1311  0.3409
   12CHL1  H22A  871   5.161   3.962   9.198 -1.2062  0.0280  0.1024
   12CHL1  H22B  872   5.035   4.072   9.270 -0.1303 -1.1057  0.4621
   12CHL1   C23  873   5.216   4.175   9.214 -0.1716  0.3272  0.1265
   12CHL1  H23A  874   5.203   4.257   9.287  0.1698 -1.7403  2.5676
   12CHL1  H23B  875   5.325   4.156   9.199 -0.6962 -2.1989 -0.6742
   12CHL1   C24  876   5.159   4.210   9.073 -0.0891  0.6338  0.6422
   12CHL1  H24A  877   5.231   4.262   9.006 -1.5058  0.1564 -1.3088
   12CHL1  H24B  878   5.144   4.114   9.019  0.5423  1.0954 -0.3586
   12CHL1   C25  879   5.029   4.272   9.063  1.1832 -0.7097  0.3023
   12CHL1   H25  880   4.962   4.230   9.141  0.2165  1.5151  0.7407
   12CHL1   C26  881   5.048   4.419   9.108  0.1194 -0.0039  0.1245
   12CHL1  H26A  882   5.096   4.479   9.028 -1.6177 -1.2876 -1.9523
   12CHL1  H26B  883   4.949   4.464   9.131  1.2348  0.7326  3.7824
   12CHL1  H26C  884   5.111   4.428   9.199  0.0864 -0.2893  0.1752
   12CHL1   C27  885   4.967   4.279   8.921 -0.0164  0.6636 -0.6108
   12CHL1  H27A  886   4.863   4.317   8.926  0.0241  0.7270 -0.2003
   12CHL1  H27B  887   5.030   4.348   8.861  0.5263  0.7081 -0.0035
   12CHL1  H27C  888   4.977   4.178   8.878  1.4497  0.0435  1.1122
   13CHL1    C3  889   4.966   6.210   9.935 -0.0710 -0.7817 -0.3331
   13CHL1    H3  890   4.985   6.101   9.950  1.7030 -0.0452  3.0909
   13CHL1    O3  891   4.937   6.245  10.065  0.2904  0.3558 -0.2275
   13CHL1   H3'  892   4.847   6.277  10.068  0.4643  0.9588 -1.2428
   13CHL1    C4  893   5.101   6.277   9.889  0.3322  0.2310  0.0731
   13CHL1   H4A  894   5.080   6.386   9.876 -1.2693 -0.4239 -3.2838
   13CHL1   H4B  895   5.176   6.274   9.972  0.1232  1.4091  0.3194
   13CHL1    C5  896   5.155   6.230   9.759 -0.0178 -0.0188  0.3695
   13CHL1    C6  897   5.274   6.181   9.740 -0.1263  0.4302  0.3093
   13CHL1    H6  898   5.343   6.165   9.824  0.6354 -1.9758 -0.7451
   13CHL1    C7  899   5.326   6.146   9.602  0.3695  0.1369 -0.2068
   13CHL1   H7A  900   5.430   6.182   9.593  0.3215  0.4804  0.6542
   13CHL1   H7B  901   5.325   6.034   9.600  0.3758  0.1448 -1.1622
   13CHL1    C8  902   5.230   6.195   9.488 -0.0149 -0.0077  0.7978
   13CHL1    H8  903   5.247   6.303   9.473 -0.8453 -0.2199 -1.9997
   13CHL1   C14  904   5.273   6.117   9.359 -0.3690  0.4861  0.0110
   13CHL1   H14  905   5.249   6.012   9.385  1.7027  0.0644  0.2538
   13CHL1   C15  906   5.417   6.121   9.321 -0.1930  0.7058  0.6168
   13CHL1  H15A  907   5.478   6.209   9.351  0.8483  0.4287 -0.6224
   13CHL1  H15B  908   5.468   6.038   9.373  3.1180  0.5597 -2.6489
   13CHL1   C16  909   5.420   6.102   9.168  0.2145  0.0888 -0.2283
   13CHL1  H16A  910   5.462   6.197   9.129  2.8536 -1.0071 -0.1755
   13CHL1  H16B  911   5.476   6.012   9.133 -1.2691 -1.2431  0.7277
   13CHL1   C17  912   5.271   6.086   9.127 -0.4984  0.6696 -0.2110
   13CHL1   H17  913   5.248   5.979   9.143  0.5197  0.8771  2.9551
   13CHL1   C13  914   5.189   6.162   9.237  0.2680 -0.3361 -0.1069
   13CHL1   C18  915   5.203   6.316   9.216  0.5107  0.1792  0.1643
   13CHL1  H18A  916   5.147   6.362   9.132 -0.1137  0.7520  0.8940
   13CHL1  H18B  917   5.157   6.368   9.302 -0.4194 -0.0710 -0.1794
   13CHL1  H18C  918   5.307   6.349   9.193  0.1296  0.4777 -1.1728
   13CHL1   C12  919   5.047   6.126   9.266  0.5096 -0.4803 -0.0866
   13CHL1  H12A  920   4.989   6.143   9.174  1.3678  1.7709 -0.2490
   13CHL1  H12B  921   5.034   6.015   9.270 -2.6529 -0.1872 -0.7870
   13CHL1   C11  922   4.995   6.190   9.397 -0.0867 -0.6117  0.5570
   13CHL1  H11A  923   4.972   6.296   9.375  0.3440 -0.0622  2.5937
   13CHL1  H11B  924   4.893   6.153   9.419 -0.8423  1.5479  0.8350
   13CHL1    C9  925   5.088   6.167   9.519 -0.5695 -0.3112  0.3797
   13CHL1    H9  926   5.081   6.059   9.545 -0.7804 -0.7502 -1.4634
   13CHL1   C10  927   5.040   6.243   9.648  0.7725  0.6275  0.6577
   13CHL1   C19  928   5.031   6.393   9.615 -0.0230  0.1126  0.1996
   13CHL1  H19A  929   5.135   6.426   9.594 -0.3562  0.1715 -1.4556
   13CHL1  H19B  930   4.963   6.423   9.532  0.7704 -0.0221 -0.5050
   13CHL1  H19C  931   5.004   6.449   9.707 -0.5640  1.4946 -0.7810
   13CHL1    C1  932   4.905   6.196   9.694  0.0388 -0.0741  0.8461
   13CHL1   H1A  933   4.822   6.227   9.627  1.8455  0.1489 -1.3761
   13CHL1   H1B  934   4.907   6.085   9.698 -1.1296 -0.1371 -0.0802
   13CHL1    C2  935   4.858   6.246   9.836  0.0827  0.0107  0.9492
   13CHL1   H2A  936   4.757   6.201   9.851 -0.5127  1.1015  0.2661
   13CHL1   H2B  937   4.843   6.356   9.842 -1.7685 -0.1530 -0.2595
   13CHL1   C20  938   5.247   6.130   8.977  0.0569 -0.1668 -0.3456
   13CHL1   H20  939   5.274   6.237   8.970 -2.6260  0.4468 -1.6079
   13CHL1   C21  940   5.099   6.097   8.932 -0.1521 -0.0865  0.9590
   13CHL1  H21A  941   5.085   6.110   8.823 -2.0615 -1.7481  0.9752
   13CHL1  H21B  942   5.028   6.176   8.967  1.3568  1.1284  1.3389
   13CHL1  H21C  943   5.064   6.001   8.976  2.3914 -1.4158  0.1805
   13CHL1   C22  944   5.347   6.059   8.881 -0.1502  0.7332 -0.3416
   13CHL1  H22A  945   5.453   6.076   8.909 -0.4359 -2.5817  3.0912
   13CHL1  H22B  946   5.330   5.950   8.889  2.8966  0.3040  0.7776
   13CHL1   C23  947   5.325   6.108   8.738  0.0247 -0.3183  0.1650
   13CHL1  H23A  948   5.229   6.073   8.694 -0.2099  0.1880  0.2640
   13CHL1  H23B  949   5.319   6.219   8.730  0.5449 -0.2034  1.2296
   13CHL1   C24  950   5.424   6.044   8.633  0.3666  0.2037 -0.1335
   13CHL1  H24A  951   5.523   6.094   8.642  1.0337 -1.0044 -0.6243
   13CHL1  H24B  952   5.422   5.937   8.663  1.2091 -0.2266 -1.5459
   13CHL1   C25  953   5.374   6.045   8.484 -0.0023  0.7730 -0.0422
   13CHL1   H25  954   5.268   6.010   8.487 -0.5680  2.5698  1.8858
   13CHL1   C26  955   5.382   6.186   8.425 -0.7917 -0.3517 -0.0247
   13CHL1  H26A  956   5.330   6.191   8.327 -1.2441 -0.4275  0.2099
   13CHL1  H26B  957   5.339   6.254   8.502  1.5913  1.2648 -0.0450
   13CHL1  H26C  958   5.489   6.216   8.428 -0.8867  0.4572 -3.2767
   13CHL1   C27  959   5.456   5.943   8.397 -0.4511  0.5395  0.6391
   13CHL1  H27A  960   5.455   5.838   8.435  2.4210  0.2467  0.0010
   13CHL1  H27B  961   5.410   5.938   8.296  0.1974 -0.9362  0.4048
   13CHL1  H27C  962   5.562   5.972   8.383  0.5736 -2.9092  0.7486
   14CHL1    C3  963   3.882   2.941  10.469 -0.7287 -0.2834  0.0758
   14CHL1    H3  964   3.967   3.011  10.476  0.5161 -1.7718  0.1236
   14CHL1    O3  965   3.837   2.885  10.593  0.3569  0.2314  0.5025
   14CHL1   H3'  966   3.784   2.808  10.570 -0.3997  1.3686 -1.6798
   14CHL1    C4  967   3.759   3.011  10.400  0.4576 -0.0229 -0.3023
   14CHL1   H4A  968   3.669   2.947  10.409  1.4561 -1.7949 -2.2602
   14CHL1   H4B  969   3.742   3.096  10.469 -0.9766 -0.4763 -0.0775
   14CHL1    C5  970   3.786   3.057  10.264 -0.0747  0.3760 -0.2614
   14CHL1    C6  971   3.772   3.191  10.228 -0.0490 -0.1635  0.1401
   14CHL1    H6  972   3.743   3.263  10.306  0.6531  0.8027 -0.4815
   14CHL1    C7  973   3.782   3.231  10.083 -0.2671  0.4833 -0.0229
   14CHL1   H7A  974   3.696   3.297  10.062  0.1670  0.9973 -0.1921
   14CHL1   H7B  975   3.878   3.285  10.066 -0.1669 -0.0277 -1.1183
   14CHL1    C8  976   3.778   3.108   9.987 -0.1785 -0.6770  0.2424
   14CHL1    H8  977   3.678   3.060   9.982  0.8960 -2.8592 -0.6568
   14CHL1   C14  978   3.806   3.166   9.849 -0.3588 -0.1863  0.6061
   14CHL1   H14  979   3.905   3.216   9.858 -0.0076 -0.2678 -2.4248
   14CHL1   C15  980   3.715   3.277   9.789 -0.2264  0.0182  0.5717
   14CHL1  H15A  981   3.613   3.235   9.791 -0.7979  1.1694 -1.9531
   14CHL1  H15B  982   3.707   3.378   9.836 -2.0783  0.3112 -0.3251
   14CHL1   C16  983   3.765   3.282   9.636  0.0086 -0.0280  0.5279
   14CHL1  H16A  984   3.673   3.294   9.574  0.9590  1.5189 -0.5993
   14CHL1  H16B  985   3.839   3.357   9.602 -1.0582  0.5279 -0.6322
   14CHL1   C17  986   3.853   3.150   9.613 -0.7409  0.3577 -0.2254
   14CHL1   H17  987   3.959   3.175   9.634 -0.0190 -1.3676 -1.6912
   14CHL1   C13  988   3.819   3.055   9.739 -0.6654  0.1253  0.5261
   14CHL1   C18  989   3.685   2.979   9.707  0.1687 -0.5062 -0.3320
   14CHL1  H18A  990   3.703   2.899   9.633 -1.1102  0.6425 -1.9021
   14CHL1  H18B  991   3.642   2.928   9.796 -3.0332 -0.0794 -1.5675
   14CHL1  H18C  992   3.611   3.048   9.661  0.1614  0.2743  0.8104
   14CHL1   C12  993   3.925   2.958   9.779 -0.4546  0.1468  0.8153
   14CHL1  H12A  994   3.934   2.879   9.701  1.1336  1.5081 -0.4243
   14CHL1  H12B  995   4.021   3.012   9.798  1.3244 -3.1736  1.6732
   14CHL1   C11  996   3.881   2.890   9.912 -0.4155 -0.0663 -0.1824
   14CHL1  H11A  997   3.796   2.820   9.899 -0.4832  0.3640 -2.2045
   14CHL1  H11B  998   3.966   2.822   9.936  0.5604  1.6285  1.1971
   14CHL1    C9  999   3.875   2.996  10.031  0.9321  0.0126 -0.1422
   14CHL1    H9 1000   3.976   3.041  10.040 -0.1238  1.8960  3.0574
   14CHL1   C10 1001   3.828   2.947  10.168 -0.8850  0.5105 -0.3173
   14CHL1   C19 1002   3.715   2.847  10.156 -0.1467  0.1792  0.1560
   14CHL1  H19A 1003   3.640   2.878  10.080  1.0836  1.7871 -0.4226
   14CHL1  H19B 1004   3.749   2.749  10.116 -0.1604  1.5399 -3.3850
   14CHL1  H19C 1005   3.667   2.822  10.253 -1.8372 -4.1324 -1.6665
   14CHL1    C1 1006   3.951   2.864  10.228  0.2054  0.4396 -0.5287
   14CHL1   H1A 1007   3.969   2.773  10.167 -2.2929 -0.0432 -0.5905
   14CHL1   H1B 1008   4.045   2.923  10.232  0.8237 -0.6703  3.5181
   14CHL1    C2 1009   3.929   2.823  10.373 -0.5287  0.0262 -0.3167
   14CHL1   H2A 1010   4.029   2.784  10.401 -0.4800 -0.2205 -0.8382
   14CHL1   H2B 1011   3.866   2.733  10.382  0.3993 -0.4791  1.3262
   14CHL1   C20 1012   3.845   3.102   9.466  0.2790  0.2276  0.0393
   14CHL1   H20 1013   3.737   3.097   9.441 -0.4257  1.0782  2.7455
   14CHL1   C21 1014   3.914   2.969   9.452  0.7120  0.4201 -0.2356
   14CHL1  H21A 1015   3.870   2.880   9.502 -0.0111  1.6377  1.3263
   14CHL1  H21B 1016   4.011   2.979   9.504 -0.1912  1.2217  1.3455
   14CHL1  H21C 1017   3.943   2.952   9.346 -0.7024  1.0185 -0.7272
   14CHL1   C22 1018   3.914   3.203   9.365  0.0764 -0.1210 -0.6955
   14CHL1  H22A 1019   3.888   3.303   9.407  0.8748 -0.9683  1.9478
   14CHL1  H22B 1020   4.025   3.193   9.361  0.1350  0.3854 -0.4108
   14CHL1   C23 1021   3.859   3.199   9.224  0.1473  0.8770  0.5497
   14CHL1  H23A 1022   3.913   3.124   9.162 -2.1233 -1.5832  1.4556
   14CHL1  H23B 1023   3.753   3.171   9.240  0.9443  0.1599  5.2169
   14CHL1   C24 1024   3.859   3.344   9.165  0.3850  0.4858  0.0771
   14CHL1  H24A 1025   3.807   3.418   9.231  0.7540  1.8569 -1.1460
   14CHL1  H24B 1026   3.963   3.383   9.161  1.2589 -1.6908  0.9671
   14CHL1   C25 1027   3.790   3.358   9.024  0.2768 -0.0282 -0.6002
   14CHL1   H25 1028   3.812   3.271   8.959  3.2135  0.3456 -0.1813
   14CHL1   C26 1029   3.636   3.360   9.042  0.7331 -0.3773  0.4101
   14CHL1  H26A 1030   3.585   3.371   8.944  4.0595  1.0191 -1.2365
   14CHL1  H26B 1031   3.597   3.271   9.096  1.1480 -1.3515 -0.8860
   14CHL1  H26C 1032   3.601   3.437   9.114 -1.7888 -1.5201  0.4450
   14CHL1   C27 1033   3.836   3.487   8.947 -1.1613 -0.3349  0.2718
   14CHL1  H27A 1034   3.798   3.581   8.991 -1.7442 -0.9058  1.0054
   14CHL1  H27B 1035   3.946   3.484   8.930 -1.0730 -0.5984  0.8563
   14CHL1  H27C 1036   3.803   3.490   8.841  1.6947 -0.1745 -0.6657
   15CHL1    C3 1037   4.479   1.762  10.040  0.2818  0.3727  0.7811
   15CHL1    H3 1038   4.556   1.685  10.017  1.7299  1.6273  1.4257
   15CHL1    O3 1039   4.476   1.789  10.177 -0.0044  0.2877 -0.6408
   15CHL1   H3' 1040   4.392   1.835  10.187  0.2686  0.3643  1.4309
   15CHL1    C4 1041   4.532   1.886   9.968 -0.3173 -0.3985  0.1546
   15CHL1   H4A 1042   4.473   1.974  10.003 -0.3258 -0.6774  0.8385
   15CHL1   H4B 1043   4.635   1.904  10.006 -0.5494  0.0485  0.5771
   15CHL1    C5 1044   4.515   1.878   9.817  0.1121  0.8982 -0.4285
   15CHL1    C6 1045   4.618   1.917   9.741  0.2030  0.1940 -0.2140
   15CHL1    H6 1046   4.710   1.941   9.797  0.0678 -0.7625  0.4232
   15CHL1    C7 1047   4.621   1.933   9.591 -0.2707 -0.6346  0.2976
   15CHL1   H7A 1048   4.660   2.030   9.552  3.0378 -2.8357 -2.0721
   15CHL1   H7B 1049   4.685   1.851   9.554 -1.2645 -2.1792  1.9202
   15CHL1    C8 1050   4.484   1.903   9.528 -0.3212 -0.1024 -0.9533
   15CHL1    H8 1051   4.427   1.998   9.523  1.3488  0.9899  0.5090
   15CHL1   C14 1052   4.502   1.848   9.392 -0.1997  0.0590  0.8633
   15CHL1   H14 1053   4.555   1.753   9.415 -0.6306 -0.1612  0.9554
   15CHL1   C15 1054   4.597   1.910   9.293 -0.7559  0.1321  0.0439
   15CHL1  H15A 1055   4.595   2.021   9.291  0.3518  0.1425 -2.9246
   15CHL1  H15B 1056   4.698   1.870   9.317 -0.5354 -0.1591 -1.3371
   15CHL1   C16 1057   4.570   1.839   9.161 -0.5530 -0.4476 -0.6812
   15CHL1  H16A 1058   4.548   1.916   9.085 -0.6858 -2.4962 -2.7548
   15CHL1  H16B 1059   4.659   1.791   9.116 -1.9802 -1.9232 -1.9808
   15CHL1   C17 1060   4.445   1.752   9.184 -0.0416  0.4403 -0.0015
   15CHL1   H17 1061   4.485   1.653   9.215  1.0161  1.2876  1.4051
   15CHL1   C13 1062   4.372   1.814   9.312 -0.8908  0.1328 -0.3608
   15CHL1   C18 1063   4.314   1.955   9.286 -0.4619 -0.0306  1.0372
   15CHL1  H18A 1064   4.231   1.941   9.214  0.3728 -1.6809  0.3569
   15CHL1  H18B 1065   4.270   2.003   9.376  1.9085  0.1513  2.1280
   15CHL1  H18C 1066   4.378   2.034   9.241  0.3667 -0.5978  1.2174
   15CHL1   C12 1067   4.288   1.713   9.394 -0.4867  0.8950 -0.0029
   15CHL1  H12A 1068   4.188   1.703   9.347 -1.9093  1.2022  2.8630
   15CHL1  H12B 1069   4.342   1.616   9.394 -1.9114  0.0872  0.4991
   15CHL1   C11 1070   4.272   1.758   9.532  0.9954  0.1003 -0.6292
   15CHL1  H11A 1071   4.194   1.836   9.539 -0.0459 -1.0564  0.9581
   15CHL1  H11B 1072   4.220   1.679   9.590  0.3391  0.6338 -0.4837
   15CHL1    C9 1073   4.401   1.794   9.611 -0.0083 -0.0721  0.8236
   15CHL1    H9 1074   4.463   1.702   9.607 -1.0581 -0.8308  1.7337
   15CHL1   C10 1075   4.386   1.824   9.760  0.3749 -0.5223 -0.1824
   15CHL1   C19 1076   4.276   1.932   9.787  0.3355 -0.2162 -0.9179
   15CHL1  H19A 1077   4.179   1.895   9.748 -0.2818 -1.3599  1.6325
   15CHL1  H19B 1078   4.271   1.963   9.894 -2.0526 -1.8040 -0.5375
   15CHL1  H19C 1079   4.313   2.026   9.740  1.9699  0.6608  2.0161
   15CHL1    C1 1080   4.354   1.696   9.843  0.1173  0.0798  0.8786
   15CHL1   H1A 1081   4.264   1.640   9.811  1.0722 -0.8475 -0.2328
   15CHL1   H1B 1082   4.441   1.629   9.827  0.9578  0.7071  2.6149
   15CHL1    C2 1083   4.346   1.711   9.989  0.1209  0.1303  0.6376
   15CHL1   H2A 1084   4.314   1.615  10.035  1.9999 -0.9227 -0.2047
   15CHL1   H2B 1085   4.267   1.782  10.022  1.7375  2.6295 -0.7093
   15CHL1   C20 1086   4.359   1.733   9.063  0.3261 -0.3141 -0.1019
   15CHL1   H20 1087   4.302   1.827   9.053  0.4428 -0.2064  0.2692
   15CHL1   C21 1088   4.264   1.620   9.092  0.4053  0.2326 -0.8024
   15CHL1  H21A 1089   4.314   1.535   9.144  1.8772  2.7292  2.0011
   15CHL1  H21B 1090   4.222   1.585   8.995 -1.5831  0.5239 -0.0839
   15CHL1  H21C 1091   4.175   1.657   9.148  1.2610 -0.0816  0.8114
   15CHL1   C22 1092   4.435   1.717   8.927  0.3766  1.2693  0.0854
   15CHL1  H22A 1093   4.524   1.785   8.925  1.5979 -0.2915  0.3217
   15CHL1  H22B 1094   4.468   1.612   8.916 -2.6620  0.1957  0.9073
   15CHL1   C23 1095   4.362   1.757   8.802  0.8670  0.1969 -0.0965
   15CHL1  H23A 1096   4.286   1.683   8.769 -0.6392  0.2219  3.0712
   15CHL1  H23B 1097   4.305   1.849   8.824  1.0480 -0.1956  2.1664
   15CHL1   C24 1098   4.464   1.794   8.697  0.7059  0.7071 -0.1980
   15CHL1  H24A 1099   4.506   1.891   8.729  1.3624  0.1354  0.6655
   15CHL1  H24B 1100   4.545   1.719   8.686 -0.3482 -0.7511  1.7243
   15CHL1   C25 1101   4.404   1.825   8.554 -0.2237 -0.7180 -0.1080
   15CHL1   H25 1102   4.371   1.729   8.509  0.0434 -0.4482 -0.8895
   15CHL1   C26 1103   4.281   1.921   8.548 -0.2842  0.2112 -0.3609
   15CHL1  H26A 1104   4.189   1.861   8.563  0.6680 -1.2496 -0.3484
   15CHL1  H26B 1105   4.289   1.998   8.628  0.7549  0.6635 -0.8868
   15CHL1  H26C 1106   4.277   1.981   8.455  1.9988  1.2722  0.1810
   15CHL1   C27 1107   4.523   1.880   8.468  0.4459 -0.3657 -0.6475
   15CHL1  H27A 1108   4.623   1.832   8.476  0.9838  0.9956  1.1679
   15CHL1  H27B 1109   4.500   1.897   8.360  2.4542 -0.7657 -1.1481
   15CHL1  H27C 1110   4.540   1.980   8.512  0.8287 -0.2378 -1.0817
   16CHL1    C3 1111   4.968   2.318  10.238 -0.3569  0.0092  0.3902
   16CHL1    H3 1112   4.891   2.392  10.269 -0.1240 -0.2984  1.7531
   16CHL1    O3 1113   5.023   2.275  10.360  0.2731 -0.0728  0.5520
   16CHL1   H3' 1114   5.054   2.186  10.343 -0.9479 -0.7973  1.9540
   16CHL1    C4 1115   4.893   2.198  10.172 -0.3103 -0.0849  0.3504
   16CHL1   H4A 1116   4.946   2.103  10.154 -0.7489 -0.2493 -0.0730
   16CHL1   H4B 1117   4.813   2.168  10.243 -0.8946  1.7875  0.5177
   16CHL1    C5 1118   4.839   2.240  10.041 -0.0478 -0.0746  0.4325
   16CHL1    C6 1119   4.712   2.235  10.020  0.3456  0.2163  0.1428
   16CHL1    H6 1120   4.648   2.200  10.102  2.8863 -4.0192  0.5160
   16CHL1    C7 1121   4.647   2.263   9.892  0.0683 -0.8055 -0.0732
   16CHL1   H7A 1122   4.564   2.193   9.870 -1.5681  0.6770  1.1624
   16CHL1   H7B 1123   4.601   2.364   9.904 -0.8830 -1.0294 -1.7155
   16CHL1    C8 1124   4.742   2.275   9.770 -0.1571 -0.2553  0.2118
   16CHL1    H8 1125   4.761   2.170   9.740  1.6311  0.3869 -0.9668
   16CHL1   C14 1126   4.684   2.355   9.659  0.5447 -0.4924 -0.1197
   16CHL1   H14 1127   4.671   2.449   9.716  2.7711  0.4047 -1.0176
   16CHL1   C15 1128   4.540   2.325   9.607  0.0471  0.5598 -0.1783
   16CHL1  H15A 1129   4.521   2.218   9.583 -1.2277  0.6191  0.5425
   16CHL1  H15B 1130   4.465   2.363   9.679 -1.3063 -0.1417 -1.2052
   16CHL1   C16 1131   4.533   2.396   9.469  0.1760  0.2053 -0.9652
   16CHL1  H16A 1132   4.522   2.313   9.396  0.4851  0.6817 -1.5653
   16CHL1  H16B 1133   4.442   2.460   9.463 -0.1970 -0.3772 -1.5275
   16CHL1   C17 1134   4.674   2.461   9.444  0.3015 -0.4031  0.1916
   16CHL1   H17 1135   4.667   2.562   9.491  0.8808  0.0174 -0.6202
   16CHL1   C13 1136   4.767   2.376   9.526 -0.6066 -0.4217  0.5924
   16CHL1   C18 1137   4.804   2.245   9.457  0.4012  0.4224 -0.4620
   16CHL1  H18A 1138   4.721   2.199   9.398  0.9776 -2.2143  0.7006
   16CHL1  H18B 1139   4.893   2.266   9.394 -0.9660 -0.1586 -2.6678
   16CHL1  H18C 1140   4.825   2.162   9.528 -0.9220 -1.2429 -1.9487
   16CHL1   C12 1141   4.897   2.450   9.571  0.4754  0.1172 -0.1527
   16CHL1  H12A 1142   4.965   2.445   9.483 -0.7869  3.5863 -1.4197
   16CHL1  H12B 1143   4.874   2.556   9.593  0.6670  0.0076  0.5972
   16CHL1   C11 1144   4.964   2.384   9.693 -0.2784  0.6985 -0.1596
   16CHL1  H11A 1145   5.015   2.298   9.645  0.2264  0.6351  0.4809
   16CHL1  H11B 1146   5.039   2.451   9.740 -1.3882  1.4094  0.6311
   16CHL1    C9 1147   4.873   2.344   9.815 -1.0476  0.4446  0.0163
   16CHL1    H9 1148   4.838   2.442   9.854  0.1009  0.9804 -0.2869
   16CHL1   C10 1149   4.945   2.282   9.937  0.0753 -0.1068 -0.4912
   16CHL1   C19 1150   5.036   2.165   9.889  0.1314  0.8709  0.8123
   16CHL1  H19A 1151   5.110   2.202   9.814  0.0962 -0.7225 -0.0239
   16CHL1  H19B 1152   5.107   2.127   9.966  1.0363 -2.6861 -1.6705
   16CHL1  H19C 1153   4.973   2.079   9.859  0.1532  1.0067  0.3751
   16CHL1    C1 1154   5.029   2.391  10.009 -0.6081  0.3858  0.5419
   16CHL1   H1A 1155   5.126   2.405   9.956 -1.4020  0.7822 -0.8280
   16CHL1   H1B 1156   4.974   2.487   9.998 -0.4852  0.3356 -0.6137
   16CHL1    C2 1157   5.079   2.359  10.145 -0.3805 -0.3251  0.0314
   16CHL1   H2A 1158   5.134   2.448  10.181 -0.1291  0.1730 -1.5183
   16CHL1   H2B 1159   5.153   2.276  10.139 -0.4531 -0.3783 -0.1520
   16CHL1   C20 1160   4.705   2.494   9.294  0.1249 -0.0295  0.2674
   16CHL1   H20 1161   4.721   2.398   9.241  1.3532 -0.7797  1.9733
   16CHL1   C21 1162   4.838   2.573   9.263 -0.6818 -0.4832  0.3271
   16CHL1  H21A 1163   4.838   2.596   9.155 -0.4774 -0.6085  0.3021
   16CHL1  H21B 1164   4.923   2.508   9.292  0.3439  1.2434  1.3048
   16CHL1  H21C 1165   4.839   2.670   9.318  1.4227  1.1274 -2.4865
   16CHL1   C22 1166   4.594   2.572   9.222  0.6845 -0.3225  0.6087
   16CHL1  H22A 1167   4.495   2.530   9.250  0.4407  0.8700  1.5752
   16CHL1  H22B 1168   4.592   2.680   9.250  1.0806 -0.1930  0.1445
   16CHL1   C23 1169   4.603   2.570   9.070 -0.2697 -0.8366  0.2452
   16CHL1  H23A 1170   4.694   2.621   9.031 -1.6009  0.7285 -0.9092
   16CHL1  H23B 1171   4.599   2.464   9.038  0.0555 -1.0272  0.8367
   16CHL1   C24 1172   4.502   2.668   9.009  0.2571 -0.4379 -0.1707
   16CHL1  H24A 1173   4.400   2.641   9.044 -0.5795  1.6039 -0.9454
   16CHL1  H24B 1174   4.522   2.773   9.041 -2.7223  0.5766 -1.4093
   16CHL1   C25 1175   4.503   2.663   8.849  0.1247  0.2450  0.1751
   16CHL1   H25 1176   4.611   2.661   8.823 -0.3475 -1.7747 -1.8988
   16CHL1   C26 1177   4.442   2.534   8.780  0.1487 -0.5792 -0.2572
   16CHL1  H26A 1178   4.343   2.506   8.823 -0.3469  1.3472 -0.1063
   16CHL1  H26B 1179   4.414   2.566   8.678 -0.1854 -4.7312 -1.5630
   16CHL1  H26C 1180   4.519   2.455   8.764 -0.3253 -0.6076 -2.5865
   16CHL1   C27 1181   4.438   2.789   8.788  0.2448  0.4394  0.0077
   16CHL1  H27A 1182   4.398   2.768   8.686 -0.7297  0.0933  0.4625
   16CHL1  H27B 1183   4.352   2.819   8.851 -1.2244 -1.7849 -0.8985
   16CHL1  H27C 1184   4.526   2.856   8.773  0.2308  0.4106 -0.2055
   17CHL1    C3 1185   0.749   5.998  10.425 -0.2820  0.2326  0.5761
   17CHL1    H3 1186   0.755   5.903  10.368  1.0903 -1.0891  2.8726
   17CHL1    O3 1187   0.730   5.971  10.560  0.7153 -0.4105  0.2789
   17CHL1   H3' 1188   0.636   5.982  10.573  0.4787 -0.6987 -1.0604
   17CHL1    C4 1189   0.876   6.075  10.410  0.6584 -0.1094  0.7157
   17CHL1   H4A 1190   0.876   6.169  10.469 -0.6358  1.0264 -1.0329
   17CHL1   H4B 1191   0.965   6.027  10.456  1.7180  0.0463 -1.0946
   17CHL1    C5 1192   0.916   6.102  10.263  0.4211 -0.3080  0.8028
   17CHL1    C6 1193   1.031   6.062  10.202 -0.3971 -0.0778  0.3582
   17CHL1    H6 1194   1.108   6.020  10.268  1.4238  1.8141 -0.5381
   17CHL1    C7 1195   1.067   6.087  10.056 -0.5579 -0.0370 -0.2364
   17CHL1   H7A 1196   1.170   6.127  10.046 -0.7731  0.5010 -0.2811
   17CHL1   H7B 1197   1.061   5.983  10.016 -2.7692 -0.4420  1.0770
   17CHL1    C8 1198   0.972   6.184   9.990 -0.1236  0.0880  0.2758
   17CHL1    H8 1199   1.010   6.284  10.020 -1.0402 -0.8099  4.8954
   17CHL1   C14 1200   0.979   6.166   9.841  0.1288  0.2010  0.4685
   17CHL1   H14 1201   0.949   6.060   9.827 -1.0329  0.6112 -0.2041
   17CHL1   C15 1202   1.119   6.159   9.771 -0.5029  0.4179  0.2741
   17CHL1  H15A 1203   1.179   6.243   9.812 -0.5841  0.1502  0.9503
   17CHL1  H15B 1204   1.185   6.071   9.786 -0.2564  0.4773 -0.4254
   17CHL1   C16 1205   1.079   6.183   9.624 -0.3178  0.3153  0.3644
   17CHL1  H16A 1206   1.138   6.269   9.587 -0.1655 -0.8299 -2.1710
   17CHL1  H16B 1207   1.107   6.099   9.557  1.6277  0.7000  0.6778
   17CHL1   C17 1208   0.929   6.220   9.612  0.1594 -0.6407 -0.2077
   17CHL1   H17 1209   0.867   6.128   9.608  0.4768 -0.8222 -1.2619
   17CHL1   C13 1210   0.891   6.259   9.756 -0.7557 -0.5615  0.9848
   17CHL1   C18 1211   0.947   6.406   9.771 -0.0932 -0.3486  0.7697
   17CHL1  H18A 1212   0.884   6.467   9.702  1.8623  1.8192  0.8271
   17CHL1  H18B 1213   0.945   6.435   9.878 -0.3243  0.2843  0.5947
   17CHL1  H18C 1214   1.048   6.421   9.726  0.5921 -0.1078  2.3528
   17CHL1   C12 1215   0.746   6.236   9.797 -0.0653  0.4534  0.3891
   17CHL1  H12A 1216   0.673   6.296   9.738  2.0189  0.6446 -2.0329
   17CHL1  H12B 1217   0.733   6.127   9.779 -0.0153  0.3289  1.0898
   17CHL1   C11 1218   0.726   6.256   9.952 -0.0416  0.5244  0.4741
   17CHL1  H11A 1219   0.755   6.361   9.973  2.0504 -0.1209  0.9626
   17CHL1  H11B 1220   0.619   6.244   9.979 -0.3427  2.6607  0.2676
   17CHL1    C9 1221   0.826   6.172  10.034  0.2985  0.4490  0.4032
   17CHL1    H9 1222   0.801   6.068  10.005  2.9264 -0.0795 -0.0633
   17CHL1   C10 1223   0.798   6.165  10.183 -0.2330  0.0949 -0.3176
   17CHL1   C19 1224   0.808   6.310  10.237 -1.0914  0.2813 -0.5431
   17CHL1  H19A 1225   0.718   6.368  10.206 -0.0358  0.3681 -3.7248
   17CHL1  H19B 1226   0.804   6.316  10.347 -3.2491 -2.0232 -0.4648
   17CHL1  H19C 1227   0.896   6.361  10.191 -0.4743 -1.7154 -1.6180
   17CHL1    C1 1228   0.664   6.101  10.216 -0.8275 -0.3233  0.1496
   17CHL1   H1A 1229   0.573   6.160  10.194 -0.2461  0.6775  0.3970
   17CHL1   H1B 1230   0.654   6.006  10.160 -0.1178 -2.4609  3.5120
   17CHL1    C2 1231   0.634   6.075  10.363  0.2850 -0.2663 -0.1686
   17CHL1   H2A 1232   0.542   6.014  10.371 -0.2933  0.7568  1.3962
   17CHL1   H2B 1233   0.630   6.166  10.427  3.7043  1.8113 -2.7410
   17CHL1   C20 1234   0.891   6.301   9.486  0.2543  0.3472  0.1299
   17CHL1   H20 1235   0.915   6.407   9.508  0.2434  0.3483  0.1356
   17CHL1   C21 1236   0.739   6.290   9.472  0.3193 -0.3164  0.5944
   17CHL1  H21A 1237   0.689   6.364   9.538 -0.6222  0.1754 -0.6463
   17CHL1  H21B 1238   0.705   6.187   9.495 -0.2272 -0.6929 -1.8081
   17CHL1  H21C 1239   0.713   6.323   9.369  0.5035  0.4142  0.7789
   17CHL1   C22 1240   0.959   6.255   9.351  0.6850  0.1119 -0.8894
   17CHL1  H22A 1241   0.939   6.318   9.261 -0.1957 -0.3216 -1.0069
   17CHL1  H22B 1242   1.069   6.267   9.361  0.6166  0.7290 -0.8440
   17CHL1   C23 1243   0.927   6.109   9.305  0.1381  0.1801  0.9329
   17CHL1  H23A 1244   0.958   6.034   9.380 -0.7796 -1.3882 -0.2397
   17CHL1  H23B 1245   0.817   6.103   9.291  0.2630  1.3735 -0.7695
   17CHL1   C24 1246   0.996   6.063   9.175 -0.8190  0.2427 -0.1306
   17CHL1  H24A 1247   0.938   5.973   9.146  1.8182 -1.8343  0.8189
   17CHL1  H24B 1248   0.979   6.134   9.091 -2.3871  0.5135  0.4088
   17CHL1   C25 1249   1.142   6.052   9.177  0.5382 -0.3331  0.1692
   17CHL1   H25 1250   1.175   6.142   9.232  0.0706 -0.1347  0.1288
   17CHL1   C26 1251   1.188   5.930   9.261  0.4300 -0.2431 -0.2525
   17CHL1  H26A 1252   1.151   5.836   9.214  0.3577 -0.4574  0.2336
   17CHL1  H26B 1253   1.299   5.934   9.261  0.4595 -0.7075  1.5222
   17CHL1  H26C 1254   1.151   5.930   9.365  2.3058 -1.4854  0.4324
   17CHL1   C27 1255   1.211   6.045   9.040 -0.1661 -0.2531  0.3546
   17CHL1  H27A 1256   1.193   6.134   8.976 -0.8126  0.3381  1.3563
   17CHL1  H27B 1257   1.322   6.056   9.045  0.0296 -0.1175 -2.9641
   17CHL1  H27C 1258   1.191   5.950   8.985  1.0516 -0.4299  0.1919
   18CHL1    C3 1259   6.580   4.586  10.071  0.5091  0.4116 -0.3848
   18CHL1    H3 1260   6.609   4.692  10.059  0.9449  0.1924 -1.3023
   18CHL1    O3 1261   6.647   4.521  10.182 -0.2488  0.3400 -0.0282
   18CHL1   H3' 1262   6.617   4.430  10.176 -2.2883  0.9622  0.3678
   18CHL1    C4 1263   6.425   4.571  10.084  0.5779  0.1555 -0.3306
   18CHL1   H4A 1264   6.414   4.461  10.098  4.2998 -0.0127  2.1927
   18CHL1   H4B 1265   6.399   4.632  10.173 -1.9183  0.0391 -0.9406
   18CHL1    C5 1266   6.344   4.621   9.961 -0.3516 -0.2784  0.0194
   18CHL1    C6 1267   6.242   4.705   9.974 -0.4924 -0.9494  0.4809
   18CHL1    H6 1268   6.210   4.743  10.072  2.0739  0.5317  0.7784
   18CHL1    C7 1269   6.168   4.777   9.863  0.2629 -0.6780  0.8579
   18CHL1   H7A 1270   6.059   4.759   9.874 -0.4360  2.7914  0.1800
   18CHL1   H7B 1271   6.187   4.885   9.874 -1.7000  0.0198 -2.0946
   18CHL1    C8 1272   6.196   4.713   9.732  0.6064  1.5193  0.3085
   18CHL1    H8 1273   6.144   4.615   9.723  0.6125  1.5773 -0.3423
   18CHL1   C14 1274   6.147   4.804   9.623  0.1006  0.4944  0.1741
   18CHL1   H14 1275   6.215   4.890   9.642  0.4059 -0.0512  1.6166
   18CHL1   C15 1276   6.009   4.865   9.628 -0.1397 -0.8502  0.3451
   18CHL1  H15A 1277   5.934   4.791   9.662 -0.6935  0.1742  1.3656
   18CHL1  H15B 1278   5.995   4.945   9.703 -0.3250 -1.5109  1.0109
   18CHL1   C16 1279   5.981   4.913   9.480  0.4015 -0.2525 -0.3984
   18CHL1  H16A 1280   5.883   4.877   9.442  0.5700 -0.3304 -0.7522
   18CHL1  H16B 1281   5.987   5.024   9.479 -0.5551 -0.1797  0.7418
   18CHL1   C17 1282   6.105   4.870   9.396 -0.2190 -0.4979  0.2140
   18CHL1   H17 1283   6.177   4.954   9.403 -0.5265 -0.1017 -1.1143
   18CHL1   C13 1284   6.174   4.759   9.479  0.4093  0.4877 -0.2793
   18CHL1   C18 1285   6.090   4.636   9.455 -0.4198 -0.4604  0.2368
   18CHL1  H18A 1286   6.115   4.579   9.363  1.0967  0.0398  0.3307
   18CHL1  H18B 1287   6.110   4.561   9.535 -0.8497  0.1483  0.9207
   18CHL1  H18C 1288   5.980   4.652   9.455 -0.3291  0.1671 -0.8931
   18CHL1   C12 1289   6.323   4.734   9.455  0.1366  0.5141 -0.8676
   18CHL1  H12A 1290   6.354   4.681   9.362 -0.9826 -1.0200 -0.3989
   18CHL1  H12B 1291   6.377   4.828   9.478  0.3082  0.2240 -0.0619
   18CHL1   C11 1292   6.373   4.636   9.564  0.5712 -0.6966  0.4829
   18CHL1  H11A 1293   6.321   4.540   9.542 -0.2666  0.3694 -2.5098
   18CHL1  H11B 1294   6.481   4.616   9.547  0.6869 -2.4463  3.1257
   18CHL1    C9 1295   6.348   4.677   9.711  0.6233 -0.1281  0.1529
   18CHL1    H9 1296   6.395   4.777   9.718  1.9378 -0.6427 -0.9573
   18CHL1   C10 1297   6.406   4.579   9.825  0.5763 -0.0270  0.0344
   18CHL1   C19 1298   6.354   4.437   9.788 -0.3307  0.1275  0.7252
   18CHL1  H19A 1299   6.244   4.426   9.788 -0.0679 -3.3683 -2.0616
   18CHL1  H19B 1300   6.400   4.408   9.691 -0.3492 -0.1691  0.8048
   18CHL1  H19C 1301   6.393   4.359   9.857 -0.3109  0.1192  0.7042
   18CHL1    C1 1302   6.557   4.593   9.827 -0.0328 -0.1361 -0.0775
   18CHL1   H1A 1303   6.606   4.562   9.732  0.6272 -0.1940  0.2777
   18CHL1   H1B 1304   6.594   4.698   9.839 -0.4262 -0.0567  0.4723
   18CHL1    C2 1305   6.620   4.517   9.940 -0.2263 -0.0718 -0.2071
   18CHL1   H2A 1306   6.730   4.530   9.931 -0.0986  1.6612  3.0078
   18CHL1   H2B 1307   6.595   4.409   9.933 -0.6654  0.0345 -0.2856
   18CHL1   C20 1308   6.064   4.849   9.243  0.5042 -0.1388 -0.5232
   18CHL1   H20 1309   6.003   4.757   9.234 -0.7631  0.4908  1.3927
   18CHL1   C21 1310   6.204   4.844   9.161 -0.3781  0.3958  0.0896
   18CHL1  H21A 1311   6.264   4.934   9.185  2.2835 -0.3995 -3.3131
   18CHL1  H21B 1312   6.191   4.841   9.050  0.2409  2.4884 -0.0489
   18CHL1  H21C 1313   6.251   4.750   9.195  0.5103  0.8039 -0.0191
   18CHL1   C22 1314   5.968   4.962   9.177  0.2548  0.7221 -0.1550
   18CHL1  H22A 1315   5.893   4.999   9.250 -1.6382 -0.3932 -1.4895
   18CHL1  H22B 1316   6.040   5.046   9.169  0.9726  0.1885  0.5703
   18CHL1   C23 1317   5.899   4.918   9.046  0.1079  0.4937  0.2047
   18CHL1  H23A 1318   5.979   4.868   8.986 -1.4640 -3.7074  1.4097
   18CHL1  H23B 1319   5.825   4.839   9.073  1.7839 -0.9846  0.6283
   18CHL1   C24 1320   5.826   5.033   8.982  0.4777  0.4253 -0.8904
   18CHL1  H24A 1321   5.781   5.104   9.055  0.4981 -2.6856  2.2930
   18CHL1  H24B 1322   5.891   5.091   8.913  2.4464 -0.9128 -0.1869
   18CHL1   C25 1323   5.716   4.982   8.882 -0.2705 -1.1312 -1.0639
   18CHL1   H25 1324   5.650   4.915   8.940  0.1138 -0.4144  0.2114
   18CHL1   C26 1325   5.625   5.101   8.832  0.2721  0.4102 -0.7563
   18CHL1  H26A 1326   5.574   5.158   8.912  0.6332 -1.3434  0.7669
   18CHL1  H26B 1327   5.698   5.166   8.778 -1.3273  2.7152 -0.1914
   18CHL1  H26C 1328   5.554   5.072   8.753 -3.2572  2.4650  1.5506
   18CHL1   C27 1329   5.774   4.903   8.767  0.4765  0.7234 -0.9454
   18CHL1  H27A 1330   5.691   4.858   8.709  1.9229 -0.8800 -1.8232
   18CHL1  H27B 1331   5.825   4.971   8.695  0.8986  0.4969 -0.8624
   18CHL1  H27C 1332   5.840   4.823   8.805 -0.9149  0.0641  0.1222
   19CHL1    C3 1333   4.154   1.222  10.102 -0.3428 -0.3190  0.5059
   19CHL1    H3 1334   4.250   1.170  10.122  0.2576  0.2973 -0.7104
   19CHL1    O3 1335   4.092   1.262  10.220 -0.0327  0.6797 -0.1998
   19CHL1   H3' 1336   4.001   1.235  10.206  0.4870 -0.6216 -1.2148
   19CHL1    C4 1337   4.196   1.349  10.019 -0.3513 -0.7748  0.7433
   19CHL1   H4A 1338   4.108   1.416  10.011  0.2267  0.1302  1.7431
   19CHL1   H4B 1339   4.266   1.408  10.083 -3.7204  0.0902  3.8028
   19CHL1    C5 1340   4.252   1.316   9.890  0.4651 -0.1886  0.5937
   19CHL1    C6 1341   4.377   1.351   9.856  0.1435 -1.0107  0.4158
   19CHL1    H6 1342   4.430   1.412   9.931 -0.2518 -1.2310  0.8825
   19CHL1    C7 1343   4.441   1.324   9.720  0.0695  0.0925 -0.6277
   19CHL1   H7A 1344   4.485   1.418   9.683 -1.1027  0.2786 -1.5509
   19CHL1   H7B 1345   4.514   1.244   9.745  0.0443  0.0746 -0.6114
   19CHL1    C8 1346   4.336   1.292   9.610 -0.0504  0.5883 -0.0144
   19CHL1    H8 1347   4.282   1.388   9.598  1.6300  1.5434 -0.0530
   19CHL1   C14 1348   4.408   1.245   9.484 -0.5063 -0.1059  1.0417
   19CHL1   H14 1349   4.469   1.157   9.514  0.1896 -0.6506 -1.8251
   19CHL1   C15 1350   4.507   1.345   9.422  0.4915  0.2906 -0.6739
   19CHL1  H15A 1351   4.486   1.453   9.424 -0.2544  0.2667 -3.9697
   19CHL1  H15B 1352   4.601   1.327   9.478 -1.4294 -2.5204  1.7861
   19CHL1   C16 1353   4.510   1.306   9.271 -0.1277  0.2516 -0.3456
   19CHL1  H16A 1354   4.474   1.400   9.223 -0.7687 -0.2991 -0.9516
   19CHL1  H16B 1355   4.614   1.287   9.239  1.3328  0.9840  3.6456
   19CHL1   C17 1356   4.413   1.184   9.268 -0.0156 -0.2226 -0.2421
   19CHL1   H17 1357   4.470   1.093   9.296 -0.5030 -0.7977 -1.1014
   19CHL1   C13 1358   4.310   1.203   9.379  0.1678  0.2145  0.1011
   19CHL1   C18 1359   4.220   1.319   9.333 -0.1022 -0.5292 -0.2480
   19CHL1  H18A 1360   4.158   1.299   9.243  2.3782 -2.0017 -1.6926
   19CHL1  H18B 1361   4.134   1.340   9.400  1.7121  0.4929  1.8048
   19CHL1  H18C 1362   4.269   1.418   9.325 -0.6128 -0.1327  1.3961
   19CHL1   C12 1363   4.231   1.087   9.431  0.3620  0.1984  0.0152
   19CHL1  H12A 1364   4.164   1.044   9.354 -1.5011 -0.2291  1.8179
   19CHL1  H12B 1365   4.305   1.008   9.457 -0.1689 -0.7432 -1.3008
   19CHL1   C11 1366   4.143   1.122   9.553 -0.5618 -0.3573  0.0148
   19CHL1  H11A 1367   4.062   1.194   9.528  0.9380  0.9602 -1.1979
   19CHL1  H11B 1368   4.094   1.027   9.582  1.2438 -1.6729 -1.0973
   19CHL1    C9 1369   4.233   1.187   9.664  0.5568  0.4464 -0.5170
   19CHL1    H9 1370   4.298   1.103   9.697 -0.8901 -0.6078 -0.3002
   19CHL1   C10 1371   4.160   1.226   9.798  0.4121  0.2620 -0.0752
   19CHL1   C19 1372   4.049   1.318   9.771  0.3483 -0.6869 -0.5121
   19CHL1  H19A 1373   4.080   1.417   9.731  0.8870 -0.3520  0.6932
   19CHL1  H19B 1374   3.980   1.267   9.700  0.5253 -2.7239  0.7400
   19CHL1  H19C 1375   3.984   1.348   9.856  1.1030  1.9040 -0.8102
   19CHL1    C1 1376   4.116   1.100   9.876 -0.1584  0.1012  0.3940
   19CHL1   H1A 1377   4.048   1.032   9.822  0.3642 -0.0212 -0.1067
   19CHL1   H1B 1378   4.209   1.045   9.901 -0.0421  0.3879  0.6055
   19CHL1    C2 1379   4.062   1.130  10.012 -0.3744  0.3479 -0.0946
   19CHL1   H2A 1380   4.051   1.037  10.072 -1.0345 -0.8033 -1.9678
   19CHL1   H2B 1381   3.963   1.178  10.000 -0.0752  1.0954  0.3983
   19CHL1   C20 1382   4.360   1.151   9.132  0.8633 -0.8348  0.6383
   19CHL1   H20 1383   4.258   1.106   9.138  1.3454 -1.8169  1.6766
   19CHL1   C21 1384   4.454   1.049   9.066  0.0433  0.5973  0.4505
   19CHL1  H21A 1385   4.426   1.023   8.961 -1.7865  1.1506  0.7861
   19CHL1  H21B 1386   4.453   0.950   9.117  0.4887 -0.1767 -0.9939
   19CHL1  H21C 1387   4.560   1.082   9.067  1.4132 -3.4107 -0.8042
   19CHL1   C22 1388   4.354   1.273   9.028  0.4688 -0.0845 -0.0841
   19CHL1  H22A 1389   4.281   1.346   9.069 -0.2568  0.5107 -2.3544
   19CHL1  H22B 1390   4.450   1.324   9.007  0.4250 -0.2074 -0.5998
   19CHL1   C23 1391   4.282   1.245   8.897 -0.3638 -0.4608  0.7732
   19CHL1  H23A 1392   4.323   1.167   8.829  2.1147  1.4209  0.0231
   19CHL1  H23B 1393   4.176   1.224   8.919 -0.7667 -0.1244 -0.7897
   19CHL1   C24 1394   4.289   1.372   8.803 -0.1496 -0.0798 -0.0960
   19CHL1  H24A 1395   4.219   1.445   8.850 -0.2830 -1.2271  1.5405
   19CHL1  H24B 1396   4.388   1.422   8.803  0.1105 -0.5847 -1.4205
   19CHL1   C25 1397   4.247   1.337   8.663 -0.0788 -0.5064  0.8165
   19CHL1   H25 1398   4.153   1.279   8.669 -0.4292 -0.1395 -0.9597
   19CHL1   C26 1399   4.211   1.462   8.584  0.2902  0.3088 -0.4165
   19CHL1  H26A 1400   4.165   1.433   8.487 -0.3687 -0.1770  0.0280
   19CHL1  H26B 1401   4.128   1.518   8.633  0.2265 -1.5731  1.7334
   19CHL1  H26C 1402   4.292   1.536   8.568 -0.7643  1.5738 -0.0191
   19CHL1   C27 1403   4.346   1.254   8.582 -0.4906 -0.3397 -0.5376
   19CHL1  H27A 1404   4.348   1.151   8.625 -0.7071  0.5501  1.6853
   19CHL1  H27B 1405   4.315   1.245   8.476  0.4271  0.4840 -0.8805
   19CHL1  H27C 1406   4.448   1.298   8.585 -1.3188  1.5675  2.1118
   20CHL1    C3 1407   5.904   1.815  10.330  1.0425 -0.5339  0.2389
   20CHL1    H3 1408   5.798   1.782  10.323  0.9632  0.3820 -3.8356
   20CHL1    O3 1409   5.941   1.786  10.464 -0.0931 -0.4667  0.3172
   20CHL1   H3' 1410   6.035   1.798  10.451 -0.0571 -0.2034  0.8099
   20CHL1    C4 1411   5.986   1.736  10.235 -0.3302 -0.3111 -0.5888
   20CHL1   H4A 1412   6.095   1.757  10.233  0.1643 -2.8817 -2.0294
   20CHL1   H4B 1413   5.976   1.629  10.263  1.3516  0.0350  1.4822
   20CHL1    C5 1414   5.936   1.744  10.095  0.1825  0.1594  0.3794
   20CHL1    C6 1415   5.899   1.637  10.018 -0.7577 -0.5646  0.9872
   20CHL1    H6 1416   5.915   1.542  10.071 -0.8594 -1.7734 -1.0900
   20CHL1    C7 1417   5.853   1.645   9.877 -0.2096 -0.1702 -0.0375
   20CHL1   H7A 1418   5.913   1.580   9.809  0.1177  0.2033 -0.1078
   20CHL1   H7B 1419   5.744   1.627   9.867 -0.4321  1.5427 -0.7654
   20CHL1    C8 1420   5.870   1.785   9.811 -0.6357 -0.6273  0.0795
   20CHL1    H8 1421   5.973   1.786   9.769 -1.5360 -0.4976 -2.1981
   20CHL1   C14 1422   5.784   1.800   9.687  0.6128  0.8456  0.3052
   20CHL1   H14 1423   5.675   1.805   9.709  0.4334  2.0426 -0.7751
   20CHL1   C15 1424   5.805   1.689   9.580 -0.1050 -0.4841 -0.3536
   20CHL1  H15A 1425   5.914   1.671   9.579  0.1665  0.7045  2.0368
   20CHL1  H15B 1426   5.746   1.596   9.597  0.8571 -1.0827 -0.2719
   20CHL1   C16 1427   5.759   1.757   9.454  0.0413 -0.2744 -0.6067
   20CHL1  H16A 1428   5.831   1.751   9.369  2.3686 -1.1557  1.3578
   20CHL1  H16B 1429   5.658   1.722   9.422 -0.0370  0.2797 -0.9670
   20CHL1   C17 1430   5.736   1.915   9.479  0.6984 -0.0926 -0.0091
   20CHL1   H17 1431   5.628   1.933   9.494  0.4613  2.0330 -3.6040
   20CHL1   C13 1432   5.812   1.936   9.616  0.0060  0.0492 -0.2348
   20CHL1   C18 1433   5.969   1.957   9.583  0.7308 -1.6522  0.2577
   20CHL1  H18A 1434   6.035   1.958   9.672  1.3701  1.0812 -0.1778
   20CHL1  H18B 1435   6.011   1.883   9.513 -0.5539 -1.0361 -1.1966
   20CHL1  H18C 1436   5.984   2.058   9.539  2.5443 -1.8313  0.4553
   20CHL1   C12 1437   5.760   2.038   9.712 -0.1023 -0.3309 -0.3295
   20CHL1  H12A 1438   5.763   2.140   9.669  1.1413  0.3919  1.3948
   20CHL1  H12B 1439   5.653   2.015   9.729 -0.0870  0.3303  0.7283
   20CHL1   C11 1440   5.849   2.036   9.839  0.0589  0.0645  0.0529
   20CHL1  H11A 1441   5.955   2.064   9.819 -0.4738  0.1624 -2.9352
   20CHL1  H11B 1442   5.819   2.116   9.910  0.5013 -0.5530  0.9540
   20CHL1    C9 1443   5.852   1.902   9.915  0.5020 -0.8367 -0.4339
   20CHL1    H9 1444   5.747   1.886   9.947 -0.0882  0.6592 -1.5968
   20CHL1   C10 1445   5.933   1.886  10.044 -0.2315 -0.0511  0.2145
   20CHL1   C19 1446   6.077   1.936  10.013  0.1792 -0.3750  0.7391
   20CHL1  H19A 1447   6.084   2.045   9.997 -0.9157 -0.3787  0.2049
   20CHL1  H19B 1448   6.148   1.920  10.097 -1.0718 -1.5705  1.5970
   20CHL1  H19C 1449   6.116   1.894   9.918 -3.7029  1.3643 -1.7419
   20CHL1    C1 1450   5.865   1.978  10.149 -0.1964 -0.8279 -0.9102
   20CHL1   H1A 1451   5.866   2.084  10.119  1.8756 -0.4144  0.5529
   20CHL1   H1B 1452   5.760   1.943  10.163 -0.3839  0.1912  0.2755
   20CHL1    C2 1453   5.925   1.965  10.287  0.5014 -0.5684 -0.0764
   20CHL1   H2A 1454   5.880   2.030  10.365  0.3562 -1.5620  0.6732
   20CHL1   H2B 1455   6.033   1.990  10.282  0.0386  1.3876 -0.9783
   20CHL1   C20 1456   5.780   2.004   9.362  0.3355 -0.8830  0.7435
   20CHL1   H20 1457   5.890   2.001   9.346  0.1858  0.0683 -0.5758
   20CHL1   C21 1458   5.738   2.150   9.402  0.3985  0.4605 -0.5181
   20CHL1  H21A 1459   5.736   2.221   9.316 -0.3161  0.8753 -0.1593
   20CHL1  H21B 1460   5.803   2.195   9.480  0.5817 -0.5889 -0.0596
   20CHL1  H21C 1461   5.636   2.145   9.445  0.8769 -1.4232  0.4484
   20CHL1   C22 1462   5.708   1.972   9.225 -0.3270 -0.6725 -0.8251
   20CHL1  H22A 1463   5.737   1.870   9.191 -4.1649 -1.4714 -1.8429
   20CHL1  H22B 1464   5.600   1.957   9.242  0.0068 -1.5719  0.6573
   20CHL1   C23 1465   5.743   2.058   9.109  0.0365 -0.4341 -0.0837
   20CHL1  H23A 1466   5.696   2.157   9.125  0.0006 -0.2001 -1.6089
   20CHL1  H23B 1467   5.853   2.072   9.095 -0.4769  3.9413 -0.5663
   20CHL1   C24 1468   5.682   2.014   8.968  0.2591 -0.3223 -0.4999
   20CHL1  H24A 1469   5.719   1.911   8.949  2.0794  0.2498 -0.2370
   20CHL1  H24B 1470   5.572   2.013   8.980  0.3903  0.3532  0.7621
   20CHL1   C25 1471   5.717   2.110   8.846 -0.5715 -0.3405  0.2161
   20CHL1   H25 1472   5.827   2.117   8.848 -0.5064  0.1841 -3.3994
   20CHL1   C26 1473   5.672   2.053   8.712 -0.5702 -0.1612 -0.2901
   20CHL1  H26A 1474   5.691   2.118   8.624  0.5613  0.5842  0.5003
   20CHL1  H26B 1475   5.725   1.955   8.708 -0.2741 -0.0765  1.3272
   20CHL1  H26C 1476   5.562   2.039   8.703 -0.1851 -0.9210 -4.9625
   20CHL1   C27 1477   5.660   2.248   8.855 -0.1699  0.1594  0.3697
   20CHL1  H27A 1478   5.691   2.309   8.767  2.1838 -1.2070  0.2353
   20CHL1  H27B 1479   5.549   2.243   8.861 -0.2512  1.5415  0.2375
   20CHL1  H27C 1480   5.701   2.299   8.944  4.6640 -0.2355 -1.5082
   21CHL1    C3 1481   5.859   4.450  10.118  0.6337  0.9109 -0.6177
   21CHL1    H3 1482   5.847   4.561  10.121 -1.0785  0.7138  0.6281
   21CHL1    O3 1483   5.904   4.415  10.242  0.1988 -0.7763 -1.1540
   21CHL1   H3' 1484   5.994   4.442  10.259 -0.2784  0.1342  0.0611
   21CHL1    C4 1485   5.718   4.381  10.095  0.0638 -0.6013 -0.5759
   21CHL1   H4A 1486   5.738   4.271  10.094  0.8395 -0.4853 -3.6648
   21CHL1   H4B 1487   5.663   4.409  10.188 -0.0189  1.1011 -1.1260
   21CHL1    C5 1488   5.652   4.425   9.958  0.1378  0.6696  0.6090
   21CHL1    C6 1489   5.528   4.476   9.953 -0.3606  0.2424  0.3863
   21CHL1    H6 1490   5.478   4.491  10.050 -0.0866 -1.9067  0.9031
   21CHL1    C7 1491   5.461   4.511   9.823  0.1446  0.5401 -0.8417
   21CHL1   H7A 1492   5.355   4.480   9.810 -0.1621  1.2682 -0.1127
   21CHL1   H7B 1493   5.457   4.622   9.819  2.1193  0.5744 -2.7733
   21CHL1    C8 1494   5.537   4.453   9.696  0.8414 -0.1526  0.0585
   21CHL1    H8 1495   5.510   4.346   9.703 -0.6082  0.1485 -0.6524
   21CHL1   C14 1496   5.499   4.519   9.567 -0.0547 -0.6070  0.2137
   21CHL1   H14 1497   5.535   4.624   9.570 -1.9086  0.0124  1.0136
   21CHL1   C15 1498   5.347   4.533   9.545 -0.2579  0.2534  0.4852
   21CHL1  H15A 1499   5.276   4.456   9.581 -0.1555 -0.3558 -0.5937
   21CHL1  H15B 1500   5.308   4.628   9.586 -0.8765  1.1038 -1.9569
   21CHL1   C16 1501   5.328   4.550   9.390  0.1706  0.6803 -0.3903
   21CHL1  H16A 1502   5.270   4.461   9.358 -2.0783  1.7595  0.5714
   21CHL1  H16B 1503   5.278   4.645   9.364 -2.2845  0.2955  2.6275
   21CHL1   C17 1504   5.473   4.546   9.333 -0.4730  0.3639  0.1154
   21CHL1   H17 1505   5.503   4.652   9.340  0.1997  0.2780 -1.2927
   21CHL1   C13 1506   5.557   4.460   9.436 -0.4493 -0.1533  0.3235
   21CHL1   C18 1507   5.525   4.306   9.410 -0.0425 -0.3623 -0.5686
   21CHL1  H18A 1508   5.414   4.303   9.414 -0.0118 -0.1285  0.6783
   21CHL1  H18B 1509   5.561   4.261   9.315  1.9610 -0.4176  0.1892
   21CHL1  H18C 1510   5.562   4.249   9.498 -1.8440  0.2010  0.5787
   21CHL1   C12 1511   5.707   4.489   9.446 -0.1982 -0.8300  0.3340
   21CHL1  H12A 1512   5.783   4.457   9.371 -1.9320 -1.5578 -1.1223
   21CHL1  H12B 1513   5.715   4.600   9.441 -1.7293 -0.6833  0.9407
   21CHL1   C11 1514   5.762   4.428   9.576  0.0784  0.6574  0.1446
   21CHL1  H11A 1515   5.756   4.319   9.557  3.1941  0.4182  0.3461
   21CHL1  H11B 1516   5.864   4.471   9.589  1.0100 -0.9329 -1.6755
   21CHL1    C9 1517   5.690   4.470   9.708 -0.1085 -0.1429 -0.0078
   21CHL1    H9 1518   5.694   4.581   9.710  2.2147 -0.1387 -2.3921
   21CHL1   C10 1519   5.748   4.402   9.839 -0.0463 -0.5019  0.5369
   21CHL1   C19 1520   5.765   4.253   9.812 -0.2361  1.0216  0.6863
   21CHL1  H19A 1521   5.840   4.227   9.735 -0.5316 -4.2826  1.9941
   21CHL1  H19B 1522   5.794   4.195   9.902 -0.2974  0.6162  0.4439
   21CHL1  H19C 1523   5.666   4.213   9.779  0.2588  2.4722 -2.7570
   21CHL1    C1 1524   5.894   4.456   9.871  0.2701 -0.9738  0.6545
   21CHL1   H1A 1525   5.958   4.427   9.784 -0.2322  0.3356 -0.1670
   21CHL1   H1B 1526   5.890   4.567   9.877 -0.4291 -0.9208 -0.5037
   21CHL1    C2 1527   5.955   4.406  10.003 -0.1699  0.1664  0.6501
   21CHL1   H2A 1528   6.059   4.433  10.033 -0.7497  2.1676  0.9004
   21CHL1   H2B 1529   5.973   4.296  10.006  1.0462  0.3246 -0.7088
   21CHL1   C20 1530   5.480   4.512   9.182 -0.1436  0.2530  1.2236
   21CHL1   H20 1531   5.440   4.410   9.163  1.3475 -0.2760  0.8284
   21CHL1   C21 1532   5.624   4.512   9.122 -0.2757  0.8541  0.5571
   21CHL1  H21A 1533   5.675   4.427   9.171 -0.7119  0.9111  1.1096
   21CHL1  H21B 1534   5.678   4.608   9.138 -0.2132  1.0681 -0.8626
   21CHL1  H21C 1535   5.623   4.493   9.012  0.2176 -0.6348  0.7999
   21CHL1   C22 1536   5.410   4.617   9.095  0.3610  0.1040  0.0944
   21CHL1  H22A 1537   5.317   4.641   9.151 -0.7262 -2.9861 -0.2658
   21CHL1  H22B 1538   5.474   4.706   9.080  1.0204 -0.7101 -2.0319
   21CHL1   C23 1539   5.382   4.576   8.949  0.3487 -0.1631  0.3075
   21CHL1  H23A 1540   5.474   4.535   8.903  1.5406  0.9420  1.6731
   21CHL1  H23B 1541   5.325   4.481   8.955 -2.1089  1.2163 -0.6205
   21CHL1   C24 1542   5.306   4.681   8.865 -0.4758 -0.8025 -0.3484
   21CHL1  H24A 1543   5.200   4.679   8.897 -0.4372 -1.0515 -0.2368
   21CHL1  H24B 1544   5.355   4.777   8.892 -1.3356 -0.8003  1.2059
   21CHL1   C25 1545   5.312   4.660   8.713 -0.0364 -0.7075  0.0777
   21CHL1   H25 1546   5.416   4.625   8.692 -0.0640 -0.4742 -0.4665
   21CHL1   C26 1547   5.209   4.548   8.673 -0.0813 -0.1833  0.7908
   21CHL1  H26A 1548   5.112   4.579   8.718  0.6050  1.4997  1.1293
   21CHL1  H26B 1549   5.197   4.557   8.563 -1.0152  0.9045  0.9739
   21CHL1  H26C 1550   5.237   4.445   8.704 -1.8543 -1.4237 -1.5566
   21CHL1   C27 1551   5.272   4.791   8.631 -0.4138  1.0613 -1.0641
   21CHL1  H27A 1552   5.329   4.874   8.679 -0.1129 -0.5728  1.5197
   21CHL1  H27B 1553   5.308   4.785   8.527  1.5239  1.3268 -0.4284
   21CHL1  H27C 1554   5.163   4.812   8.627 -0.5052  1.4062  2.0739
   22CHL1    C3 1555   5.535   5.677  10.205  0.1133 -0.0110  0.2103
   22CHL1    H3 1556   5.470   5.588  10.219  0.0570  0.4709  3.1616
   22CHL1    O3 1557   5.573   5.714  10.335  0.3359 -0.3088  0.4863
   22CHL1   H3' 1558   5.607   5.803  10.318 -1.1620  0.0422 -0.8595
   22CHL1    C4 1559   5.661   5.633  10.120 -0.2642  0.0946  0.3118
   22CHL1   H4A 1560   5.731   5.718  10.131 -1.0538  0.4954  2.3852
   22CHL1   H4B 1561   5.703   5.540  10.163  2.1026  1.0206  0.0495
   22CHL1    C5 1562   5.623   5.600   9.975  0.4450 -0.5608 -0.1102
   22CHL1    C6 1563   5.641   5.484   9.919  0.1412 -0.2747  0.1200
   22CHL1    H6 1564   5.690   5.403   9.976 -2.6840 -2.4723 -0.4390
   22CHL1    C7 1565   5.621   5.450   9.775 -0.1446 -0.3800  0.2818
   22CHL1   H7A 1566   5.711   5.404   9.730  0.2462  0.7872 -0.1474
   22CHL1   H7B 1567   5.537   5.378   9.767 -0.2055 -0.1714 -0.9101
   22CHL1    C8 1568   5.592   5.578   9.690  0.9640 -0.2357  0.2450
   22CHL1    H8 1569   5.691   5.622   9.668  1.1728 -0.0374  1.5406
   22CHL1   C14 1570   5.518   5.529   9.563 -0.0337 -0.4535 -0.0318
   22CHL1   H14 1571   5.429   5.479   9.607 -0.1107  0.0603  0.4168
   22CHL1   C15 1572   5.575   5.418   9.478 -0.2763 -0.6992 -0.0097
   22CHL1  H15A 1573   5.682   5.435   9.451 -0.2371 -1.8121 -0.5724
   22CHL1  H15B 1574   5.569   5.317   9.524  0.3723 -1.3545 -1.3687
   22CHL1   C16 1575   5.484   5.416   9.354  0.3076 -0.7326  0.5714
   22CHL1  H16A 1576   5.543   5.394   9.262  0.5621  0.3918  0.4569
   22CHL1  H16B 1577   5.414   5.332   9.373  0.3836 -0.9620 -0.1509
   22CHL1   C17 1578   5.398   5.544   9.355  0.0448 -0.4505 -0.3406
   22CHL1   H17 1579   5.296   5.519   9.390  0.0280  0.8834  0.5910
   22CHL1   C13 1580   5.460   5.633   9.466  0.1688 -0.3613  0.1432
   22CHL1   C18 1581   5.581   5.710   9.415  0.2474  0.0226 -0.4056
   22CHL1  H18A 1582   5.553   5.817   9.410  2.5359  0.8064  2.1365
   22CHL1  H18B 1583   5.663   5.713   9.490 -1.4770 -3.9439  1.8392
   22CHL1  H18C 1584   5.614   5.677   9.314  0.4122  1.5174 -0.8427
   22CHL1   C12 1585   5.369   5.727   9.545  0.2507 -0.3010 -0.1950
   22CHL1  H12A 1586   5.346   5.823   9.494 -0.2920  0.4389  1.3989
   22CHL1  H12B 1587   5.274   5.678   9.574 -0.8358  0.8986 -1.6059
   22CHL1   C11 1588   5.438   5.790   9.671  0.5265 -0.2253 -0.8012
   22CHL1  H11A 1589   5.525   5.857   9.654  0.4747  0.0760  0.0979
   22CHL1  H11B 1590   5.363   5.844   9.734  0.1498 -1.8294  0.1555
   22CHL1    C9 1591   5.489   5.671   9.762 -0.0251 -0.1236  0.1632
   22CHL1    H9 1592   5.395   5.617   9.786 -0.4315  1.3036  1.8754
   22CHL1   C10 1593   5.545   5.714   9.904 -1.0266  0.7422  0.7045
   22CHL1   C19 1594   5.657   5.824   9.879  0.0267 -0.1097  0.5545
   22CHL1  H19A 1595   5.723   5.795   9.794  0.9611  2.1424  0.4663
   22CHL1  H19B 1596   5.603   5.921   9.864  0.1401 -0.1223  0.0308
   22CHL1  H19C 1597   5.726   5.839   9.965  2.2047  1.2144 -1.3580
   22CHL1    C1 1598   5.430   5.772   9.988 -0.1319  0.7338  0.4719
   22CHL1   H1A 1599   5.408   5.873   9.946 -1.0557  0.0235 -0.8175
   22CHL1   H1B 1600   5.342   5.705   9.974 -1.3716  2.1684  1.2382
   22CHL1    C2 1601   5.461   5.796  10.137 -0.0740  0.1350  0.4715
   22CHL1   H2A 1602   5.372   5.816  10.201  0.1659 -2.2993  1.6170
   22CHL1   H2B 1603   5.534   5.877  10.159 -0.6609  1.6163 -2.7570
   22CHL1   C20 1604   5.363   5.597   9.218 -1.0336  0.6429  0.0335
   22CHL1   H20 1605   5.452   5.638   9.166 -1.2664 -0.5160 -1.3145
   22CHL1   C21 1606   5.261   5.714   9.230  0.1022  0.0669 -0.1629
   22CHL1  H21A 1607   5.216   5.742   9.132  0.0714 -0.7735 -0.3867
   22CHL1  H21B 1608   5.315   5.807   9.261  3.7865 -2.0976  0.2012
   22CHL1  H21C 1609   5.186   5.692   9.309 -0.1516 -0.4343 -0.5421
   22CHL1   C22 1610   5.306   5.496   9.114  1.0888  0.6691  0.2847
   22CHL1  H22A 1611   5.370   5.405   9.127 -1.7461 -1.5910 -1.1309
   22CHL1  H22B 1612   5.203   5.468   9.143  1.0867  1.0722  0.6633
   22CHL1   C23 1613   5.292   5.553   8.973  0.6413  0.4460  0.3070
   22CHL1  H23A 1614   5.232   5.646   8.967 -0.7481 -0.4026  0.8146
   22CHL1  H23B 1615   5.396   5.565   8.935  0.0410  0.5957 -1.3009
   22CHL1   C24 1616   5.214   5.452   8.884 -0.2203 -0.1699  0.9254
   22CHL1  H24A 1617   5.246   5.346   8.878 -1.6176 -0.4899 -2.3478
   22CHL1  H24B 1618   5.108   5.451   8.919 -0.0594  0.4673  1.4414
   22CHL1   C25 1619   5.184   5.486   8.731 -0.6901  0.2818  0.7853
   22CHL1   H25 1620   5.116   5.573   8.719 -0.8861 -0.1443 -1.4353
   22CHL1   C26 1621   5.311   5.498   8.660  0.1681  0.5197  0.5016
   22CHL1  H26A 1622   5.375   5.408   8.670 -0.1409  0.2483  0.0397
   22CHL1  H26B 1623   5.284   5.508   8.553 -1.5708 -2.9810  0.5654
   22CHL1  H26C 1624   5.365   5.588   8.699  1.8381  0.0449 -0.6286
   22CHL1   C27 1625   5.098   5.368   8.670  0.3589 -0.0689 -0.2204
   22CHL1  H27A 1626   5.011   5.357   8.738  1.0594  1.1889  0.8969
   22CHL1  H27B 1627   5.047   5.397   8.576  0.4337  2.1472  0.3867
   22CHL1  H27C 1628   5.167   5.284   8.649 -0.3204 -0.6601 -0.0881
   23CHL1    C3 1629   1.657   0.520  10.260  0.2344 -0.1183  0.2049
   23CHL1    H3 1630   1.759   0.561  10.241  0.7545 -1.5740 -0.1721
   23CHL1    O3 1631   1.663   0.518  10.402 -0.2629  0.0510  0.0542
   23CHL1   H3' 1632   1.577   0.489  10.432  0.2873  0.5396  2.1789
   23CHL1    C4 1633   1.545   0.605  10.225  0.0226 -0.2101  0.2444
   23CHL1   H4A 1634   1.449   0.561  10.262 -1.3488  2.6926  0.2979
   23CHL1   H4B 1635   1.572   0.701  10.274 -1.6383  0.5481 -0.3059
   23CHL1    C5 1636   1.536   0.629  10.076  0.4302  0.2776 -0.5678
   23CHL1    C6 1637   1.559   0.744  10.014  0.2337  0.2750  0.5927
   23CHL1    H6 1638   1.559   0.834  10.077 -0.1819 -0.3999  1.5640
   23CHL1    C7 1639   1.552   0.768   9.867  0.1237  0.5385  1.1619
   23CHL1   H7A 1640   1.489   0.856   9.839 -0.5269 -0.5385 -0.8744
   23CHL1   H7B 1641   1.653   0.793   9.827 -0.8889 -1.8546 -3.2429
   23CHL1    C8 1642   1.494   0.657   9.785  0.5657 -0.2541 -0.6217
   23CHL1    H8 1643   1.384   0.645   9.780  0.4975 -0.1120  0.3897
   23CHL1   C14 1644   1.544   0.663   9.643 -0.2217  0.5654  0.8052
   23CHL1   H14 1645   1.653   0.651   9.660 -0.1747  1.6989  1.3283
   23CHL1   C15 1646   1.536   0.796   9.566 -0.1337  0.0257  0.2647
   23CHL1  H15A 1647   1.436   0.842   9.578  0.3113  0.5797  1.9564
   23CHL1  H15B 1648   1.623   0.852   9.609  1.9154 -2.8535  0.0266
   23CHL1   C16 1649   1.556   0.752   9.425 -0.1204  0.1525  0.0208
   23CHL1  H16A 1650   1.463   0.784   9.374 -0.1847  0.8764  0.5888
   23CHL1  H16B 1651   1.643   0.806   9.381  0.3641 -1.5291 -1.1395
   23CHL1   C17 1652   1.564   0.597   9.422  0.7112 -0.4998 -0.0338
   23CHL1   H17 1653   1.672   0.572   9.433  1.1551  1.3819  0.0938
   23CHL1   C13 1654   1.492   0.553   9.552  0.6540 -0.2096  0.5060
   23CHL1   C18 1655   1.337   0.559   9.528  0.7407 -0.4501 -0.3109
   23CHL1  H18A 1656   1.309   0.475   9.461  1.4454 -1.8258  1.0912
   23CHL1  H18B 1657   1.287   0.542   9.626 -0.2626  0.2060 -0.7013
   23CHL1  H18C 1658   1.301   0.655   9.485 -0.6353  0.5845  2.9980
   23CHL1   C12 1659   1.543   0.419   9.610  0.1067 -0.1156 -0.5922
   23CHL1  H12A 1660   1.522   0.334   9.542  1.3649 -0.0329 -1.0934
   23CHL1  H12B 1661   1.654   0.422   9.622  0.2036  2.1576 -1.6457
   23CHL1   C11 1662   1.487   0.403   9.753  0.7061 -0.2216  0.2332
   23CHL1  H11A 1663   1.376   0.392   9.754  0.7883 -1.0794  2.5741
   23CHL1  H11B 1664   1.532   0.311   9.795  2.1470  1.3454  2.2140
   23CHL1    C9 1665   1.537   0.519   9.843 -0.0020  0.4622 -0.0483
   23CHL1    H9 1666   1.647   0.521   9.829 -0.3736  1.1592 -3.1155
   23CHL1   C10 1667   1.518   0.499   9.995  0.1710  0.2553 -0.4080
   23CHL1   C19 1668   1.375   0.459  10.017 -0.1357  0.1261  0.8424
   23CHL1  H19A 1669   1.354   0.360   9.970 -1.6393  1.8655 -2.3680
   23CHL1  H19B 1670   1.354   0.435  10.123 -1.4197  0.8234  0.7615
   23CHL1  H19C 1671   1.298   0.536   9.993 -0.5615  0.1265  2.1968
   23CHL1    C1 1672   1.611   0.383  10.040  0.2139 -0.1190 -0.0382
   23CHL1   H1A 1673   1.581   0.282  10.006  1.5662 -0.8632  0.9155
   23CHL1   H1B 1674   1.708   0.417   9.996  0.4246 -0.8992 -0.1714
   23CHL1    C2 1675   1.633   0.379  10.194 -0.1114  0.0304  0.0832
   23CHL1   H2A 1676   1.722   0.317  10.220 -0.0950 -1.0068 -2.3068
   23CHL1   H2B 1677   1.546   0.332  10.245 -0.2115 -0.9464 -0.9530
   23CHL1   C20 1678   1.509   0.546   9.290 -0.3832 -0.0188  0.3011
   23CHL1   H20 1679   1.399   0.554   9.283 -0.5690 -1.1207  1.7329
   23CHL1   C21 1680   1.562   0.402   9.266 -0.7806 -0.0737  0.5765
   23CHL1  H21A 1681   1.547   0.358   9.165 -0.1167 -0.0478  0.4695
   23CHL1  H21B 1682   1.507   0.328   9.329 -2.5432 -0.5120 -1.3844
   23CHL1  H21C 1683   1.672   0.414   9.271 -0.7795 -0.2415  0.9956
   23CHL1   C22 1684   1.545   0.632   9.167  0.3772  0.1589 -0.2757
   23CHL1  H22A 1685   1.479   0.721   9.172  0.8153  0.4813 -0.1940
   23CHL1  H22B 1686   1.651   0.667   9.175  0.2387  0.1830  1.9196
   23CHL1   C23 1687   1.511   0.567   9.028 -0.1170  0.0240 -0.1098
   23CHL1  H23A 1688   1.586   0.489   9.003  1.2804  2.0150 -2.4443
   23CHL1  H23B 1689   1.411   0.520   9.027  0.2599 -0.9914  3.4893
   23CHL1   C24 1690   1.522   0.657   8.902 -0.3221  0.6028  0.5810
   23CHL1  H24A 1691   1.424   0.708   8.893 -0.8157 -0.7670 -2.6762
   23CHL1  H24B 1692   1.598   0.737   8.910 -0.5929  0.8340  0.8258
   23CHL1   C25 1693   1.539   0.588   8.763  0.0049 -0.3764 -0.4541
   23CHL1   H25 1694   1.629   0.525   8.775  0.2148 -0.0853 -0.4977
   23CHL1   C26 1695   1.411   0.500   8.728 -0.3648 -0.0364 -0.0923
   23CHL1  H26A 1696   1.422   0.445   8.632  1.8992  1.2771 -0.6064
   23CHL1  H26B 1697   1.398   0.419   8.803  1.2582  0.0696  0.3135
   23CHL1  H26C 1698   1.321   0.565   8.734 -1.4366 -1.3563 -1.4677
   23CHL1   C27 1699   1.557   0.688   8.645 -0.4756 -0.1251  0.1438
   23CHL1  H27A 1700   1.585   0.630   8.555  1.7191 -1.0141  1.3551
   23CHL1  H27B 1701   1.464   0.748   8.629 -0.3266  0.3345  0.9356
   23CHL1  H27C 1702   1.636   0.764   8.664  1.7913 -2.1410 -0.9474
   24CHL1    C3 1703   3.341   1.588  10.067  0.3528  0.2035  0.2882
   24CHL1    H3 1704   3.274   1.674  10.090  0.8098 -0.0739  2.7253
   24CHL1    O3 1705   3.387   1.531  10.187  0.2598 -0.7394 -0.2620
   24CHL1   H3' 1706   3.310   1.493  10.232 -0.2342  1.9041  1.2305
   24CHL1    C4 1707   3.258   1.487   9.980 -0.7040 -0.6616  0.0109
   24CHL1   H4A 1708   3.322   1.396   9.977 -0.0855 -0.3440  2.4764
   24CHL1   H4B 1709   3.168   1.464  10.040 -2.1412  0.0591 -1.7920
   24CHL1    C5 1710   3.234   1.530   9.835  0.5923 -0.0017  0.4263
   24CHL1    C6 1711   3.107   1.514   9.786 -0.0197 -0.6505  0.4657
   24CHL1    H6 1712   3.030   1.477   9.855 -0.7654 -3.5805 -1.8203
   24CHL1    C7 1713   3.073   1.544   9.641 -0.6149 -0.2923 -0.1428
   24CHL1   H7A 1714   3.009   1.461   9.604 -0.5460 -0.2438 -0.3697
   24CHL1   H7B 1715   3.013   1.637   9.632 -1.3000 -0.5086  1.9332
   24CHL1    C8 1716   3.200   1.555   9.550  0.3366  0.7564  0.0142
   24CHL1    H8 1717   3.240   1.452   9.534  0.3820  0.9394 -1.0833
   24CHL1   C14 1718   3.172   1.620   9.410 -0.0121 -0.1068 -0.2381
   24CHL1   H14 1719   3.144   1.722   9.443  1.2750 -0.2753  1.3983
   24CHL1   C15 1720   3.058   1.566   9.333  0.6868  0.6549  0.2513
   24CHL1  H15A 1721   3.068   1.457   9.317  0.6278  0.5139  1.1562
   24CHL1  H15B 1722   2.963   1.578   9.388 -0.1490  0.2438 -1.0763
   24CHL1   C16 1723   3.074   1.625   9.199 -0.1910 -0.4247  0.0477
   24CHL1  H16A 1724   3.064   1.556   9.113 -0.5725 -0.6799  0.2937
   24CHL1  H16B 1725   3.009   1.714   9.178  1.5480  0.5292 -1.4235
   24CHL1   C17 1726   3.215   1.699   9.188 -0.0602  0.1982  0.0860
   24CHL1   H17 1727   3.197   1.805   9.217 -1.3905  0.3751 -1.2877
   24CHL1   C13 1728   3.288   1.635   9.308  0.6731  0.4496  0.2081
   24CHL1   C18 1729   3.342   1.501   9.263  0.3489 -0.1860  0.0233
   24CHL1  H18A 1730   3.425   1.516   9.190  2.4255 -3.5001  1.5887
   24CHL1  H18B 1731   3.386   1.442   9.346 -2.4798 -0.9829  1.0290
   24CHL1  H18C 1732   3.269   1.436   9.210 -0.3473  1.3328 -0.9162
   24CHL1   C12 1733   3.390   1.719   9.384 -0.2490  0.1606 -0.5009
   24CHL1  H12A 1734   3.485   1.739   9.329  1.6012 -1.5158  1.9541
   24CHL1  H12B 1735   3.338   1.814   9.409 -2.5080 -1.0719 -0.4208
   24CHL1   C11 1736   3.434   1.657   9.517 -0.4528 -0.2599  0.3391
   24CHL1  H11A 1737   3.485   1.560   9.495  1.5294  0.7425  0.4014
   24CHL1  H11B 1738   3.503   1.726   9.570 -1.5189 -1.0153  2.7666
   24CHL1    C9 1739   3.318   1.639   9.619 -0.5822 -0.1636 -0.4686
   24CHL1    H9 1740   3.283   1.741   9.643  0.8977 -0.4493  3.2868
   24CHL1   C10 1741   3.355   1.582   9.750 -0.8063  1.4913 -1.0102
   24CHL1   C19 1742   3.445   1.461   9.726  0.7875 -0.5103  0.3556
   24CHL1  H19A 1743   3.413   1.398   9.640  0.9482  2.1603 -1.7418
   24CHL1  H19B 1744   3.545   1.499   9.695 -0.7939  1.8176 -2.1016
   24CHL1  H19C 1745   3.455   1.399   9.817  0.1785 -1.1226  0.0101
   24CHL1    C1 1746   3.428   1.687   9.839  0.5768 -0.0768 -0.1821
   24CHL1   H1A 1747   3.520   1.721   9.787  1.9232  0.8350  2.7044
   24CHL1   H1B 1748   3.357   1.772   9.849 -0.8687 -1.3504  0.7059
   24CHL1    C2 1749   3.462   1.644   9.985  0.5405 -0.4426  0.2385
   24CHL1   H2A 1750   3.510   1.728  10.040  1.6071 -0.7896 -0.1604
   24CHL1   H2B 1751   3.541   1.567   9.976 -0.5227 -1.9550  3.2541
   24CHL1   C20 1752   3.275   1.697   9.045 -0.2823  0.7273 -0.1297
   24CHL1   H20 1753   3.294   1.594   9.009 -3.8284  0.1383 -0.5146
   24CHL1   C21 1754   3.407   1.780   9.051  0.1290 -0.4474  0.3435
   24CHL1  H21A 1755   3.399   1.851   9.136 -0.0317  2.0988 -1.7579
   24CHL1  H21B 1756   3.430   1.837   8.959  1.9184  0.2591  1.2028
   24CHL1  H21C 1757   3.497   1.717   9.065 -0.7373 -1.3809  1.8754
   24CHL1   C22 1758   3.183   1.772   8.954 -0.0827  0.3488  0.7520
   24CHL1  H22A 1759   3.084   1.722   8.961  0.4596 -0.9298 -0.4805
   24CHL1  H22B 1760   3.176   1.880   8.979  1.8962  0.3862  1.2314
   24CHL1   C23 1761   3.219   1.763   8.800 -0.6474  0.2299 -0.1038
   24CHL1  H23A 1762   3.297   1.837   8.772 -1.4710  1.2747  0.3655
   24CHL1  H23B 1763   3.258   1.660   8.781 -2.7848 -0.6892  0.3192
   24CHL1   C24 1764   3.105   1.792   8.703  0.0854  0.0966  0.1224
   24CHL1  H24A 1765   3.028   1.713   8.701 -0.4061  0.5709  0.2704
   24CHL1  H24B 1766   3.063   1.890   8.735  0.9754  1.5847 -3.0185
   24CHL1   C25 1767   3.135   1.808   8.548  0.0925  0.4329 -0.5229
   24CHL1   H25 1768   3.220   1.879   8.541 -0.4519  0.8490 -4.2807
   24CHL1   C26 1769   3.191   1.669   8.483 -0.3149  0.3763  0.3265
   24CHL1  H26A 1770   3.240   1.687   8.385 -1.2829 -1.5148 -0.5328
   24CHL1  H26B 1771   3.261   1.614   8.550 -0.0541 -0.2052 -0.4203
   24CHL1  H26C 1772   3.095   1.615   8.464 -0.6745  0.7660  1.0159
   24CHL1   C27 1773   3.021   1.869   8.471 -0.6198 -0.3462 -0.5197
   24CHL1  H27A 1774   2.994   1.973   8.499  0.6591 -0.4790  1.2338
   24CHL1  H27B 1775   3.045   1.869   8.362 -0.2595  3.4099 -0.4869
   24CHL1  H27C 1776   2.929   1.810   8.491 -0.5966 -0.4045 -0.5815
   25CHL1    C3 1777   4.721   2.789  10.465 -0.7278  0.1098  0.3167
   25CHL1    H3 1778   4.702   2.895  10.491  1.1410  0.2912  0.9889
   25CHL1    O3 1779   4.770   2.734  10.590  0.3262  0.1789  0.1762
   25CHL1   H3' 1780   4.799   2.646  10.564  0.1649  0.1326  0.1536
   25CHL1    C4 1781   4.598   2.714  10.416 -0.0327  0.0716 -0.4300
   25CHL1   H4A 1782   4.621   2.605  10.412  0.5744  0.2267 -1.2103
   25CHL1   H4B 1783   4.516   2.724  10.491 -1.5473  0.8150 -2.1641
   25CHL1    C5 1784   4.550   2.778  10.287 -0.2030 -0.6586 -0.3226
   25CHL1    C6 1785   4.427   2.824  10.266 -0.1724 -0.2730  0.4637
   25CHL1    H6 1786   4.351   2.805  10.344 -1.7024  1.4507 -0.5693
   25CHL1    C7 1787   4.379   2.872  10.130 -0.7182 -0.0796 -0.8403
   25CHL1   H7A 1788   4.273   2.848  10.109 -1.0668  0.2950  0.4530
   25CHL1   H7B 1789   4.388   2.983  10.130  0.6797 -0.1769 -0.3879
   25CHL1    C8 1790   4.455   2.807  10.012  0.4054 -0.2003 -0.0718
   25CHL1    H8 1791   4.447   2.697  10.022  1.4578 -0.2008  0.8323
   25CHL1   C14 1792   4.409   2.865   9.879 -0.1720 -0.4338  0.0562
   25CHL1   H14 1793   4.435   2.972   9.893  1.8825 -1.1740  2.3139
   25CHL1   C15 1794   4.260   2.878   9.838  0.1451  0.1405  0.3154
   25CHL1  H15A 1795   4.198   2.786   9.846 -2.0151  1.2189 -3.0535
   25CHL1  H15B 1796   4.205   2.959   9.891 -1.9054 -0.2984 -1.0629
   25CHL1   C16 1797   4.272   2.922   9.691  1.1233 -0.8610  0.4434
   25CHL1  H16A 1798   4.205   2.866   9.623  0.9062  0.1994 -0.2110
   25CHL1  H16B 1799   4.228   3.024   9.696 -1.7697 -2.0847  1.2149
   25CHL1   C17 1800   4.425   2.914   9.654  1.1067 -0.9996 -0.4661
   25CHL1   H17 1801   4.468   3.015   9.668 -2.3892  0.4346  0.2029
   25CHL1   C13 1802   4.490   2.820   9.752  0.4722  0.2256  0.5753
   25CHL1   C18 1803   4.463   2.670   9.721  0.3242 -0.5273  0.0552
   25CHL1  H18A 1804   4.357   2.667   9.688 -0.2133 -1.3472  1.7614
   25CHL1  H18B 1805   4.517   2.639   9.630  1.5065  1.5496  0.0310
   25CHL1  H18C 1806   4.496   2.597   9.798  1.5803  1.6091  1.6168
   25CHL1   C12 1807   4.642   2.849   9.786 -0.7655  0.3959  0.2199
   25CHL1  H12A 1808   4.709   2.799   9.713 -2.5747  0.0920 -1.2705
   25CHL1  H12B 1809   4.670   2.957   9.790 -0.4628  0.3870 -1.4186
   25CHL1   C11 1810   4.677   2.782   9.918 -0.4055  0.2772  0.2293
   25CHL1  H11A 1811   4.668   2.674   9.896  1.4115  0.7172 -3.0516
   25CHL1  H11B 1812   4.787   2.788   9.930 -0.1423 -0.8255 -1.3727
   25CHL1    C9 1813   4.603   2.825  10.042 -0.3881  0.3112  0.4188
   25CHL1    H9 1814   4.619   2.935  10.048 -0.5337  0.6069 -3.5032
   25CHL1   C10 1815   4.656   2.768  10.173 -0.1166  0.3001 -0.5883
   25CHL1   C19 1816   4.708   2.616  10.152 -0.1517 -0.2860 -0.3832
   25CHL1  H19A 1817   4.805   2.635  10.102 -0.0078 -0.0882 -0.0338
   25CHL1  H19B 1818   4.720   2.546  10.237  3.0833 -0.2166 -0.7044
   25CHL1  H19C 1819   4.634   2.566  10.086 -1.8298 -1.0552  2.0126
   25CHL1    C1 1820   4.778   2.853  10.224 -0.2927  0.4853  0.2446
   25CHL1   H1A 1821   4.849   2.875  10.141 -1.9429 -1.8582 -1.8815
   25CHL1   H1B 1822   4.739   2.957  10.227 -1.4318  0.1921 -2.2811
   25CHL1    C2 1823   4.829   2.796  10.356 -0.0794 -0.1991  0.0014
   25CHL1   H2A 1824   4.905   2.867  10.395 -0.5032  0.1016  0.2802
   25CHL1   H2B 1825   4.868   2.692  10.351 -2.7700 -1.2472  0.2499
   25CHL1   C20 1826   4.455   2.891   9.506 -0.6990 -0.4259  0.6467
   25CHL1   H20 1827   4.424   2.787   9.480 -0.1567 -0.5268  0.4037
   25CHL1   C21 1828   4.605   2.902   9.471  0.3968 -0.2022  0.5804
   25CHL1  H21A 1829   4.666   2.818   9.510 -0.8206 -0.2671  2.3660
   25CHL1  H21B 1830   4.650   2.991   9.519  1.0938  0.9120 -2.0452
   25CHL1  H21C 1831   4.621   2.906   9.361 -1.7852  1.9241  0.3004
   25CHL1   C22 1832   4.376   2.992   9.413 -0.1774 -0.2783 -0.4620
   25CHL1  H22A 1833   4.273   2.982   9.453  0.6319 -0.0236  1.7504
   25CHL1  H22B 1834   4.408   3.096   9.439 -0.2378  0.2112 -2.2483
   25CHL1   C23 1835   4.382   2.988   9.261  0.1584  0.0799  0.8040
   25CHL1  H23A 1836   4.477   3.023   9.215  1.0593 -2.2709  0.7835
   25CHL1  H23B 1837   4.392   2.882   9.227 -1.8234 -0.5763  2.1926
   25CHL1   C24 1838   4.263   3.055   9.192  0.4332 -0.3057  0.0743
   25CHL1  H24A 1839   4.170   3.025   9.246 -0.2867 -1.2150 -1.6031
   25CHL1  H24B 1840   4.249   3.165   9.201 -0.9690 -0.4931  0.3478
   25CHL1   C25 1841   4.244   3.020   9.039 -0.6983 -0.2549  0.7609
   25CHL1   H25 1842   4.276   2.914   9.029 -2.0499 -0.5429 -0.7386
   25CHL1   C26 1843   4.101   3.045   9.000 -0.0619  0.3099  0.1258
   25CHL1  H26A 1844   4.093   3.022   8.891  3.1930 -1.0006  0.0989
   25CHL1  H26B 1845   4.035   2.983   9.063  2.1803 -1.3162  0.9336
   25CHL1  H26C 1846   4.067   3.151   9.005  1.4741  0.9684 -2.0636
   25CHL1   C27 1847   4.325   3.104   8.941 -0.6987  0.0638  0.5203
   25CHL1  H27A 1848   4.275   3.202   8.926  1.3150  0.9482 -0.5184
   25CHL1  H27B 1849   4.430   3.116   8.975 -0.3338 -2.3253  0.3373
   25CHL1  H27C 1850   4.330   3.054   8.842 -0.9225  3.8106 -1.4353
   26CHL1    C3 1851   6.303   5.604  10.251 -0.1636 -0.1091  0.4251
   26CHL1    H3 1852   6.385   5.538  10.214  0.8966  2.6646 -2.3622
   26CHL1    O3 1853   6.299   5.645  10.389 -0.2127 -0.0328  0.7753
   26CHL1   H3' 1854   6.380   5.693  10.409  0.5653 -0.6350 -0.7822
   26CHL1    C4 1855   6.293   5.732  10.169  0.0155  0.4156 -0.4756
   26CHL1   H4A 1856   6.212   5.796  10.210  0.9788  0.5939  1.2122
   26CHL1   H4B 1857   6.388   5.787  10.191  0.8087 -0.1859 -2.2896
   26CHL1    C5 1858   6.272   5.694  10.023 -0.5578  0.0972  0.4899
   26CHL1    C6 1859   6.352   5.738   9.923  0.1617 -0.0692 -0.7538
   26CHL1    H6 1860   6.430   5.814   9.939 -1.0092  0.9410  0.2177
   26CHL1    C7 1861   6.339   5.709   9.779  0.0365  0.7997 -0.3746
   26CHL1   H7A 1862   6.369   5.787   9.706 -1.4576 -0.3565 -2.2615
   26CHL1   H7B 1863   6.401   5.618   9.763  1.0519  1.2285  1.0149
   26CHL1    C8 1864   6.192   5.669   9.733 -0.5079  0.4235 -0.5715
   26CHL1    H8 1865   6.135   5.764   9.746  2.3375  1.8331  2.3677
   26CHL1   C14 1866   6.190   5.595   9.590 -0.9320 -0.5260  0.0921
   26CHL1   H14 1867   6.250   5.502   9.604  0.8475  0.2832 -1.9459
   26CHL1   C15 1868   6.254   5.673   9.480  0.2612  0.8503 -0.7257
   26CHL1  H15A 1869   6.241   5.782   9.491 -0.7364  0.6479  0.1789
   26CHL1  H15B 1870   6.363   5.653   9.469  0.2370 -0.7567  1.5780
   26CHL1   C16 1871   6.179   5.628   9.354  0.0429  0.5158 -0.4931
   26CHL1  H16A 1872   6.128   5.709   9.297 -1.1455 -1.3801 -2.1991
   26CHL1  H16B 1873   6.246   5.583   9.278  1.8186 -0.9281  1.8338
   26CHL1   C17 1874   6.085   5.517   9.401  0.2984  0.3158 -0.4814
   26CHL1   H17 1875   6.156   5.431   9.410  1.0774  0.8494 -1.4421
   26CHL1   C13 1876   6.048   5.563   9.543  0.3867 -0.7389  0.7899
   26CHL1   C18 1877   5.956   5.686   9.530 -0.4283  0.2413  0.0316
   26CHL1  H18A 1878   5.989   5.758   9.452 -2.3721 -0.0230 -1.0622
   26CHL1  H18B 1879   5.855   5.656   9.494 -0.8141  2.6870 -1.0182
   26CHL1  H18C 1880   5.966   5.742   9.625 -1.8646 -1.1301  1.0033
   26CHL1   C12 1881   5.993   5.461   9.642  0.2831 -0.4820 -0.0971
   26CHL1  H12A 1882   5.890   5.441   9.605 -0.5970  2.0434  0.8818
   26CHL1  H12B 1883   6.041   5.361   9.644  0.8798 -0.1719  2.0040
   26CHL1   C11 1884   5.992   5.514   9.788 -1.0198  0.0836 -0.7546
   26CHL1  H11A 1885   5.922   5.599   9.795 -0.5210  0.5151 -0.9306
   26CHL1  H11B 1886   5.965   5.432   9.857  1.2047  0.0788  0.1454
   26CHL1    C9 1887   6.136   5.569   9.834  0.5162  0.6048 -0.2481
   26CHL1    H9 1888   6.209   5.487   9.817 -0.2110 -0.0431 -0.2693
   26CHL1   C10 1889   6.145   5.617   9.988  0.1354 -0.1521  0.7271
   26CHL1   C19 1890   6.013   5.696  10.020 -0.6776  0.2449 -0.1321
   26CHL1  H19A 1891   6.013   5.734  10.124  0.3707 -2.5045  0.9178
   26CHL1  H19B 1892   6.010   5.787   9.956 -1.3800  1.1181  1.1168
   26CHL1  H19C 1893   5.923   5.634  10.003 -0.2591 -0.8521  1.5260
   26CHL1    C1 1894   6.146   5.485  10.068  0.1558  0.3635 -0.4983
   26CHL1   H1A 1895   6.045   5.441  10.059 -0.3659  0.7310  2.7553
   26CHL1   H1B 1896   6.226   5.414  10.038  0.8083  0.5960  0.6508
   26CHL1    C2 1897   6.170   5.516  10.219 -0.1809 -0.0218 -0.5796
   26CHL1   H2A 1898   6.185   5.425  10.282 -0.4188 -0.8333 -1.6843
   26CHL1   H2B 1899   6.084   5.565  10.270  0.5431  0.1147  0.5325
   26CHL1   C20 1900   5.972   5.477   9.305 -0.2721  0.2273  0.5396
   26CHL1   H20 1901   5.885   5.546   9.317  0.1934  1.1922 -1.3582
   26CHL1   C21 1902   5.923   5.341   9.337 -0.2324  0.2524 -0.3048
   26CHL1  H21A 1903   5.821   5.317   9.300 -0.6593 -0.3549  1.2244
   26CHL1  H21B 1904   5.920   5.311   9.444  1.3930 -0.3062 -0.3964
   26CHL1  H21C 1905   5.993   5.264   9.297  0.4909  0.7681 -0.0511
   26CHL1   C22 1906   6.008   5.491   9.152  0.3554  0.7961 -0.4333
   26CHL1  H22A 1907   6.073   5.579   9.132 -0.1142  0.4911 -3.4804
   26CHL1  H22B 1908   6.069   5.400   9.135 -1.6602 -0.4279 -1.2393
   26CHL1   C23 1909   5.892   5.481   9.048 -0.7195  0.1739  0.8437
   26CHL1  H23A 1910   5.836   5.391   9.082 -0.0125  0.6973  3.4613
   26CHL1  H23B 1911   5.815   5.559   9.066 -1.5865 -0.7737  1.3184
   26CHL1   C24 1912   5.937   5.482   8.900  0.8373  0.3967 -0.2326
   26CHL1  H24A 1913   5.950   5.588   8.868  1.3618  0.1352 -0.8721
   26CHL1  H24B 1914   6.033   5.430   8.883 -0.8679 -2.3738 -1.8314
   26CHL1   C25 1915   5.820   5.426   8.819  0.5066  0.1743 -0.3205
   26CHL1   H25 1916   5.818   5.320   8.851  0.3993  0.3502  0.2524
   26CHL1   C26 1917   5.683   5.488   8.848 -0.1875 -0.3826  0.2819
   26CHL1  H26A 1918   5.637   5.450   8.942 -3.1641  1.9039 -0.2021
   26CHL1  H26B 1919   5.680   5.597   8.828 -2.7973 -0.6665 -1.1429
   26CHL1  H26C 1920   5.615   5.446   8.771 -1.3786 -0.1221  1.1759
   26CHL1   C27 1921   5.852   5.439   8.665  0.0536  0.5125 -0.3673
   26CHL1  H27A 1922   5.776   5.378   8.611 -0.0525 -0.0306  0.3929
   26CHL1  H27B 1923   5.843   5.544   8.629  0.2639  1.0602  1.1492
   26CHL1  H27C 1924   5.952   5.403   8.633  0.3727 -0.5502  1.7648
   27CHL1    C3 1925   5.255   2.865  10.282  0.4767 -0.1115 -0.4548
   27CHL1    H3 1926   5.165   2.930  10.276 -0.7235 -1.6274  0.5832
   27CHL1    O3 1927   5.285   2.817  10.418  0.4604  0.6547  0.0087
   27CHL1   H3' 1928   5.288   2.894  10.475 -0.9544 -0.0317  1.0464
   27CHL1    C4 1929   5.221   2.741  10.201 -0.1677 -0.0467 -0.3278
   27CHL1   H4A 1930   5.305   2.671  10.219  1.6072  2.7472  2.9637
   27CHL1   H4B 1931   5.132   2.694  10.246 -0.0904  0.2743  0.1616
   27CHL1    C5 1932   5.203   2.786  10.055 -0.3380  0.3833 -0.2029
   27CHL1    C6 1933   5.092   2.758   9.996  0.4706  0.4945  1.0337
   27CHL1    H6 1934   5.022   2.698  10.056  1.3838 -1.4277  0.2130
   27CHL1    C7 1935   5.066   2.783   9.849  0.2598 -0.2646  0.3813
   27CHL1   H7A 1936   5.015   2.701   9.795 -2.0405  1.8661 -0.7361
   27CHL1   H7B 1937   5.005   2.873   9.829  0.3357 -0.2535  0.2028
   27CHL1    C8 1938   5.197   2.821   9.773 -0.0505 -0.3737  0.1964
   27CHL1    H8 1939   5.251   2.725   9.754 -1.1192 -0.8356 -0.5841
   27CHL1   C14 1940   5.167   2.881   9.628 -0.2555  0.2437 -0.0710
   27CHL1   H14 1941   5.105   2.970   9.656  1.1486  1.1603  0.1679
   27CHL1   C15 1942   5.076   2.800   9.526  0.1094  0.2182 -0.6221
   27CHL1  H15A 1943   5.120   2.699   9.517  0.8642  0.5717 -1.0479
   27CHL1  H15B 1944   4.971   2.801   9.562 -0.4903  0.6825 -2.3454
   27CHL1   C16 1945   5.100   2.870   9.395 -0.0793 -0.5001  0.1276
   27CHL1  H16A 1946   5.134   2.805   9.313  0.9982 -0.6604  0.6937
   27CHL1  H16B 1947   5.006   2.921   9.364  2.3740  3.1624 -1.7098
   27CHL1   C17 1948   5.207   2.980   9.418  0.3979  0.4512 -0.9152
   27CHL1   H17 1949   5.162   3.075   9.452 -1.0901 -0.7715  0.6235
   27CHL1   C13 1950   5.287   2.935   9.553  1.5454  0.3606  0.3374
   27CHL1   C18 1951   5.382   2.816   9.526 -0.3069 -0.1336 -0.0597
   27CHL1  H18A 1952   5.337   2.737   9.462  0.4113 -0.6271  0.0356
   27CHL1  H18B 1953   5.478   2.856   9.487 -0.2036  1.0455  1.3518
   27CHL1  H18C 1954   5.406   2.768   9.623 -1.8188 -2.8013 -0.9629
   27CHL1   C12 1955   5.352   3.046   9.634  0.8780  0.1025  0.0114
   27CHL1  H12A 1956   5.442   3.095   9.590 -0.7157  2.4973 -0.6972
   27CHL1  H12B 1957   5.272   3.122   9.649  2.1518  1.3476  0.6670
   27CHL1   C11 1958   5.394   2.991   9.774  0.1432  0.3554  0.3270
   27CHL1  H11A 1959   5.476   2.921   9.750 -2.2700 -2.2453 -0.5120
   27CHL1  H11B 1960   5.447   3.067   9.835 -2.9379  1.1321  2.1359
   27CHL1    C9 1961   5.276   2.923   9.853  0.0493 -0.3041 -0.0552
   27CHL1    H9 1962   5.201   3.002   9.874 -0.4845 -0.1371 -2.4199
   27CHL1   C10 1963   5.315   2.869   9.993 -0.8107 -0.4840 -0.3590
   27CHL1   C19 1964   5.440   2.782   9.978 -0.8268  0.2802 -0.5507
   27CHL1  H19A 1965   5.468   2.722  10.068  0.8740  1.4737 -0.2557
   27CHL1  H19B 1966   5.423   2.721   9.886  0.3294  0.6196 -1.0016
   27CHL1  H19C 1967   5.531   2.842   9.954  0.0527 -0.3689  1.0683
   27CHL1    C1 1968   5.353   2.989  10.093 -0.3992  0.7389  0.4641
   27CHL1   H1A 1969   5.450   3.032  10.058  1.0445 -2.0166  0.9552
   27CHL1   H1B 1970   5.276   3.069  10.095 -0.3020  0.7979  1.8557
   27CHL1    C2 1971   5.375   2.951  10.237  0.3774  0.3131 -0.1448
   27CHL1   H2A 1972   5.382   3.038  10.307  2.4340 -1.6916  2.2462
   27CHL1   H2B 1973   5.472   2.897  10.246  0.3469  0.2100 -0.4428
   27CHL1   C20 1974   5.294   3.011   9.285 -0.4352  0.0119 -0.0117
   27CHL1   H20 1975   5.338   2.912   9.261 -0.1408  0.5240 -1.6734
   27CHL1   C21 1976   5.413   3.101   9.326  0.0928  0.0527 -0.0693
   27CHL1  H21A 1977   5.489   3.047   9.387  0.0737 -1.1674 -1.1175
   27CHL1  H21B 1978   5.379   3.193   9.377 -0.3534 -0.3797  0.4288
   27CHL1  H21C 1979   5.469   3.126   9.233 -2.1812 -0.5952 -1.6534
   27CHL1   C22 1980   5.208   3.062   9.160 -0.2557  1.1096 -0.8502
   27CHL1  H22A 1981   5.121   2.997   9.140  1.2301 -0.6163 -1.8521
   27CHL1  H22B 1982   5.166   3.163   9.180 -0.3020  0.9587 -0.1686
   27CHL1   C23 1983   5.279   3.076   9.025  0.3902 -0.2295  0.1600
   27CHL1  H23A 1984   5.350   3.161   9.035 -0.0742 -0.0617  2.3802
   27CHL1  H23B 1985   5.327   2.977   9.017 -0.4325 -0.6511  0.3707
   27CHL1   C24 1986   5.179   3.112   8.920  0.2783 -0.3039  0.5103
   27CHL1  H24A 1987   5.137   3.012   8.895 -1.5203  0.5400  0.0828
   27CHL1  H24B 1988   5.096   3.176   8.957  0.6476  0.8022 -0.5715
   27CHL1   C25 1989   5.234   3.176   8.797 -0.3956 -0.2024  0.4142
   27CHL1   H25 1990   5.295   3.267   8.819 -0.1808 -0.4953  1.0302
   27CHL1   C26 1991   5.328   3.076   8.712  0.3719  0.3582 -0.8563
   27CHL1  H26A 1992   5.379   3.124   8.626  2.1089  2.1801  1.1371
   27CHL1  H26B 1993   5.396   3.025   8.782  0.6722  2.7502  0.6399
   27CHL1  H26C 1994   5.268   2.999   8.658 -0.0890 -0.0029  0.1687
   27CHL1   C27 1995   5.117   3.218   8.711  0.2661 -0.0249 -0.2579
   27CHL1  H27A 1996   5.037   3.142   8.720 -0.5543  0.9656  0.9364
   27CHL1  H27B 1997   5.076   3.310   8.759  0.5875  0.4796 -0.9394
   27CHL1  H27C 1998   5.146   3.226   8.604 -0.8342 -0.5965 -0.6071
   28CHL1    C3 1999   4.576   1.200  10.136 -0.0759  0.9097  0.7594
   28CHL1    H3 2000   4.489   1.250  10.087  1.2693  2.3608 -0.1608
   28CHL1    O3 2001   4.558   1.201  10.279  0.7288 -0.4193 -0.2540
   28CHL1   H3' 2002   4.646   1.189  10.315  1.5507 -0.3158 -2.1731
   28CHL1    C4 2003   4.592   1.054  10.098 -0.3612  0.4150  0.8916
   28CHL1   H4A 2004   4.669   1.016  10.167 -1.5601  0.7342  2.4204
   28CHL1   H4B 2005   4.495   1.004  10.119 -0.6955 -1.0711 -3.6119
   28CHL1    C5 2006   4.635   1.052   9.947  0.5406  0.0031 -0.0279
   28CHL1    C6 2007   4.559   0.990   9.860 -0.1904  0.2973  0.4697
   28CHL1    H6 2008   4.471   0.934   9.896 -0.7182 -1.4374 -3.3015
   28CHL1    C7 2009   4.591   0.972   9.712 -0.1033  0.2944 -0.4250
   28CHL1   H7A 2010   4.575   0.868   9.677  0.4015 -0.6238  1.9593
   28CHL1   H7B 2011   4.511   1.030   9.660 -0.4214  1.4625  1.3048
   28CHL1    C8 2012   4.739   0.997   9.675  0.5307 -0.3740  0.1566
   28CHL1    H8 2013   4.805   0.918   9.714 -1.1376 -1.5129  0.7365
   28CHL1   C14 2014   4.755   1.001   9.521 -0.2748  0.1767 -0.2224
   28CHL1   H14 2015   4.688   1.080   9.480 -1.4489  0.7768  2.7903
   28CHL1   C15 2016   4.724   0.880   9.441 -0.3950  0.0637 -0.0332
   28CHL1  H15A 2017   4.773   0.792   9.489  2.6262  1.0720 -1.1279
   28CHL1  H15B 2018   4.614   0.867   9.439 -0.0727 -3.0258  0.6687
   28CHL1   C16 2019   4.796   0.906   9.308  0.4136  0.1920  0.3569
   28CHL1  H16A 2020   4.859   0.817   9.289 -0.3023 -0.3245  0.3990
   28CHL1  H16B 2021   4.726   0.918   9.222  1.5887 -0.5241 -0.7186
   28CHL1   C17 2022   4.884   1.035   9.328  0.0728 -0.2655  0.0792
   28CHL1   H17 2023   4.815   1.117   9.298 -0.4043 -1.1220 -1.2007
   28CHL1   C13 2024   4.899   1.042   9.478 -0.4096  0.8163 -0.6384
   28CHL1   C18 2025   5.003   0.932   9.525 -0.3281  0.6925  0.5155
   28CHL1  H18A 2026   5.107   0.957   9.498  0.5037 -0.6772  2.2842
   28CHL1  H18B 2027   5.007   0.916   9.635 -1.6221  0.8332  0.5929
   28CHL1  H18C 2028   4.970   0.833   9.487 -0.8723  0.7242  0.8946
   28CHL1   C12 2029   4.931   1.178   9.540  0.3158 -0.6024  0.4630
   28CHL1  H12A 2030   5.037   1.206   9.522  0.0031 -0.0435 -0.5338
   28CHL1  H12B 2031   4.858   1.252   9.502 -0.0391 -1.8446 -1.3129
   28CHL1   C11 2032   4.918   1.177   9.694  0.4929  0.4727 -0.1023
   28CHL1  H11A 2033   4.987   1.095   9.722  0.6737  0.0044 -1.8335
   28CHL1  H11B 2034   4.958   1.270   9.739  2.4467 -2.6244  4.9074
   28CHL1    C9 2035   4.780   1.122   9.742 -0.8244 -0.0645  0.0826
   28CHL1    H9 2036   4.710   1.201   9.708  0.1889  0.0633 -1.7659
   28CHL1   C10 2037   4.762   1.120   9.902  0.4702 -1.0354  1.0971
   28CHL1   C19 2038   4.878   1.046   9.977  0.0545  0.4178  0.3908
   28CHL1  H19A 2039   4.866   1.038  10.087 -0.7006 -0.0364  0.2824
   28CHL1  H19B 2040   4.868   0.940   9.946 -0.5993  0.8503 -0.8945
   28CHL1  H19C 2041   4.983   1.075   9.955  0.2118  0.0321  0.6414
   28CHL1    C1 2042   4.755   1.270   9.955 -0.4692  0.5692 -0.6922
   28CHL1   H1A 2043   4.849   1.329   9.944  0.8201 -1.6611 -1.9031
   28CHL1   H1B 2044   4.673   1.316   9.895 -1.7413 -2.4396 -1.3671
   28CHL1    C2 2045   4.706   1.286  10.102  0.6408  0.2937  0.6176
   28CHL1   H2A 2046   4.678   1.394  10.106 -0.5996  0.1887 -2.7365
   28CHL1   H2B 2047   4.792   1.265  10.168  0.1959  1.9105  1.7468
   28CHL1   C20 2048   5.007   1.049   9.229  0.3094  0.5995  0.1711
   28CHL1   H20 2049   5.092   0.998   9.279 -0.4653 -1.9134 -0.9805
   28CHL1   C21 2050   5.043   1.197   9.205 -0.1922  0.7495 -0.2893
   28CHL1  H21A 2051   4.951   1.246   9.166 -1.3610 -0.9339  0.2798
   28CHL1  H21B 2052   5.132   1.204   9.138 -0.5740  3.0810 -0.5810
   28CHL1  H21C 2053   5.071   1.239   9.304 -1.7110  2.4886 -0.5642
   28CHL1   C22 2054   4.978   0.977   9.094 -0.1581  0.1891 -0.7789
   28CHL1  H22A 2055   4.946   0.872   9.108 -0.6148  0.4737  0.4356
   28CHL1  H22B 2056   4.895   1.025   9.037  0.9085  1.0732 -1.5886
   28CHL1   C23 2057   5.104   0.965   9.015 -0.2596 -0.1142  0.4848
   28CHL1  H23A 2058   5.156   1.062   8.998  0.7894 -0.5771  1.0027
   28CHL1  H23B 2059   5.167   0.910   9.089 -1.3960  0.0556  1.6001
   28CHL1   C24 2060   5.097   0.883   8.886 -0.3787  0.3881  0.1251
   28CHL1  H24A 2061   5.061   0.778   8.889  1.9993 -0.4373  0.9385
   28CHL1  H24B 2062   5.027   0.939   8.820  0.6843  3.8624  1.8710
   28CHL1   C25 2063   5.227   0.888   8.803  0.8602  0.4140  0.3974
   28CHL1   H25 2064   5.263   0.993   8.797 -0.6057  0.8572 -1.0229
   28CHL1   C26 2065   5.335   0.801   8.866 -0.3339  0.3692  1.1303
   28CHL1  H26A 2066   5.308   0.693   8.872 -3.6782  1.1488  1.1920
   28CHL1  H26B 2067   5.425   0.818   8.804 -1.8220  1.1222 -0.8452
   28CHL1  H26C 2068   5.363   0.842   8.966  0.1689  2.5206  0.1202
   28CHL1   C27 2069   5.195   0.833   8.664 -0.3653 -0.3911  0.3076
   28CHL1  H27A 2070   5.170   0.725   8.667  0.8800 -0.6752  0.5396
   28CHL1  H27B 2071   5.117   0.896   8.616  0.9628  0.1717 -1.1484
   28CHL1  H27C 2072   5.288   0.849   8.605 -1.2888  0.2997 -0.9900
   29CHL1    C3 2073   6.015   6.724   6.651 -0.3630 -0.2187  0.1644
   29CHL1    H3 2074   6.034   6.833   6.638 -1.2900  0.1302  1.7257
   29CHL1    O3 2075   6.066   6.668   6.532 -0.1325 -0.0191  0.6825
   29CHL1   H3' 2076   6.028   6.715   6.457 -0.7527  1.0276  1.6391
   29CHL1    C4 2077   6.098   6.668   6.769  0.4776 -0.1037 -0.6221
   29CHL1   H4A 2078   6.109   6.560   6.746 -1.4272 -0.1738 -1.2706
   29CHL1   H4B 2079   6.201   6.710   6.772  1.0012 -1.2698 -1.9135
   29CHL1    C5 2080   6.040   6.683   6.910  0.2188 -0.3790  1.2908
   29CHL1    C6 2081   6.121   6.741   7.007 -0.0523 -0.1432 -0.6436
   29CHL1    H6 2082   6.226   6.765   6.983  0.0907 -1.2088 -1.1139
   29CHL1    C7 2083   6.065   6.767   7.143 -0.4079  0.2380 -0.6710
   29CHL1   H7A 2084   6.131   6.709   7.211 -0.3965  0.6191 -0.3545
   29CHL1   H7B 2085   6.076   6.874   7.172  1.1585  0.3199 -1.5042
   29CHL1    C8 2086   5.917   6.710   7.174 -0.5685 -0.2975 -0.4517
   29CHL1    H8 2087   5.937   6.604   7.204  0.2023  0.1601  0.6913
   29CHL1   C14 2088   5.864   6.794   7.289 -0.2095 -0.9325  0.4154
   29CHL1   H14 2089   5.852   6.897   7.250 -1.6106 -0.9926  0.6733
   29CHL1   C15 2090   5.962   6.813   7.412 -0.0186  0.6524  0.1391
   29CHL1  H15A 2091   6.001   6.711   7.431 -0.4337  0.3381 -0.6581
   29CHL1  H15B 2092   6.053   6.876   7.401  0.3397  0.5623  2.3237
   29CHL1   C16 2093   5.865   6.861   7.522  0.3953 -0.4613  0.9692
   29CHL1  H16A 2094   5.872   6.793   7.610 -0.4994 -0.7252  0.8384
   29CHL1  H16B 2095   5.877   6.966   7.555  2.6506 -0.1895 -0.5513
   29CHL1   C17 2096   5.719   6.858   7.463  0.4697  0.6152  0.0273
   29CHL1   H17 2097   5.698   6.958   7.419  0.8898  0.5728 -0.2671
   29CHL1   C13 2098   5.723   6.761   7.338 -0.8651  0.4873  0.5844
   29CHL1   C18 2099   5.712   6.614   7.399 -0.0318 -0.4559  0.7833
   29CHL1  H18A 2100   5.610   6.600   7.440  0.1439  0.1576  1.4607
   29CHL1  H18B 2101   5.739   6.546   7.316  1.6287  0.5866  0.4399
   29CHL1  H18C 2102   5.788   6.621   7.480  0.8795 -1.0631 -0.0154
   29CHL1   C12 2103   5.631   6.783   7.217  0.3765 -0.3561  0.1853
   29CHL1  H12A 2104   5.524   6.764   7.237  0.5687 -0.7508  0.8239
   29CHL1  H12B 2105   5.648   6.892   7.203 -0.0561 -0.1401  1.3166
   29CHL1   C11 2106   5.673   6.712   7.091  0.0679 -0.0499  0.4142
   29CHL1  H11A 2107   5.655   6.602   7.091 -0.1858 -0.0318 -1.9769
   29CHL1  H11B 2108   5.609   6.757   7.012  0.6952 -2.0271 -1.2641
   29CHL1    C9 2109   5.822   6.736   7.057  0.2347 -0.9456  0.2088
   29CHL1    H9 2110   5.821   6.846   7.040 -1.1387 -1.2732 -1.9831
   29CHL1   C10 2111   5.885   6.665   6.925 -0.1419  0.2635 -0.6317
   29CHL1   C19 2112   5.853   6.511   6.940  0.1486 -0.9073  0.3697
   29CHL1  H19A 2113   5.911   6.477   7.029  0.4287 -1.6174 -0.0813
   29CHL1  H19B 2114   5.745   6.489   6.937 -0.2504  0.9854  0.1841
   29CHL1  H19C 2115   5.893   6.454   6.853  1.2807  3.2051 -1.9564
   29CHL1    C1 2116   5.813   6.735   6.804 -0.6184 -0.3367 -0.3725
   29CHL1   H1A 2117   5.707   6.704   6.814 -0.5264 -0.4744  0.2061
   29CHL1   H1B 2118   5.830   6.844   6.816  2.5706 -0.8119 -0.1232
   29CHL1    C2 2119   5.869   6.685   6.671  0.2070  0.3751  0.0021
   29CHL1   H2A 2120   5.808   6.728   6.588  0.3799  0.2988 -0.1656
   29CHL1   H2B 2121   5.854   6.575   6.664 -1.5840  0.6788 -1.4212
   29CHL1   C20 2122   5.603   6.830   7.566 -0.5560 -0.1539 -0.5015
   29CHL1   H20 2123   5.621   6.733   7.618  0.6249 -1.0742 -2.5575
   29CHL1   C21 2124   5.456   6.823   7.502  0.5620 -0.3770  0.4263
   29CHL1  H21A 2125   5.455   6.745   7.423 -1.7473  0.4074 -0.3568
   29CHL1  H21B 2126   5.439   6.924   7.460 -2.5055 -0.4838  1.3272
   29CHL1  H21C 2127   5.389   6.783   7.581 -0.0046  0.9953  0.6511
   29CHL1   C22 2128   5.597   6.936   7.678 -0.1375  0.1136  0.2370
   29CHL1  H22A 2129   5.698   6.957   7.720  0.0058  0.5368 -0.3115
   29CHL1  H22B 2130   5.549   7.030   7.643 -0.3163  0.1737  0.6355
   29CHL1   C23 2131   5.523   6.888   7.809 -0.0305 -0.4349 -0.0723
   29CHL1  H23A 2132   5.418   6.876   7.776  0.6209 -0.0216 -2.4329
   29CHL1  H23B 2133   5.559   6.789   7.844  0.3470  0.1421  1.1793
   29CHL1   C24 2134   5.543   6.997   7.924  0.0060  0.6455  0.8831
   29CHL1  H24A 2135   5.648   7.030   7.908  0.1331  1.1275  2.5764
   29CHL1  H24B 2136   5.471   7.080   7.910 -1.3691 -0.3209  2.0374
   29CHL1   C25 2137   5.518   6.947   8.070 -0.0922 -0.2423  0.7693
   29CHL1   H25 2138   5.415   6.907   8.064  0.1804 -0.6273 -2.6984
   29CHL1   C26 2139   5.613   6.830   8.119 -0.6749 -1.0326  0.6420
   29CHL1  H26A 2140   5.617   6.739   8.055  0.3892  0.4730 -1.4985
   29CHL1  H26B 2141   5.718   6.866   8.116 -1.2352  0.7014  1.5921
   29CHL1  H26C 2142   5.586   6.797   8.221 -0.4948 -0.2874  0.9317
   29CHL1   C27 2143   5.535   7.060   8.174  0.8680 -0.6377  0.3289
   29CHL1  H27A 2144   5.481   7.031   8.267  0.1390 -2.7104 -0.7086
   29CHL1  H27B 2145   5.642   7.087   8.184  1.1924 -1.1066 -1.7042
   29CHL1  H27C 2146   5.482   7.153   8.142  0.2319 -0.6359  1.3462
   30CHL1    C3 2147   4.369   5.124   7.275 -0.4626  0.3266 -0.7108
   30CHL1    H3 2148   4.393   5.029   7.327  1.4728  0.1842 -1.7947
   30CHL1    O3 2149   4.361   5.104   7.133  0.3348  0.4310  0.1881
   30CHL1   H3' 2150   4.445   5.131   7.095  1.6462  0.2961  2.9100
   30CHL1    C4 2151   4.238   5.179   7.334 -0.7525  0.4931  0.0952
   30CHL1   H4A 2152   4.223   5.273   7.277  1.4105  0.9797  0.2876
   30CHL1   H4B 2153   4.167   5.098   7.304  0.6248 -0.4132 -0.8042
   30CHL1    C5 2154   4.237   5.212   7.479 -0.2387  0.4285 -0.0620
   30CHL1    C6 2155   4.149   5.154   7.563 -0.1905 -0.5999  0.8134
   30CHL1    H6 2156   4.070   5.087   7.527 -0.8468  1.0420 -0.8493
   30CHL1    C7 2157   4.158   5.194   7.713 -0.0278 -0.2047 -0.2158
   30CHL1   H7A 2158   4.053   5.210   7.747 -0.4429 -1.9231 -0.6554
   30CHL1   H7B 2159   4.190   5.098   7.759 -2.8414 -1.7381 -1.2863
   30CHL1    C8 2160   4.247   5.304   7.760  1.2670  0.1350 -0.0994
   30CHL1    H8 2161   4.189   5.390   7.721  1.8522 -0.9936 -3.6686
   30CHL1   C14 2162   4.270   5.299   7.912 -0.2387 -0.0148  0.4007
   30CHL1   H14 2163   4.317   5.199   7.921 -0.3250 -0.1982 -1.0121
   30CHL1   C15 2164   4.168   5.287   8.023  0.4754  0.3904 -0.0729
   30CHL1  H15A 2165   4.079   5.348   7.997 -1.0827 -0.8552  2.1679
   30CHL1  H15B 2166   4.132   5.183   8.035 -2.2661  1.0074 -2.5827
   30CHL1   C16 2167   4.242   5.338   8.151  0.4746  0.4572 -0.3051
   30CHL1  H16A 2168   4.174   5.418   8.188 -1.7031 -0.4048 -2.3131
   30CHL1  H16B 2169   4.242   5.253   8.222 -1.8592 -0.3267 -1.2131
   30CHL1   C17 2170   4.381   5.393   8.104  0.7697  0.6407  0.5406
   30CHL1   H17 2171   4.458   5.313   8.104  1.1654  1.0105  2.0118
   30CHL1   C13 2172   4.362   5.417   7.953  0.5173 -0.3655  0.0348
   30CHL1   C18 2173   4.291   5.553   7.925 -0.9137  0.4577 -0.1957
   30CHL1  H18A 2174   4.203   5.567   7.992 -1.0488 -1.4098  0.0409
   30CHL1  H18B 2175   4.368   5.628   7.952 -1.2633  0.0563  2.0778
   30CHL1  H18C 2176   4.264   5.574   7.820 -0.1547  0.4821 -0.3833
   30CHL1   C12 2177   4.488   5.413   7.872 -0.9198  0.7958  0.2227
   30CHL1  H12A 2178   4.550   5.498   7.908 -0.1936 -0.0216  0.9526
   30CHL1  H12B 2179   4.553   5.329   7.906  0.1333  1.6544  0.3777
   30CHL1   C11 2180   4.466   5.416   7.727  0.6142  0.3710 -0.1264
   30CHL1  H11A 2181   4.413   5.511   7.704 -0.3863  0.4090  2.2183
   30CHL1  H11B 2182   4.565   5.418   7.677 -0.0081 -0.3439 -1.4201
   30CHL1    C9 2183   4.375   5.303   7.679 -0.2037 -0.0987  0.3957
   30CHL1    H9 2184   4.439   5.217   7.707  2.3224  1.8551  0.8979
   30CHL1   C10 2185   4.359   5.303   7.526  0.3681 -0.2141 -0.3069
   30CHL1   C19 2186   4.322   5.451   7.476  0.4034 -0.0236 -0.5139
   30CHL1  H19A 2187   4.307   5.460   7.366  0.5760 -0.0275 -0.5373
   30CHL1  H19B 2188   4.223   5.483   7.514 -0.0327 -1.0703 -0.7425
   30CHL1  H19C 2189   4.400   5.528   7.491 -2.2354  2.2598  1.9195
   30CHL1    C1 2190   4.487   5.243   7.454 -0.5096 -0.2403 -0.2922
   30CHL1   H1A 2191   4.562   5.322   7.476 -1.8514  0.9948 -0.0658
   30CHL1   H1B 2192   4.514   5.148   7.504  0.6276  0.2053 -0.0595
   30CHL1    C2 2193   4.480   5.221   7.310  0.7662 -0.0624 -0.1623
   30CHL1   H2A 2194   4.579   5.198   7.265  1.3816 -1.5166  1.9107
   30CHL1   H2B 2195   4.452   5.313   7.254  0.2094 -2.2540 -3.6200
   30CHL1   C20 2196   4.445   5.497   8.194 -0.5669  0.2196 -0.1633
   30CHL1   H20 2197   4.518   5.561   8.139 -0.0069  0.2187  0.5678
   30CHL1   C21 2198   4.535   5.423   8.294  0.1979  0.4501 -0.7254
   30CHL1  H21A 2199   4.475   5.345   8.346  1.0068  0.9000  0.8991
   30CHL1  H21B 2200   4.581   5.482   8.375  1.6333 -1.8610  0.2031
   30CHL1  H21C 2201   4.614   5.362   8.244  3.1645  2.5672  1.2178
   30CHL1   C22 2202   4.338   5.585   8.258  0.3526 -0.5397  0.2105
   30CHL1  H22A 2203   4.253   5.618   8.194 -0.1568  1.7102  1.9643
   30CHL1  H22B 2204   4.290   5.536   8.345  0.6673 -1.4092 -0.1054
   30CHL1   C23 2205   4.396   5.719   8.307 -0.2391 -0.3368  0.7930
   30CHL1  H23A 2206   4.489   5.708   8.366  0.3796  0.5112 -0.0053
   30CHL1  H23B 2207   4.426   5.773   8.214 -2.2577 -1.5416 -0.6050
   30CHL1   C24 2208   4.291   5.808   8.383  0.0919 -0.6379 -0.3352
   30CHL1  H24A 2209   4.203   5.814   8.316 -1.1384  0.6580  1.3687
   30CHL1  H24B 2210   4.267   5.756   8.479  0.7385  0.9595  0.7040
   30CHL1   C25 2211   4.339   5.954   8.409 -0.5061  1.5064 -0.4009
   30CHL1   H25 2212   4.370   5.995   8.310  3.0891  0.5023  0.2180
   30CHL1   C26 2213   4.229   6.048   8.459 -0.0975  0.3813  0.5200
   30CHL1  H26A 2214   4.163   6.081   8.376  0.5083  3.4201  1.1764
   30CHL1  H26B 2215   4.171   6.003   8.541 -1.4847 -3.0014 -2.2107
   30CHL1  H26C 2216   4.273   6.139   8.505  2.6709 -0.5845 -0.1161
   30CHL1   C27 2217   4.471   5.955   8.493  0.2163  0.5986 -0.0746
   30CHL1  H27A 2218   4.549   5.897   8.439  0.6270  0.7358  0.3670
   30CHL1  H27B 2219   4.519   6.052   8.516  0.8419  0.0174  1.1320
   30CHL1  H27C 2220   4.455   5.905   8.591  0.3670  1.6434  0.4880
   31CHL1    C3 2221   3.656   0.000   6.704  0.4824 -0.0040 -0.2439
   31CHL1    H3 2222   3.736  -0.074   6.726  1.0824  0.8675  0.5977
   31CHL1    O3 2223   3.626   0.017   6.568 -0.5547 -0.1492 -0.3315
   31CHL1   H3' 2224   3.603   0.109   6.554 -1.7872 -0.3609  0.2305
   31CHL1    C4 2225   3.531  -0.047   6.780  0.6110  0.1355  0.6710
   31CHL1   H4A 2226   3.453   0.028   6.756 -1.0548 -1.0744  2.2426
   31CHL1   H4B 2227   3.496  -0.144   6.739  1.1018 -0.1073  0.8202
   31CHL1    C5 2228   3.549  -0.041   6.932  0.3055  0.0934 -0.0031
   31CHL1    C6 2229   3.538  -0.162   7.000  0.2166  1.0201  0.3749
   31CHL1    H6 2230   3.516  -0.249   6.936 -1.0949  1.9341 -0.4565
   31CHL1    C7 2231   3.558  -0.170   7.147  0.2313  0.1413 -0.1825
   31CHL1   H7A 2232   3.481  -0.227   7.205  0.4911 -2.9093 -2.7269
   31CHL1   H7B 2233   3.654  -0.220   7.172  0.0944  0.9673  2.1645
   31CHL1    C8 2234   3.560  -0.030   7.216  0.0853  0.1177 -0.0058
   31CHL1    H8 2235   3.453  -0.000   7.220 -0.9236 -3.2324 -0.6722
   31CHL1   C14 2236   3.617  -0.032   7.358 -1.2510  0.4915  0.3552
   31CHL1   H14 2237   3.718  -0.077   7.350 -1.4912 -0.3608  1.8569
   31CHL1   C15 2238   3.549  -0.130   7.462  0.2910 -0.2860 -0.8153
   31CHL1  H15A 2239   3.439  -0.117   7.449 -0.1324 -2.8271 -0.0151
   31CHL1  H15B 2240   3.574  -0.238   7.449 -1.2479 -0.3836 -3.1626
   31CHL1   C16 2241   3.589  -0.071   7.594  0.4651 -0.4291  0.2253
   31CHL1  H16A 2242   3.501  -0.042   7.656  0.7363 -1.7341  1.2573
   31CHL1  H16B 2243   3.655  -0.142   7.648 -0.7204 -2.4049 -0.8837
   31CHL1   C17 2244   3.675   0.054   7.567 -0.3921 -0.7553  0.4768
   31CHL1   H17 2245   3.780   0.022   7.550 -0.5897 -0.8447 -0.6073
   31CHL1   C13 2246   3.626   0.104   7.429  0.3237  0.6410  0.4479
   31CHL1   C18 2247   3.481   0.162   7.445  1.0549  0.1334  0.2519
   31CHL1  H18A 2248   3.417   0.098   7.509 -2.5856  2.9041 -0.4776
   31CHL1  H18B 2249   3.486   0.258   7.501 -1.3483  0.0857  0.6055
   31CHL1  H18C 2250   3.423   0.168   7.351  1.3528  1.1119  0.1218
   31CHL1   C12 2251   3.711   0.199   7.342  0.3964  0.5311 -0.0105
   31CHL1  H12A 2252   3.734   0.299   7.385  0.2963  0.5481  0.0033
   31CHL1  H12B 2253   3.815   0.163   7.327  0.6766  0.9580  0.8659
   31CHL1   C11 2254   3.645   0.218   7.204  0.3271  0.0599  0.3488
   31CHL1  H11A 2255   3.552   0.278   7.214  0.0365  0.0102 -1.8316
   31CHL1  H11B 2256   3.707   0.292   7.150 -2.5140  1.7589 -0.6928
   31CHL1    C9 2257   3.635   0.080   7.134 -0.4586  0.9980 -0.2726
   31CHL1    H9 2258   3.744   0.057   7.140 -0.4718  1.0359  0.2106
   31CHL1   C10 2259   3.594   0.095   6.988 -0.1568  0.2222  0.1610
   31CHL1   C19 2260   3.479   0.198   6.972 -0.0369 -0.0239  0.0993
   31CHL1  H19A 2261   3.512   0.304   6.981 -2.8961  0.8598  0.6382
   31CHL1  H19B 2262   3.428   0.192   6.874 -0.7341 -1.3164  0.5298
   31CHL1  H19C 2263   3.397   0.186   7.046 -0.2387 -2.3250 -0.4695
   31CHL1    C1 2264   3.717   0.145   6.904 -0.0992  0.0467 -0.1643
   31CHL1   H1A 2265   3.749   0.246   6.936  0.9167 -0.6471  1.0339
   31CHL1   H1B 2266   3.796   0.072   6.932 -1.7886 -0.8373  2.4399
   31CHL1    C2 2267   3.702   0.144   6.748  0.2211 -0.5691  0.2654
   31CHL1   H2A 2268   3.798   0.179   6.704  0.4542 -1.0664  0.3779
   31CHL1   H2B 2269   3.631   0.229   6.737  0.8888  0.0156  0.3992
   31CHL1   C20 2270   3.671   0.151   7.677 -0.0497  0.3401  0.0646
   31CHL1   H20 2271   3.564   0.181   7.690 -1.0090 -3.8103  2.7802
   31CHL1   C21 2272   3.770   0.269   7.646 -0.6467  0.0820  0.4081
   31CHL1  H21A 2273   3.862   0.226   7.603 -1.1602  0.4070 -1.0428
   31CHL1  H21B 2274   3.804   0.317   7.741 -0.0494 -0.2634  0.3712
   31CHL1  H21C 2275   3.730   0.347   7.578  1.0722 -0.3179 -1.0748
   31CHL1   C22 2276   3.703   0.093   7.815  0.1537 -0.2111  0.4861
   31CHL1  H22A 2277   3.694   0.179   7.884  0.1943  1.8766 -2.0286
   31CHL1  H22B 2278   3.634   0.013   7.849 -1.5917  0.5868 -1.1175
   31CHL1   C23 2279   3.838   0.013   7.821 -0.7610  0.2169 -0.2694
   31CHL1  H23A 2280   3.838  -0.056   7.734 -2.2075 -0.9223  0.6269
   31CHL1  H23B 2281   3.927   0.076   7.802  0.1746 -0.9247  0.2324
   31CHL1   C24 2282   3.863  -0.057   7.954 -0.7239 -0.0642 -0.1491
   31CHL1  H24A 2283   3.872   0.014   8.039  0.0998 -1.6495  1.1117
   31CHL1  H24B 2284   3.784  -0.132   7.973 -0.1500 -1.3117 -2.5902
   31CHL1   C25 2285   3.993  -0.143   7.967  0.1884 -0.3935  0.2276
   31CHL1   H25 2286   4.079  -0.076   7.943  0.4454 -1.8190 -3.1295
   31CHL1   C26 2287   4.011  -0.183   8.115  0.0411  0.5570  0.0291
   31CHL1  H26A 2288   4.026  -0.097   8.184 -0.8686  1.4927 -0.9318
   31CHL1  H26B 2289   3.922  -0.244   8.142 -0.0118 -0.1682 -1.7095
   31CHL1  H26C 2290   4.111  -0.232   8.123  0.3623  1.5166  2.3632
   31CHL1   C27 2291   3.996  -0.261   7.868 -0.4212 -0.3209 -0.4524
   31CHL1  H27A 2292   4.090  -0.316   7.893 -0.3931  0.6431  1.6891
   31CHL1  H27B 2293   3.994  -0.232   7.761 -1.4669 -2.7042 -1.1276
   31CHL1  H27C 2294   3.908  -0.327   7.886 -1.0174  0.8391  0.9529
   32CHL1    C3 2295   4.710   4.805   6.995 -0.3224  0.1776  0.1020
   32CHL1    H3 2296   4.735   4.913   6.985  1.3857 -0.2591 -0.4891
   32CHL1    O3 2297   4.684   4.750   6.868 -0.7282  0.1605  0.1172
   32CHL1   H3' 2298   4.661   4.658   6.884  1.3869 -0.5111 -0.4603
   32CHL1    C4 2299   4.834   4.741   7.056 -0.1802 -0.4478 -0.3441
   32CHL1   H4A 2300   4.802   4.636   7.075 -0.2637 -0.5901 -1.2198
   32CHL1   H4B 2301   4.922   4.738   6.988 -0.5871  0.1753 -0.9064
   32CHL1    C5 2302   4.867   4.799   7.189  0.3168  0.3058  0.4332
   32CHL1    C6 2303   4.993   4.849   7.213  0.2389 -0.6482  0.7787
   32CHL1    H6 2304   5.064   4.836   7.130 -1.9240 -1.9405 -0.9355
   32CHL1    C7 2305   5.035   4.904   7.341  0.0675  0.0759 -1.0530
   32CHL1   H7A 2306   5.128   4.863   7.386  0.4442 -1.4363 -3.1554
   32CHL1   H7B 2307   5.047   5.015   7.333 -2.4979  0.7053  2.5769
   32CHL1    C8 2308   4.929   4.882   7.455  0.0617  0.3932  0.1095
   32CHL1    H8 2309   4.936   4.777   7.493 -1.2766  0.8647  1.7452
   32CHL1   C14 2310   4.957   4.969   7.578  0.3408 -0.3893 -0.4599
   32CHL1   H14 2311   4.959   5.073   7.539  0.7275 -0.5287 -0.8183
   32CHL1   C15 2312   5.098   4.944   7.644  0.8690  0.4502 -0.1638
   32CHL1  H15A 2313   5.112   4.834   7.654  1.3157  0.4214 -1.1225
   32CHL1  H15B 2314   5.183   4.987   7.587 -1.8389  1.3415 -3.6536
   32CHL1   C16 2315   5.086   5.005   7.778  0.0977 -0.0895  0.2938
   32CHL1  H16A 2316   5.119   4.944   7.865 -0.0715  1.5875  1.5516
   32CHL1  H16B 2317   5.151   5.093   7.798  0.8279 -0.5867  0.1571
   32CHL1   C17 2318   4.941   5.063   7.786 -0.1658 -0.1688  0.3361
   32CHL1   H17 2319   4.947   5.158   7.728  1.1384 -0.1534  0.4838
   32CHL1   C13 2320   4.861   4.963   7.700 -0.0231 -0.3021 -0.5807
   32CHL1   C18 2321   4.860   4.813   7.757  0.3186 -0.2624  0.1637
   32CHL1  H18A 2322   4.853   4.735   7.678 -1.5279 -1.7492  1.7540
   32CHL1  H18B 2323   4.959   4.797   7.806  1.4648  0.6042 -1.8362
   32CHL1  H18C 2324   4.787   4.801   7.840  1.4257  1.2171  1.3844
   32CHL1   C12 2325   4.717   5.000   7.641  0.5491  0.1669  0.0359
   32CHL1  H12A 2326   4.644   4.984   7.723 -0.2341 -1.9894 -1.0457
   32CHL1  H12B 2327   4.717   5.106   7.607 -1.5547  0.4543  0.8718
   32CHL1   C11 2328   4.686   4.900   7.527 -0.2071 -0.1216  0.0387
   32CHL1  H11A 2329   4.670   4.799   7.570 -1.6898 -0.8853 -2.2313
   32CHL1  H11B 2330   4.586   4.936   7.496  0.2028  2.5918  1.6248
   32CHL1    C9 2331   4.789   4.899   7.411 -0.4512 -0.0522  0.3700
   32CHL1    H9 2332   4.789   5.004   7.374  0.2498  0.1615  0.9584
   32CHL1   C10 2333   4.746   4.812   7.288 -0.4936 -0.7867  0.4214
   32CHL1   C19 2334   4.718   4.668   7.338  0.5363 -0.5574  0.0038
   32CHL1  H19A 2335   4.690   4.609   7.248  0.0982 -0.0144 -0.2173
   32CHL1  H19B 2336   4.804   4.624   7.394  1.4078  0.7413 -0.2825
   32CHL1  H19C 2337   4.631   4.676   7.407  0.2853  1.8049 -0.5316
   32CHL1    C1 2338   4.622   4.869   7.225  0.1942 -0.7274  0.1785
   32CHL1   H1A 2339   4.529   4.863   7.286 -1.9248  1.3629 -2.7064
   32CHL1   H1B 2340   4.637   4.978   7.208  0.0521 -0.7994 -0.4118
   32CHL1    C2 2341   4.586   4.802   7.091 -0.4483 -0.1297  0.7449
   32CHL1   H2A 2342   4.498   4.861   7.058 -0.9152 -1.2419 -0.0251
   32CHL1   H2B 2343   4.558   4.695   7.094  0.6238 -0.4762 -1.1729
   32CHL1   C20 2344   4.888   5.090   7.923 -0.2985 -0.2182 -0.1365
   32CHL1   H20 2345   4.845   4.992   7.954  0.1239 -0.9982 -1.9552
   32CHL1   C21 2346   4.773   5.193   7.911  0.7620  0.2539  0.6804
   32CHL1  H21A 2347   4.818   5.289   7.878 -0.2618  1.6842  3.2435
   32CHL1  H21B 2348   4.732   5.199   8.014 -1.7881 -1.1115 -0.2082
   32CHL1  H21C 2349   4.697   5.165   7.835  0.8671 -0.4362  0.8314
   32CHL1   C22 2350   4.996   5.150   8.020 -0.1411  0.7048 -0.7866
   32CHL1  H22A 2351   5.083   5.082   8.031  1.5766  3.1883  1.7052
   32CHL1  H22B 2352   5.045   5.242   7.980  0.6567  0.2898 -0.7735
   32CHL1   C23 2353   4.947   5.189   8.159 -0.1955 -0.0935  0.6321
   32CHL1  H23A 2354   5.032   5.235   8.213 -0.2593 -0.4999  1.0771
   32CHL1  H23B 2355   4.874   5.273   8.158 -1.0296 -0.7833 -1.4890
   32CHL1   C24 2356   4.884   5.065   8.232 -0.0103 -0.0087  0.3649
   32CHL1  H24A 2357   4.789   5.035   8.184  0.4875 -1.0855  0.0368
   32CHL1  H24B 2358   4.940   4.972   8.208 -0.6351 -0.3545  0.2642
   32CHL1   C25 2359   4.872   5.085   8.390  0.1310  0.0593  0.0336
   32CHL1   H25 2360   4.817   4.992   8.418 -0.7606  0.5648 -0.0503
   32CHL1   C26 2361   5.006   5.076   8.466  0.0879 -0.4058  1.2727
   32CHL1  H26A 2362   5.080   5.153   8.432 -1.0488 -0.1762 -0.7460
   32CHL1  H26B 2363   4.989   5.091   8.575  1.0209 -2.2918  1.6997
   32CHL1  H26C 2364   5.049   4.979   8.435 -1.5069 -1.2274  1.5725
   32CHL1   C27 2365   4.804   5.217   8.441  0.1770 -0.3039  0.3279
   32CHL1  H27A 2366   4.699   5.217   8.403  0.0424  1.3532  0.6636
   32CHL1  H27B 2367   4.814   5.223   8.552  1.5156 -2.0150  0.3316
   32CHL1  H27C 2368   4.847   5.308   8.396  0.5809 -0.4426  0.4353
   33CHL1    C3 2369   5.439   5.567   6.717 -0.5233  0.4352 -0.3087
   33CHL1    H3 2370   5.521   5.494   6.698 -0.8251  0.0588 -0.1591
   33CHL1    O3 2371   5.402   5.637   6.594  0.3701 -0.6762 -0.2693
   33CHL1   H3' 2372   5.309   5.650   6.612  0.8724  0.9967  1.2364
   33CHL1    C4 2373   5.322   5.474   6.761 -0.2771 -0.7971 -0.5474
   33CHL1   H4A 2374   5.225   5.527   6.753 -0.1169  0.1920  3.1001
   33CHL1   H4B 2375   5.328   5.391   6.686  0.5010 -1.6224  0.4150
   33CHL1    C5 2376   5.345   5.419   6.898  0.2504 -0.3606  0.0574
   33CHL1    C6 2377   5.332   5.293   6.927 -0.8667  0.0680 -0.0063
   33CHL1    H6 2378   5.307   5.223   6.846 -0.1347  1.4217 -1.4265
   33CHL1    C7 2379   5.344   5.224   7.056 -0.1540 -0.3990 -0.5914
   33CHL1   H7A 2380   5.277   5.138   7.076 -0.8550  0.3161  0.1296
   33CHL1   H7B 2381   5.452   5.196   7.050 -0.3346 -0.7473 -2.4285
   33CHL1    C8 2382   5.345   5.327   7.179 -0.3012  0.1198 -0.0290
   33CHL1    H8 2383   5.246   5.359   7.216  0.5646 -0.0399  2.4857
   33CHL1   C14 2384   5.423   5.268   7.292  0.4771 -1.1951  0.1463
   33CHL1   H14 2385   5.528   5.258   7.257  0.4787 -2.6119  0.5369
   33CHL1   C15 2386   5.389   5.122   7.328 -0.0800 -0.2207  0.1330
   33CHL1  H15A 2387   5.282   5.109   7.354  0.5749 -1.8446  2.1423
   33CHL1  H15B 2388   5.417   5.044   7.254 -1.7770 -2.5249  1.8641
   33CHL1   C16 2389   5.465   5.107   7.461 -0.0382 -0.1190 -0.4376
   33CHL1  H16A 2390   5.394   5.053   7.528 -0.1275  0.7746  0.1956
   33CHL1  H16B 2391   5.558   5.048   7.447  0.3431  0.2758  0.4147
   33CHL1   C17 2392   5.503   5.253   7.512 -0.3763  0.4622  0.6224
   33CHL1   H17 2393   5.612   5.264   7.490 -0.7094  1.3499 -0.6593
   33CHL1   C13 2394   5.430   5.350   7.421 -0.3138 -0.5109  0.7816
   33CHL1   C18 2395   5.291   5.373   7.480  0.3865 -0.2176  0.0134
   33CHL1  H18A 2396   5.228   5.424   7.404  0.4780 -0.5553 -0.2959
   33CHL1  H18B 2397   5.232   5.282   7.505  0.3537 -1.0401 -2.8812
   33CHL1  H18C 2398   5.299   5.431   7.574 -0.3484 -0.0694 -0.0163
   33CHL1   C12 2399   5.510   5.479   7.378 -0.5191 -0.6118 -0.4618
   33CHL1  H12A 2400   5.505   5.558   7.456  1.2486  0.2614 -1.2021
   33CHL1  H12B 2401   5.614   5.461   7.346 -1.3445 -2.3518 -2.3046
   33CHL1   C11 2402   5.445   5.548   7.255 -0.5391  0.4411  0.1140
   33CHL1  H11A 2403   5.343   5.584   7.280  0.9328  2.5819  3.3432
   33CHL1  H11B 2404   5.499   5.639   7.221 -1.7791  0.9445 -0.5558
   33CHL1    C9 2405   5.425   5.453   7.140  0.5397  0.4890 -0.3499
   33CHL1    H9 2406   5.528   5.420   7.116  0.8873  2.4562 -1.7464
   33CHL1   C10 2407   5.384   5.520   7.008  0.0002 -0.0429 -0.1301
   33CHL1   C19 2408   5.246   5.601   7.022  0.0830  0.1635  0.4263
   33CHL1  H19A 2409   5.156   5.536   7.029  2.1748 -2.9078 -0.0734
   33CHL1  H19B 2410   5.253   5.652   7.120 -1.1570 -2.2487  1.8154
   33CHL1  H19C 2411   5.220   5.667   6.936 -0.8822 -0.6335  0.0874
   33CHL1    C1 2412   5.495   5.603   6.955  0.4482  0.2230  0.0007
   33CHL1   H1A 2413   5.533   5.673   7.033  1.3438  0.6559 -0.8110
   33CHL1   H1B 2414   5.573   5.530   6.925  0.5178  0.4054 -0.2683
   33CHL1    C2 2415   5.471   5.674   6.820  0.8154  0.1224 -0.3228
   33CHL1   H2A 2416   5.564   5.723   6.785 -0.4867  2.8411 -0.0514
   33CHL1   H2B 2417   5.389   5.748   6.815 -0.0595 -0.8673 -0.9836
   33CHL1   C20 2418   5.490   5.272   7.660  0.0922  0.2380  0.0466
   33CHL1   H20 2419   5.390   5.287   7.706  0.6517 -0.2574  1.4492
   33CHL1   C21 2420   5.559   5.405   7.706  0.1319 -0.6350  0.1581
   33CHL1  H21A 2421   5.550   5.417   7.816  0.7031  0.5692  0.0810
   33CHL1  H21B 2422   5.496   5.485   7.664  0.5281  0.5566  1.7728
   33CHL1  H21C 2423   5.666   5.407   7.674  0.0238 -2.2764 -0.3724
   33CHL1   C22 2424   5.566   5.155   7.736 -0.3270 -0.0520  0.2907
   33CHL1  H22A 2425   5.619   5.093   7.660 -1.7081 -0.0828 -0.6557
   33CHL1  H22B 2426   5.643   5.201   7.801  0.1727  0.9247 -0.9704
   33CHL1   C23 2427   5.476   5.062   7.809 -0.5563  0.3828 -0.2810
   33CHL1  H23A 2428   5.389   5.027   7.750 -1.7178  1.7680  0.5744
   33CHL1  H23B 2429   5.532   4.968   7.827 -0.8819  0.2617  0.1019
   33CHL1   C24 2430   5.409   5.124   7.935 -0.1474  0.5369  0.6183
   33CHL1  H24A 2431   5.463   5.212   7.975  1.1695  0.5248 -1.0458
   33CHL1  H24B 2432   5.302   5.148   7.922 -0.6773 -1.8833  0.2804
   33CHL1   C25 2433   5.427   5.026   8.053 -0.4169 -0.4789 -0.9501
   33CHL1   H25 2434   5.536   5.013   8.065 -0.4223  0.3623  0.1412
   33CHL1   C26 2435   5.363   5.086   8.174  0.0989  0.3136 -0.3577
   33CHL1  H26A 2436   5.332   5.013   8.252  0.4104 -0.2720 -0.7823
   33CHL1  H26B 2437   5.433   5.148   8.235  0.0559  1.3798 -1.3727
   33CHL1  H26C 2438   5.276   5.147   8.142  0.1228  0.4862 -0.1006
   33CHL1   C27 2439   5.354   4.894   8.020 -0.2044 -0.5848 -0.8303
   33CHL1  H27A 2440   5.382   4.840   7.927  0.6133  0.5172 -1.2280
   33CHL1  H27B 2441   5.386   4.825   8.100  0.5288  1.3408  0.5676
   33CHL1  H27C 2442   5.243   4.902   8.023 -0.1284 -0.0267  0.6009
   34CHL1    C3 2443   0.173   3.801   7.209 -0.6360 -0.1454 -1.0304
   34CHL1    H3 2444   0.095   3.722   7.211  1.4594 -2.2578  1.9864
   34CHL1    O3 2445   0.180   3.855   7.080  0.0771 -0.2825  0.2752
   34CHL1   H3' 2446   0.193   3.777   7.026  1.7229 -0.6805  1.2196
   34CHL1    C4 2447   0.136   3.909   7.314 -1.0870 -0.9852  0.1547
   34CHL1   H4A 2448   0.203   3.996   7.298  0.1328 -2.0887 -0.8304
   34CHL1   H4B 2449   0.031   3.933   7.286 -0.8427  0.0480  0.0929
   34CHL1    C5 2450   0.150   3.861   7.452  0.2379 -0.5122  0.0535
   34CHL1    C6 2451   0.048   3.879   7.542  0.2086  0.0859  0.6028
   34CHL1    H6 2452  -0.041   3.930   7.503  0.6833 -1.4678 -2.7325
   34CHL1    C7 2453   0.053   3.844   7.689 -1.1955  0.2367 -0.1981
   34CHL1   H7A 2454   0.005   3.927   7.744  3.2662  1.1519  2.4783
   34CHL1   H7B 2455  -0.014   3.756   7.707  0.6332 -1.3583 -1.0353
   34CHL1    C8 2456   0.199   3.819   7.736 -0.6380 -0.2207 -0.4663
   34CHL1    H8 2457   0.261   3.911   7.734 -0.9522  0.0747  1.6204
   34CHL1   C14 2458   0.194   3.747   7.875 -0.3914  0.7508 -0.3491
   34CHL1   H14 2459   0.134   3.655   7.864 -1.4119  1.5863 -2.0371
   34CHL1   C15 2460   0.125   3.810   7.995 -0.1909 -0.4210 -0.4740
   34CHL1  H15A 2461   0.150   3.918   7.982 -0.9533 -0.2378 -0.4199
   34CHL1  H15B 2462   0.016   3.829   7.995 -0.2019 -0.3232  1.7353
   34CHL1   C16 2463   0.171   3.740   8.125 -0.1838  0.5595  0.4359
   34CHL1  H16A 2464   0.187   3.823   8.197  0.0569 -0.0295  1.0699
   34CHL1  H16B 2465   0.092   3.676   8.170 -0.7621 -0.5326 -2.0337
   34CHL1   C17 2466   0.286   3.646   8.074 -0.3488  0.2688  0.0885
   34CHL1   H17 2467   0.233   3.555   8.041 -2.6501  0.7144  2.4086
   34CHL1   C13 2468   0.330   3.706   7.935  0.1387 -0.2940  0.3508
   34CHL1   C18 2469   0.427   3.824   7.965 -0.3552  0.3153  0.4325
   34CHL1  H18A 2470   0.400   3.871   8.062  1.0650 -0.2350  1.0953
   34CHL1  H18B 2471   0.532   3.798   7.989 -0.4109  0.5823  0.9644
   34CHL1  H18C 2472   0.422   3.903   7.886 -1.9751 -1.0377 -0.8575
   34CHL1   C12 2473   0.393   3.609   7.831 -0.1572  0.2541  0.7608
   34CHL1  H12A 2474   0.490   3.556   7.837 -0.8152 -1.1865 -0.9777
   34CHL1  H12B 2475   0.313   3.533   7.817 -1.8410  2.0498  0.2836
   34CHL1   C11 2476   0.406   3.677   7.691 -0.5144 -0.2696 -0.0160
   34CHL1  H11A 2477   0.484   3.755   7.699  1.6886 -2.2829 -1.2800
   34CHL1  H11B 2478   0.456   3.611   7.617 -1.5239 -0.6956 -0.3431
   34CHL1    C9 2479   0.269   3.724   7.636  0.2771  0.4834 -0.2441
   34CHL1    H9 2480   0.205   3.635   7.620  1.5858 -0.6095  0.4849
   34CHL1   C10 2481   0.276   3.784   7.492 -0.1007 -0.5486  0.1133
   34CHL1   C19 2482   0.389   3.894   7.494  0.7435 -0.0982  0.9464
   34CHL1  H19A 2483   0.395   3.941   7.393  1.8103  0.3995  1.2353
   34CHL1  H19B 2484   0.374   3.969   7.574  1.0896  1.1488 -0.1257
   34CHL1  H19C 2485   0.492   3.854   7.492  1.3733  1.4857 -1.0631
   34CHL1    C1 2486   0.304   3.676   7.391  0.2833  0.0557  1.0548
   34CHL1   H1A 2487   0.405   3.631   7.404  0.2934 -0.3281 -0.2593
   34CHL1   H1B 2488   0.230   3.594   7.401 -0.9001  0.8606 -0.7420
   34CHL1    C2 2489   0.306   3.729   7.244 -0.0654 -0.2764 -0.2054
   34CHL1   H2A 2490   0.333   3.651   7.170  0.3858  2.8224 -3.4233
   34CHL1   H2B 2491   0.387   3.805   7.239  0.3373 -0.5283  1.8268
   34CHL1   C20 2492   0.386   3.600   8.182  0.3670  0.5607 -0.0724
   34CHL1   H20 2493   0.427   3.687   8.239 -1.2908  1.5476 -0.3517
   34CHL1   C21 2494   0.504   3.518   8.116 -0.9821  0.8671 -0.2071
   34CHL1  H21A 2495   0.466   3.442   8.045  0.1297 -0.1310  0.2496
   34CHL1  H21B 2496   0.562   3.459   8.190  0.0618  2.9088  0.6562
   34CHL1  H21C 2497   0.573   3.581   8.055  2.7289 -1.8326  1.0101
   34CHL1   C22 2498   0.320   3.510   8.286  0.0579  0.5593 -0.1988
   34CHL1  H22A 2499   0.215   3.541   8.304 -0.0181 -1.2936  2.7617
   34CHL1  H22B 2500   0.309   3.408   8.244 -1.2377 -0.4143  2.4371
   34CHL1   C23 2501   0.403   3.479   8.417  0.3303  0.1079 -0.2426
   34CHL1  H23A 2502   0.494   3.418   8.402 -0.4760 -0.5973 -2.4639
   34CHL1  H23B 2503   0.436   3.581   8.447  0.4734  0.0445 -0.1864
   34CHL1   C24 2504   0.323   3.413   8.530 -0.2057 -0.0964  0.5577
   34CHL1  H24A 2505   0.246   3.488   8.556  1.1426  1.2183  0.8545
   34CHL1  H24B 2506   0.268   3.323   8.495  1.8863 -0.5954 -1.6417
   34CHL1   C25 2507   0.403   3.385   8.659 -0.3216  0.4613  0.0830
   34CHL1   H25 2508   0.452   3.287   8.642 -2.8418 -0.7350 -0.5669
   34CHL1   C26 2509   0.519   3.479   8.684 -0.2635 -0.5838 -0.2451
   34CHL1  H26A 2510   0.579   3.466   8.776 -0.4730 -0.9479 -0.1572
   34CHL1  H26B 2511   0.594   3.473   8.602  1.4538 -3.0168  1.4083
   34CHL1  H26C 2512   0.487   3.585   8.677 -0.9908 -0.6835  1.4363
   34CHL1   C27 2513   0.307   3.383   8.777  0.5668  0.7265  1.1191
   34CHL1  H27A 2514   0.219   3.323   8.747  3.1456 -1.9659 -1.4409
   34CHL1  H27B 2515   0.353   3.329   8.863 -0.1642 -0.4500  0.7828
   34CHL1  H27C 2516   0.298   3.488   8.812 -1.5654  0.7033  0.6905
   35CHL1    C3 2517   3.207   5.285   7.272 -0.1692 -0.2433 -0.2681
   35CHL1    H3 2518   3.128   5.361   7.291 -0.7175 -1.1232  1.0051
   35CHL1    O3 2519   3.259   5.299   7.135 -0.6070 -0.2666  0.1718
   35CHL1   H3' 2520   3.335   5.241   7.144  0.4095  0.9525 -0.4472
   35CHL1    C4 2521   3.329   5.306   7.366 -0.0248 -0.6685  0.0360
   35CHL1   H4A 2522   3.421   5.252   7.338  1.3943  0.8444  1.6532
   35CHL1   H4B 2523   3.370   5.408   7.349 -2.5857  0.3092 -0.5824
   35CHL1    C5 2524   3.303   5.281   7.514  0.9431 -0.4656  0.3527
   35CHL1    C6 2525   3.330   5.378   7.606  0.2131 -0.3791  0.0668
   35CHL1    H6 2526   3.368   5.475   7.569  2.6820 -2.2094 -2.3991
   35CHL1    C7 2527   3.316   5.356   7.747 -0.0523  0.0500 -0.0997
   35CHL1   H7A 2528   3.409   5.390   7.797 -0.0672 -1.2441  0.8351
   35CHL1   H7B 2529   3.235   5.421   7.787 -1.0503  0.5968 -2.8635
   35CHL1    C8 2530   3.293   5.205   7.782 -0.2955 -0.3437 -0.0057
   35CHL1    H8 2531   3.390   5.152   7.768  1.2042  2.1014  0.9589
   35CHL1   C14 2532   3.238   5.184   7.921  0.5858  0.4129  0.1149
   35CHL1   H14 2533   3.142   5.240   7.917 -0.2905 -1.1893 -2.3691
   35CHL1   C15 2534   3.312   5.241   8.045  0.6162 -0.9394 -0.5168
   35CHL1  H15A 2535   3.419   5.220   8.027  0.2867 -1.8497 -1.4723
   35CHL1  H15B 2536   3.296   5.351   8.054  0.3029 -0.9636 -0.7751
   35CHL1   C16 2537   3.253   5.168   8.165  0.3446 -0.1221  1.1578
   35CHL1  H16A 2538   3.342   5.142   8.227  2.0036  1.4480 -0.5126
   35CHL1  H16B 2539   3.193   5.231   8.234 -0.0079  0.7286  0.0804
   35CHL1   C17 2540   3.172   5.046   8.105 -0.0887 -0.1077  0.2795
   35CHL1   H17 2541   3.067   5.079   8.116  0.1728  1.1448 -0.8606
   35CHL1   C13 2542   3.212   5.036   7.959  0.7898  0.4185  0.7282
   35CHL1   C18 2543   3.340   4.953   7.946  0.0107  0.0934  0.4102
   35CHL1  H18A 2544   3.310   4.846   7.943  1.9913 -0.5330  1.7387
   35CHL1  H18B 2545   3.395   4.963   7.850  2.5119 -2.5659  1.5039
   35CHL1  H18C 2546   3.406   4.977   8.032 -0.4275  2.7466  0.0505
   35CHL1   C12 2547   3.089   4.994   7.874 -0.0391  0.3580  0.6757
   35CHL1  H12A 2548   3.052   4.892   7.902  0.4447  0.1036  0.3955
   35CHL1  H12B 2549   3.001   5.059   7.889 -0.3758  0.5017 -1.7409
   35CHL1   C11 2550   3.127   5.005   7.723  0.2290  0.5583 -0.5641
   35CHL1  H11A 2551   3.204   4.928   7.704  0.7178  0.4255  1.7970
   35CHL1  H11B 2552   3.038   4.983   7.660  0.4410 -0.8678 -0.3741
   35CHL1    C9 2553   3.182   5.147   7.688  0.4578  0.2687 -0.2725
   35CHL1    H9 2554   3.103   5.225   7.696  0.0397 -0.2786  1.1593
   35CHL1   C10 2555   3.229   5.148   7.541 -0.5745  0.9307 -0.6089
   35CHL1   C19 2556   3.343   5.043   7.504  0.1275  0.2998  0.0003
   35CHL1  H19A 2557   3.359   5.043   7.394  2.8564  0.1647  0.3398
   35CHL1  H19B 2558   3.431   5.067   7.568 -0.1955 -1.5390  1.1697
   35CHL1  H19C 2559   3.309   4.940   7.531  0.5362  0.0866 -0.2849
   35CHL1    C1 2560   3.112   5.132   7.442 -0.0702 -0.3855 -0.5804
   35CHL1   H1A 2561   3.084   5.024   7.443  0.5095 -0.5336  0.0616
   35CHL1   H1B 2562   3.026   5.196   7.474 -0.7204 -0.8040 -1.4684
   35CHL1    C2 2563   3.147   5.155   7.295  0.2582 -0.7993 -0.0332
   35CHL1   H2A 2564   3.054   5.142   7.236 -1.0877  0.1939  1.8357
   35CHL1   H2B 2565   3.217   5.077   7.258  0.9202  0.1002 -0.6734
   35CHL1   C20 2566   3.181   4.917   8.196  0.4241 -0.9995  0.8255
   35CHL1   H20 2567   3.288   4.888   8.188  0.1319 -1.7969 -0.1620
   35CHL1   C21 2568   3.098   4.798   8.142 -0.0354 -0.0800 -0.0143
   35CHL1  H21A 2569   3.108   4.725   8.226  0.9112  1.6092  1.3703
   35CHL1  H21B 2570   3.151   4.764   8.051 -0.1752  1.1162 -0.5419
   35CHL1  H21C 2571   2.994   4.834   8.125 -0.1565  0.3201  1.5140
   35CHL1   C22 2572   3.159   4.940   8.343 -0.2104  0.2269 -0.4273
   35CHL1  H22A 2573   3.204   4.861   8.406 -0.5616  1.4485  1.3882
   35CHL1  H22B 2574   3.212   5.028   8.385 -1.5943  0.3662  1.0643
   35CHL1   C23 2575   3.013   4.945   8.394  0.0574  0.0791  1.0254
   35CHL1  H23A 2576   2.964   5.024   8.333  4.1836  2.0841  0.1392
   35CHL1  H23B 2577   2.972   4.843   8.377 -1.8921  1.1770 -1.2842
   35CHL1   C24 2578   3.004   4.976   8.541 -0.0615 -0.0734  0.0244
   35CHL1  H24A 2579   3.052   4.895   8.599  0.9201  0.0158 -0.6316
   35CHL1  H24B 2580   3.065   5.068   8.556 -0.2024  0.1514 -0.7638
   35CHL1   C25 2581   2.864   5.009   8.596 -0.4713 -0.3064  0.4415
   35CHL1   H25 2582   2.799   4.920   8.582  0.4292 -1.0890  1.2027
   35CHL1   C26 2583   2.872   5.038   8.747  0.1211  0.0038 -0.2606
   35CHL1  H26A 2584   2.933   5.127   8.772  0.9935 -0.2809 -1.3648
   35CHL1  H26B 2585   2.776   5.072   8.792  1.3381  2.3728  0.6545
   35CHL1  H26C 2586   2.907   4.944   8.794  1.0457  0.6125  0.2705
   35CHL1   C27 2587   2.797   5.126   8.522  0.3408 -0.6357  0.0448
   35CHL1  H27A 2588   2.840   5.226   8.544 -0.4321 -0.6362  1.6757
   35CHL1  H27B 2589   2.690   5.126   8.553 -0.0872  0.7927 -1.4033
   35CHL1  H27C 2590   2.790   5.108   8.413 -1.2563  2.2346 -0.3816
   36CHL1    C3 2591   3.856   4.370   7.211  0.1460  1.0761 -0.7044
   36CHL1    H3 2592   3.926   4.457   7.219  0.0458  1.0425  0.6896
   36CHL1    O3 2593   3.825   4.346   7.077  0.0022  0.1457  0.3874
   36CHL1   H3' 2594   3.741   4.300   7.080  0.8489 -1.6431 -1.5223
   36CHL1    C4 2595   3.926   4.247   7.262 -0.6269  0.9178  0.0621
   36CHL1   H4A 2596   3.862   4.158   7.246  2.2827 -1.2147 -0.1526
   36CHL1   H4B 2597   4.020   4.233   7.203 -0.0331  0.2998  1.1364
   36CHL1    C5 2598   3.969   4.256   7.408  0.3801 -0.0488  0.3548
   36CHL1    C6 2599   4.098   4.240   7.445  0.0073  0.2580 -0.0669
   36CHL1    H6 2600   4.176   4.214   7.373 -0.4898  0.1851 -0.5830
   36CHL1    C7 2601   4.151   4.251   7.587 -0.0168 -0.2909 -1.1710
   36CHL1   H7A 2602   4.208   4.159   7.614  1.5010  1.4030  1.6224
   36CHL1   H7B 2603   4.208   4.345   7.599 -1.2239  0.1969  1.1768
   36CHL1    C8 2604   4.031   4.242   7.685 -0.1526 -0.6059  0.1258
   36CHL1    H8 2605   3.983   4.142   7.688 -1.1840 -0.1007  1.5119
   36CHL1   C14 2606   4.093   4.284   7.817  0.1535  0.2680  0.4111
   36CHL1   H14 2607   4.135   4.386   7.810 -0.0311  0.3454  0.4088
   36CHL1   C15 2608   4.213   4.209   7.878 -0.3798 -0.8559 -0.2378
   36CHL1  H15A 2609   4.207   4.098   7.872  0.5836 -0.9715  0.7568
   36CHL1  H15B 2610   4.307   4.237   7.825 -0.7325  0.9071  0.0398
   36CHL1   C16 2611   4.218   4.267   8.021 -0.5734 -0.2376 -0.0435
   36CHL1  H16A 2612   4.205   4.187   8.097 -1.9707  0.8493  0.8954
   36CHL1  H16B 2613   4.305   4.331   8.045  0.2919 -1.1449 -0.7097
   36CHL1   C17 2614   4.096   4.357   8.042 -0.4342 -0.4715  0.1866
   36CHL1   H17 2615   4.111   4.463   8.011  1.3248 -1.3363 -1.9913
   36CHL1   C13 2616   3.991   4.308   7.929 -0.8378  0.1514 -0.0445
   36CHL1   C18 2617   3.925   4.171   7.964 -0.0345  0.2088  0.8306
   36CHL1  H18A 2618   3.859   4.120   7.890  1.0753 -3.0719  1.9989
   36CHL1  H18B 2619   4.003   4.099   7.997  0.9796  0.3020 -1.2600
   36CHL1  H18C 2620   3.856   4.208   8.042 -1.2855 -0.9622  0.2931
   36CHL1   C12 2621   3.888   4.407   7.882 -0.4655  0.6680 -1.0560
   36CHL1  H12A 2622   3.816   4.400   7.966  1.2728  1.9224  0.5967
   36CHL1  H12B 2623   3.937   4.507   7.877 -1.5007  1.2557  0.4550
   36CHL1   C11 2624   3.818   4.367   7.752  0.1937 -0.1513 -0.4063
   36CHL1  H11A 2625   3.766   4.271   7.773 -0.7778  0.2781 -0.7935
   36CHL1  H11B 2626   3.751   4.450   7.719  1.2654  1.4349  1.3012
   36CHL1    C9 2627   3.925   4.340   7.644  0.2338  0.0172 -0.2740
   36CHL1    H9 2628   3.981   4.434   7.623 -0.6291  0.7041  0.4861
   36CHL1   C10 2629   3.858   4.294   7.506 -0.0110  0.1493  0.3996
   36CHL1   C19 2630   3.763   4.170   7.507  0.3248  0.8044  0.0385
   36CHL1  H19A 2631   3.720   4.159   7.405  2.2477 -1.1034 -0.6117
   36CHL1  H19B 2632   3.825   4.081   7.531 -0.5885 -0.0693 -0.7890
   36CHL1  H19C 2633   3.682   4.183   7.582  1.0057  3.1615  0.4080
   36CHL1    C1 2634   3.770   4.407   7.449  0.3738  0.2120  0.2145
   36CHL1   H1A 2635   3.673   4.412   7.503  0.1376 -0.5336 -0.1250
   36CHL1   H1B 2636   3.823   4.503   7.460 -1.0266  0.8877  1.1871
   36CHL1    C2 2637   3.730   4.394   7.300  0.3127 -0.4356  0.4698
   36CHL1   H2A 2638   3.680   4.489   7.272  1.1963 -0.1983 -0.3283
   36CHL1   H2B 2639   3.658   4.310   7.282 -2.9309  2.4729 -0.8708
   36CHL1   C20 2640   4.043   4.363   8.191 -0.3869 -0.5211  0.2346
   36CHL1   H20 2641   3.989   4.267   8.203 -0.2748 -0.5165  0.7862
   36CHL1   C21 2642   3.951   4.479   8.213  0.2526 -0.1935 -0.1641
   36CHL1  H21A 2643   3.906   4.494   8.314 -0.7074  1.1796 -0.7797
   36CHL1  H21B 2644   3.865   4.483   8.142 -1.9218  2.2374  2.4738
   36CHL1  H21C 2645   4.009   4.570   8.186 -1.4728  0.4994 -1.6356
   36CHL1   C22 2646   4.163   4.374   8.292  0.5051 -0.8785 -1.0496
   36CHL1  H22A 2647   4.231   4.286   8.298 -1.3044 -2.2228  0.1501
   36CHL1  H22B 2648   4.230   4.456   8.260  1.3159 -1.6143 -1.2510
   36CHL1   C23 2649   4.131   4.395   8.442  0.1202 -0.1243 -0.1638
   36CHL1  H23A 2650   4.095   4.499   8.461  1.5467  0.3902 -0.2151
   36CHL1  H23B 2651   4.051   4.323   8.470 -2.2891  0.9393 -3.8846
   36CHL1   C24 2652   4.251   4.363   8.524 -0.1892 -0.2461 -0.8711
   36CHL1  H24A 2653   4.302   4.273   8.483 -1.1535 -1.2057  0.0220
   36CHL1  H24B 2654   4.323   4.448   8.527 -1.0225  0.4438 -0.1147
   36CHL1   C25 2655   4.210   4.335   8.666 -0.9664 -0.2903  0.8016
   36CHL1   H25 2656   4.146   4.244   8.663 -0.0354 -0.9013 -1.4085
   36CHL1   C26 2657   4.328   4.313   8.759  0.4243  0.0462 -0.1196
   36CHL1  H26A 2658   4.367   4.412   8.792 -0.2633 -0.2912  1.7699
   36CHL1  H26B 2659   4.285   4.272   8.853  2.5427 -0.3596  0.7079
   36CHL1  H26C 2660   4.400   4.238   8.721 -1.4596 -1.2783 -1.1146
   36CHL1   C27 2661   4.126   4.458   8.723  0.7095  0.4737 -0.0297
   36CHL1  H27A 2662   4.107   4.444   8.832  1.0099  1.5591  0.1626
   36CHL1  H27B 2663   4.182   4.553   8.707  1.2708  0.2656  0.6483
   36CHL1  H27C 2664   4.029   4.469   8.672  0.1432 -1.3596  0.5947
   37CHL1    C3 2665   0.511   6.531   6.942  0.3831  0.6009 -0.4986
   37CHL1    H3 2666   0.571   6.447   6.984 -0.2530  0.1164 -0.5509
   37CHL1    O3 2667   0.533   6.526   6.802  0.8978 -0.5768  0.1719
   37CHL1   H3' 2668   0.518   6.438   6.766  0.1274 -1.4319  2.5169
   37CHL1    C4 2669   0.358   6.500   6.971 -0.2104  0.3031  0.2535
   37CHL1   H4A 2670   0.305   6.579   6.914 -2.9829 -1.1511  0.7060
   37CHL1   H4B 2671   0.331   6.404   6.921  2.8284  0.2066 -1.2814
   37CHL1    C5 2672   0.310   6.520   7.113  0.0919  0.1026 -0.2428
   37CHL1    C6 2673   0.242   6.424   7.170  0.0096  0.4498  0.5212
   37CHL1    H6 2674   0.212   6.332   7.118  1.8796 -0.0748  0.3477
   37CHL1    C7 2675   0.195   6.430   7.306 -0.3890 -0.1464  0.3096
   37CHL1   H7A 2676   0.084   6.435   7.304 -0.5822 -2.0681  3.0080
   37CHL1   H7B 2677   0.238   6.346   7.365 -0.5284 -1.1779 -1.0133
   37CHL1    C8 2678   0.214   6.561   7.389  0.2081 -0.1012  0.0049
   37CHL1    H8 2679   0.135   6.632   7.356 -0.3228 -0.2389  0.9695
   37CHL1   C14 2680   0.212   6.544   7.538  0.2976 -0.2112  0.5608
   37CHL1   H14 2681   0.302   6.482   7.561  1.4443  0.6875 -1.3120
   37CHL1   C15 2682   0.102   6.461   7.593  0.0358  0.2067  0.1457
   37CHL1  H15A 2683   0.007   6.477   7.538 -1.3966  1.1404  2.7999
   37CHL1  H15B 2684   0.117   6.351   7.589 -1.5527 -0.0082 -0.2242
   37CHL1   C16 2685   0.093   6.510   7.739 -0.4571  0.2451  0.2869
   37CHL1  H16A 2686  -0.003   6.562   7.763 -0.4515  1.0956 -1.4901
   37CHL1  H16B 2687   0.110   6.429   7.813  0.7432  0.0135 -0.2305
   37CHL1   C17 2688   0.204   6.612   7.765 -0.1193 -0.9387  0.0650
   37CHL1   H17 2689   0.302   6.561   7.777 -0.4232 -2.2467 -2.6210
   37CHL1   C13 2690   0.221   6.670   7.618  0.3802 -0.4178  0.1014
   37CHL1   C18 2691   0.104   6.765   7.582  0.2584 -0.3747  0.0693
   37CHL1  H18A 2692   0.006   6.715   7.595 -0.6207  0.9660 -1.2208
   37CHL1  H18B 2693   0.100   6.857   7.643  0.7709 -0.4013  0.1485
   37CHL1  H18C 2694   0.106   6.801   7.477 -0.0279  0.0001  0.1917
   37CHL1   C12 2695   0.360   6.733   7.587  0.3654  0.3035  0.5631
   37CHL1  H12A 2696   0.351   6.834   7.633 -3.8779 -0.1072  0.8045
   37CHL1  H12B 2697   0.446   6.685   7.638  2.6340  1.7374 -1.7845
   37CHL1   C11 2698   0.381   6.751   7.436  0.2869  0.2377  0.4674
   37CHL1  H11A 2699   0.304   6.823   7.403  1.1009 -0.0456 -2.1561
   37CHL1  H11B 2700   0.484   6.784   7.412  0.1514  0.0338 -0.4112
   37CHL1    C9 2701   0.344   6.628   7.347 -0.0000  0.2103 -1.1854
   37CHL1    H9 2702   0.417   6.546   7.364 -0.4019  0.3207  1.2714
   37CHL1   C10 2703   0.365   6.640   7.187  0.0260  0.6079 -0.7205
   37CHL1   C19 2704   0.289   6.772   7.143  0.1524  0.2453 -0.6949
   37CHL1  H19A 2705   0.292   6.785   7.032 -0.7663 -1.5548 -0.9473
   37CHL1  H19B 2706   0.184   6.750   7.173  0.3406 -2.3697 -1.7973
   37CHL1  H19C 2707   0.330   6.870   7.173 -1.6137  0.9196 -0.4158
   37CHL1    C1 2708   0.519   6.660   7.155 -0.3263 -0.8979 -0.4360
   37CHL1   H1A 2709   0.552   6.753   7.207 -2.5136 -1.0807  1.3134
   37CHL1   H1B 2710   0.582   6.586   7.208 -0.7247 -0.4339  0.6956
   37CHL1    C2 2711   0.546   6.666   7.004 -0.1613 -0.1330  0.2060
   37CHL1   H2A 2712   0.651   6.696   6.980 -0.8420 -0.6914 -3.9278
   37CHL1   H2B 2713   0.484   6.736   6.943  1.2475  1.8813  1.0391
   37CHL1   C20 2714   0.170   6.715   7.874 -0.0864  0.2124 -0.3309
   37CHL1   H20 2715   0.089   6.786   7.850  1.6622  1.8952 -1.4130
   37CHL1   C21 2716   0.295   6.798   7.913  0.3798  0.2118  0.4441
   37CHL1  H21A 2717   0.278   6.851   8.009  2.1940 -1.4493  1.7427
   37CHL1  H21B 2718   0.319   6.876   7.838  2.2095 -2.4796 -1.9155
   37CHL1  H21C 2719   0.385   6.733   7.923  1.6280  1.7880 -0.3738
   37CHL1   C22 2720   0.126   6.642   8.005 -0.0988  0.4167 -0.1684
   37CHL1  H22A 2721   0.066   6.553   7.975 -0.0083 -0.2035  1.4624
   37CHL1  H22B 2722   0.212   6.609   8.066 -0.0018 -1.8624 -1.4839
   37CHL1   C23 2723   0.036   6.738   8.082 -0.7855 -0.5180 -0.3744
   37CHL1  H23A 2724   0.102   6.820   8.115  0.0101 -1.2515 -0.1329
   37CHL1  H23B 2725  -0.050   6.781   8.025 -0.0728  0.4128 -0.7484
   37CHL1   C24 2726  -0.025   6.677   8.208 -0.3413 -0.4561 -0.2694
   37CHL1  H24A 2727  -0.090   6.596   8.167 -0.9099 -0.4918  0.6849
   37CHL1  H24B 2728   0.054   6.623   8.266 -0.7486 -1.5881 -0.7534
   37CHL1   C25 2729  -0.095   6.772   8.301 -0.1754  0.2074  0.5114
   37CHL1   H25 2730  -0.158   6.845   8.246  0.7556  1.9433  1.6889
   37CHL1   C26 2731  -0.174   6.709   8.411 -0.3058 -0.0455  0.2591
   37CHL1  H26A 2732  -0.246   6.783   8.452 -0.7987 -1.2507  1.5785
   37CHL1  H26B 2733  -0.230   6.618   8.380 -1.1901  0.5955 -0.0499
   37CHL1  H26C 2734  -0.106   6.673   8.491 -0.4939 -0.3887  0.2652
   37CHL1   C27 2735   0.004   6.869   8.372  0.2479  0.6835  0.8505
   37CHL1  H27A 2736   0.073   6.806   8.432  0.9780  0.9454  0.2998
   37CHL1  H27B 2737   0.056   6.928   8.293 -1.6005 -0.0405 -0.9606
   37CHL1  H27C 2738  -0.048   6.941   8.439 -0.5595  1.6752 -0.8080
   38CHL1    C3 2739   3.429   0.678   6.712  0.1620  0.3927  0.7032
   38CHL1    H3 2740   3.500   0.761   6.691 -0.8328  0.9515 -0.5501
   38CHL1    O3 2741   3.367   0.636   6.590  0.1861 -0.1340  0.3560
   38CHL1   H3' 2742   3.327   0.550   6.600 -0.6856  0.0416 -1.3593
   38CHL1    C4 2743   3.496   0.560   6.789 -0.0226  0.1032 -0.2405
   38CHL1   H4A 2744   3.423   0.477   6.800 -0.7342  0.7078 -0.3275
   38CHL1   H4B 2745   3.580   0.532   6.722  1.1128 -1.7507  1.8977
   38CHL1    C5 2746   3.545   0.592   6.928 -0.4780  0.8196 -0.1426
   38CHL1    C6 2747   3.671   0.580   6.970  0.3630  0.2644 -0.3075
   38CHL1    H6 2748   3.744   0.548   6.894 -0.1873 -1.0842 -0.2788
   38CHL1    C7 2749   3.722   0.591   7.111  0.4827 -0.1961 -1.2403
   38CHL1   H7A 2750   3.782   0.503   7.144  0.0655  0.6199  1.8582
   38CHL1   H7B 2751   3.793   0.676   7.116 -0.6937  0.8025 -1.5436
   38CHL1    C8 2752   3.612   0.620   7.214  0.3660 -0.6051  0.3572
   38CHL1    H8 2753   3.567   0.524   7.246 -1.1451  1.3368  4.5290
   38CHL1   C14 2754   3.655   0.697   7.338 -0.3008  1.3134 -0.7347
   38CHL1   H14 2755   3.677   0.798   7.297  1.7314  0.7025 -1.2547
   38CHL1   C15 2756   3.786   0.652   7.403  0.1511 -0.2533 -0.6272
   38CHL1  H15A 2757   3.786   0.543   7.422 -0.2926 -0.1320  0.0668
   38CHL1  H15B 2758   3.875   0.666   7.337  1.0608 -0.0521  0.6283
   38CHL1   C16 2759   3.794   0.726   7.536 -0.5027  0.2416 -0.3037
   38CHL1  H16A 2760   3.839   0.669   7.619 -0.0781 -1.0114 -1.3796
   38CHL1  H16B 2761   3.853   0.818   7.517 -0.3019  0.1579 -0.0825
   38CHL1   C17 2762   3.643   0.779   7.556  0.4536  0.1692  0.0918
   38CHL1   H17 2763   3.646   0.883   7.520 -4.2460  0.3419 -0.0867
   38CHL1   C13 2764   3.556   0.711   7.450 -0.3343 -0.3822 -0.2735
   38CHL1   C18 2765   3.522   0.568   7.507  0.1787  0.3252  0.5988
   38CHL1  H18A 2766   3.499   0.494   7.427  2.3260 -0.5836  0.8138
   38CHL1  H18B 2767   3.616   0.528   7.550 -0.1574 -1.0364  0.0879
   38CHL1  H18C 2768   3.436   0.561   7.577 -0.9433 -1.0599 -0.8713
   38CHL1   C12 2769   3.424   0.772   7.399  0.6044  0.3630 -0.4851
   38CHL1  H12A 2770   3.340   0.773   7.472  1.4847 -1.2311  0.5641
   38CHL1  H12B 2771   3.441   0.880   7.378  1.9086 -0.0700 -1.7098
   38CHL1   C11 2772   3.379   0.702   7.266  0.1949  0.5972  0.4364
   38CHL1  H11A 2773   3.351   0.600   7.297  2.2357 -0.7145 -1.8385
   38CHL1  H11B 2774   3.297   0.758   7.216  0.6654 -0.9781 -2.1964
   38CHL1    C9 2775   3.484   0.694   7.154 -0.5562  0.2369 -0.7994
   38CHL1    H9 2776   3.519   0.798   7.138  0.0847  0.1441 -0.0282
   38CHL1   C10 2777   3.432   0.641   7.022 -0.7545 -0.3751 -0.2072
   38CHL1   C19 2778   3.335   0.526   7.054 -0.3714 -0.0751 -0.1987
   38CHL1  H19A 2779   3.248   0.547   7.120  0.6165  1.3583  0.6893
   38CHL1  H19B 2780   3.289   0.500   6.956  1.8782  1.2096 -1.6416
   38CHL1  H19C 2781   3.378   0.430   7.089 -2.6891 -0.9388  0.3925
   38CHL1    C1 2782   3.355   0.756   6.945 -1.0202 -0.4085 -0.2877
   38CHL1   H1A 2783   3.262   0.781   7.001  0.1759 -0.3004  1.6945
   38CHL1   H1B 2784   3.419   0.846   6.955  0.4691 -1.4854 -0.0239
   38CHL1    C2 2785   3.318   0.733   6.796  0.4879 -0.2030  1.2607
   38CHL1   H2A 2786   3.281   0.830   6.757 -0.8564 -1.0618  0.3393
   38CHL1   H2B 2787   3.231   0.663   6.796 -0.1925  0.6159 -1.1584
   38CHL1   C20 2788   3.614   0.785   7.701  0.1527  1.1739  0.6069
   38CHL1   H20 2789   3.604   0.687   7.751  0.8650  0.0416 -1.4083
   38CHL1   C21 2790   3.476   0.856   7.729 -0.3474  0.3464 -0.8037
   38CHL1  H21A 2791   3.476   0.959   7.687  2.9715  0.5247 -0.5243
   38CHL1  H21B 2792   3.455   0.873   7.836 -0.9730  1.4660 -1.0925
   38CHL1  H21C 2793   3.396   0.796   7.680 -0.5121 -1.8140  1.9636
   38CHL1   C22 2794   3.723   0.868   7.783 -0.2151 -0.4069 -0.3196
   38CHL1  H22A 2795   3.823   0.839   7.745  1.3535  4.1981 -0.0505
   38CHL1  H22B 2796   3.715   0.975   7.755 -0.8471 -0.1440  0.8164
   38CHL1   C23 2797   3.705   0.850   7.929  0.5107 -0.2563 -0.3080
   38CHL1  H23A 2798   3.651   0.936   7.973  0.0091 -1.2572  1.0708
   38CHL1  H23B 2799   3.653   0.753   7.945  0.4273  0.2418  2.8195
   38CHL1   C24 2800   3.840   0.833   8.010  0.3445 -0.2022  0.2590
   38CHL1  H24A 2801   3.882   0.749   7.951 -0.1473 -0.3194  0.0718
   38CHL1  H24B 2802   3.897   0.928   8.000  1.1820 -0.4235  2.6753
   38CHL1   C25 2803   3.814   0.784   8.149  0.2246 -0.4497  0.1031
   38CHL1   H25 2804   3.771   0.682   8.143  0.2359 -0.6845  3.1361
   38CHL1   C26 2805   3.956   0.770   8.217 -0.2855 -0.8184  0.4907
   38CHL1  H26A 2806   4.015   0.864   8.211  0.3976 -1.3343 -0.8959
   38CHL1  H26B 2807   3.946   0.744   8.325 -1.5041  1.2061  0.8863
   38CHL1  H26C 2808   4.005   0.680   8.174  0.5354  0.4331 -1.2351
   38CHL1   C27 2809   3.730   0.880   8.232  0.0594 -0.1161 -0.1616
   38CHL1  H27A 2810   3.629   0.888   8.186 -1.1681 -0.6214  2.3738
   38CHL1  H27B 2811   3.718   0.831   8.331 -0.5691 -3.4684 -1.8208
   38CHL1  H27C 2812   3.783   0.975   8.256 -0.7480  0.1874  0.4444
   39CHL1    C3 2813   3.215   6.263   6.840  0.4411  0.9241  0.2072
   39CHL1    H3 2814   3.325   6.280   6.843  0.5819 -0.0043  0.3175
   39CHL1    O3 2815   3.177   6.205   6.714  0.5816  0.3253 -0.3395
   39CHL1   H3' 2816   3.235   6.129   6.720 -1.0580 -0.8358  1.3311
   39CHL1    C4 2817   3.174   6.160   6.947 -0.2591  0.2805 -0.3713
   39CHL1   H4A 2818   3.067   6.134   6.929  0.3827 -0.6769 -3.1890
   39CHL1   H4B 2819   3.228   6.063   6.934  0.0901  0.2431  1.2869
   39CHL1    C5 2820   3.188   6.213   7.091  0.4817  0.2377  0.0768
   39CHL1    C6 2821   3.252   6.147   7.190 -0.1212  0.0709 -0.2057
   39CHL1    H6 2822   3.294   6.048   7.170 -0.8487 -0.3746  0.4186
   39CHL1    C7 2823   3.258   6.185   7.331  0.1394 -0.6582 -0.4955
   39CHL1   H7A 2824   3.232   6.101   7.399  0.0536  0.7181  1.2156
   39CHL1   H7B 2825   3.362   6.215   7.353 -0.3507  1.3816 -0.8497
   39CHL1    C8 2826   3.155   6.298   7.358 -0.0516  0.0295 -0.5822
   39CHL1    H8 2827   3.055   6.250   7.368  0.5573 -1.6138 -2.1073
   39CHL1   C14 2828   3.204   6.360   7.486  0.7732 -0.2891 -0.5373
   39CHL1   H14 2829   3.299   6.413   7.462  0.9560 -0.4176 -0.1113
   39CHL1   C15 2830   3.237   6.266   7.605 -0.8295  0.1365  0.0902
   39CHL1  H15A 2831   3.169   6.179   7.620 -0.5113 -0.0242  0.6327
   39CHL1  H15B 2832   3.339   6.222   7.595 -0.3054  1.6313 -1.4395
   39CHL1   C16 2833   3.240   6.360   7.725 -0.3328 -0.4803 -0.9514
   39CHL1  H16A 2834   3.164   6.319   7.794 -0.7359 -3.8013 -3.2632
   39CHL1  H16B 2835   3.344   6.363   7.765 -1.3117  1.9743  1.6359
   39CHL1   C17 2836   3.199   6.505   7.675  0.1380  0.0647 -0.8027
   39CHL1   H17 2837   3.295   6.552   7.644  0.0130  1.3194  0.6777
   39CHL1   C13 2838   3.115   6.471   7.541 -0.6435  0.5165  0.3107
   39CHL1   C18 2839   2.970   6.420   7.574 -0.1112  0.6240  0.4083
   39CHL1  H18A 2840   2.903   6.507   7.589 -1.3377 -0.1978 -0.1947
   39CHL1  H18B 2841   2.936   6.354   7.491  2.2434 -0.4412  0.2454
   39CHL1  H18C 2842   2.974   6.368   7.673  4.1609  0.6252  0.3246
   39CHL1   C12 2843   3.107   6.585   7.435 -0.1595  0.8753  0.7706
   39CHL1  H12A 2844   3.025   6.649   7.474 -1.5196 -0.1484 -0.3482
   39CHL1  H12B 2845   3.203   6.640   7.432 -0.8733  2.0632 -0.9631
   39CHL1   C11 2846   3.064   6.533   7.296 -0.0212 -0.7120 -0.0571
   39CHL1  H11A 2847   2.957   6.503   7.294 -0.3587  0.5454 -1.2752
   39CHL1  H11B 2848   3.073   6.608   7.215  0.4289 -0.6904  0.0140
   39CHL1    C9 2849   3.153   6.412   7.248 -0.3028  0.2917  0.0119
   39CHL1    H9 2850   3.256   6.453   7.247 -0.0325 -0.3781  0.2676
   39CHL1   C10 2851   3.121   6.355   7.112 -0.4525  0.2092  0.7588
   39CHL1   C19 2852   2.970   6.332   7.109  0.2825  0.3558  0.7821
   39CHL1  H19A 2853   2.901   6.418   7.119  1.3595  1.8682 -3.4877
   39CHL1  H19B 2854   2.934   6.292   7.012 -0.6452  0.2932  1.1521
   39CHL1  H19C 2855   2.938   6.259   7.186  0.4162 -1.1178 -0.5188
   39CHL1    C1 2856   3.169   6.447   6.999  0.7606 -0.1780 -0.9060
   39CHL1   H1A 2857   3.112   6.541   7.008  0.9021 -0.2408  0.8466
   39CHL1   H1B 2858   3.277   6.470   7.010  0.9744 -1.8517  0.9494
   39CHL1    C2 2859   3.147   6.393   6.858  0.0517 -0.7777 -0.2215
   39CHL1   H2A 2860   3.182   6.462   6.778  0.6594 -0.3826  0.3751
   39CHL1   H2B 2861   3.038   6.373   6.855 -0.5401  1.6494  2.6827
   39CHL1   C20 2862   3.142   6.587   7.782  0.0138  0.0628 -0.2075
   39CHL1   H20 2863   3.042   6.546   7.806  0.6063  0.2898  2.8409
   39CHL1   C21 2864   3.110   6.729   7.720  0.2319  0.0377  0.4632
   39CHL1  H21A 2865   3.196   6.761   7.657  1.0054  1.1254  2.0387
   39CHL1  H21B 2866   3.099   6.799   7.805  0.3281  2.3768 -1.4091
   39CHL1  H21C 2867   3.008   6.735   7.677 -0.2176  1.4026  1.6814
   39CHL1   C22 2868   3.220   6.594   7.915 -0.2501  0.1121  0.1504
   39CHL1  H22A 2869   3.169   6.655   7.992 -1.3437 -0.3386 -0.2104
   39CHL1  H22B 2870   3.227   6.491   7.957 -3.3930 -0.5793 -0.9053
   39CHL1   C23 2871   3.364   6.641   7.895 -0.0070 -0.3278 -0.0689
   39CHL1  H23A 2872   3.429   6.573   7.837  1.5917  0.6247  0.5736
   39CHL1  H23B 2873   3.369   6.733   7.833 -2.2066  0.0742  0.3024
   39CHL1   C24 2874   3.442   6.676   8.027 -0.6400  0.9480 -0.3855
   39CHL1  H24A 2875   3.529   6.739   7.998 -0.3088 -0.4036 -2.4770
   39CHL1  H24B 2876   3.390   6.749   8.092 -0.8571  0.4139  0.0445
   39CHL1   C25 2877   3.487   6.553   8.107  0.2355  0.5094 -0.2965
   39CHL1   H25 2878   3.393   6.515   8.152  1.4850 -0.6055  1.4191
   39CHL1   C26 2879   3.561   6.441   8.037  0.2262  0.7079 -1.2118
   39CHL1  H26A 2880   3.510   6.396   7.949 -0.4714 -1.5059  0.2710
   39CHL1  H26B 2881   3.660   6.477   8.004  0.4560  1.2441  0.0281
   39CHL1  H26C 2882   3.590   6.358   8.106 -0.2865 -0.9914 -3.0137
   39CHL1   C27 2883   3.574   6.609   8.216 -0.4776 -0.1653  0.0710
   39CHL1  H27A 2884   3.598   6.532   8.292 -0.5412  1.6226  1.9484
   39CHL1  H27B 2885   3.671   6.642   8.175 -0.6198 -0.5909 -0.6097
   39CHL1  H27C 2886   3.525   6.694   8.268 -0.4637  0.8884 -1.6054
   40CHL1    C3 2887   5.736   5.242   6.986  0.2715  0.7534 -0.1466
   40CHL1    H3 2888   5.659   5.276   7.059  1.6292  1.9927  0.7574
   40CHL1    O3 2889   5.701   5.255   6.848  1.5781 -0.2484 -0.6021
   40CHL1   H3' 2890   5.784   5.271   6.803  0.5382  0.8355 -2.1805
   40CHL1    C4 2891   5.863   5.329   7.019 -0.2563  0.3249  0.3081
   40CHL1   H4A 2892   5.938   5.292   6.946  0.1411 -0.7220  1.2234
   40CHL1   H4B 2893   5.836   5.433   6.993  1.2420  0.8842  0.9123
   40CHL1    C5 2894   5.919   5.307   7.159 -0.3700  0.6498 -0.5195
   40CHL1    C6 2895   5.937   5.415   7.234 -0.9023  0.6934  0.0445
   40CHL1    H6 2896   5.924   5.515   7.190  0.2522  0.6993 -0.3025
   40CHL1    C7 2897   5.974   5.406   7.378 -1.2124 -0.7394  0.2355
   40CHL1   H7A 2898   6.068   5.460   7.401  0.7662 -3.1954 -1.7827
   40CHL1   H7B 2899   5.897   5.450   7.445 -1.8866 -2.4540  0.6062
   40CHL1    C8 2900   6.017   5.265   7.431 -0.4937  0.2675  0.5877
   40CHL1    H8 2901   6.123   5.244   7.404 -0.8020 -0.0323 -0.4112
   40CHL1   C14 2902   6.011   5.255   7.579 -0.5295 -0.3829  0.3309
   40CHL1   H14 2903   5.910   5.275   7.619 -0.5419  0.8869 -0.3210
   40CHL1   C15 2904   6.093   5.364   7.652 -0.3402  0.8389  0.0914
   40CHL1  H15A 2905   6.191   5.373   7.601 -1.9700 -2.0443 -3.8765
   40CHL1  H15B 2906   6.040   5.461   7.646  0.4548  1.1418 -2.8597
   40CHL1   C16 2907   6.097   5.299   7.798 -0.4928  0.0534  0.8342
   40CHL1  H16A 2908   6.196   5.293   7.848 -0.4579 -3.0922  0.5176
   40CHL1  H16B 2909   6.024   5.362   7.855 -1.3196 -0.3184  0.2033
   40CHL1   C17 2910   6.025   5.159   7.796 -0.4155  0.4171  0.0432
   40CHL1   H17 2911   5.916   5.173   7.812 -0.5518 -0.9833  0.4790
   40CHL1   C13 2912   6.040   5.119   7.647 -0.2147 -0.4995  0.1180
   40CHL1   C18 2913   6.187   5.088   7.623  0.3370  0.7202 -0.4848
   40CHL1  H18A 2914   6.205   5.108   7.515  0.9239  2.0496 -0.1517
   40CHL1  H18B 2915   6.260   5.146   7.684 -0.8654  1.1748  0.5485
   40CHL1  H18C 2916   6.222   4.985   7.644  0.1390  1.0832  1.8015
   40CHL1   C12 2917   5.944   5.017   7.588  0.0085  0.1962  0.2679
   40CHL1  H12A 2918   5.995   4.922   7.617  0.8906  0.7692  0.5856
   40CHL1  H12B 2919   5.841   5.011   7.630 -0.7997 -0.6571 -1.7696
   40CHL1   C11 2920   5.948   5.021   7.435  0.0113 -0.0389 -1.0397
   40CHL1  H11A 2921   6.048   4.981   7.407 -0.4835 -0.3592 -2.4265
   40CHL1  H11B 2922   5.869   4.955   7.391 -1.1546  0.8734 -0.3433
   40CHL1    C9 2923   5.926   5.158   7.370  0.2958 -0.1849  0.0879
   40CHL1    H9 2924   5.819   5.181   7.391  0.5206 -1.3943  2.7617
   40CHL1   C10 2925   5.923   5.163   7.213 -0.0609  0.2271 -0.5478
   40CHL1   C19 2926   6.051   5.104   7.160  0.4909 -0.4198 -0.0276
   40CHL1  H19A 2927   6.057   4.995   7.184  1.1038 -0.1766  0.9494
   40CHL1  H19B 2928   6.063   5.113   7.050 -0.6702  2.7466  0.0468
   40CHL1  H19C 2929   6.137   5.149   7.216  0.9968  0.0956 -1.2014
   40CHL1    C1 2930   5.798   5.084   7.173 -0.2227 -0.1369  0.0094
   40CHL1   H1A 2931   5.833   4.979   7.182 -0.9434 -0.2212  2.0991
   40CHL1   H1B 2932   5.711   5.108   7.237  0.2934  1.1576  0.2381
   40CHL1    C2 2933   5.757   5.100   7.025 -0.4141  0.2983  0.5451
   40CHL1   H2A 2934   5.663   5.042   7.014  1.6093 -3.2067  1.0449
   40CHL1   H2B 2935   5.825   5.065   6.944  0.7068  0.7362  1.2818
   40CHL1   C20 2936   6.070   5.065   7.910 -0.1646  0.4722  0.1189
   40CHL1   H20 2937   6.175   5.032   7.893  0.0184  1.1818 -0.1428
   40CHL1   C21 2938   5.976   4.941   7.905  0.1791  0.0378 -0.0523
   40CHL1  H21A 2939   5.999   4.894   7.808  0.5405 -0.5224  0.3023
   40CHL1  H21B 2940   5.868   4.966   7.918  0.3702  2.4921 -2.7801
   40CHL1  H21C 2941   6.007   4.870   7.985 -0.4194  0.8661  0.9355
   40CHL1   C22 2942   6.060   5.127   8.054 -0.3325 -0.7462 -0.3390
   40CHL1  H22A 2943   6.074   5.056   8.138 -2.2545 -0.5294  0.1881
   40CHL1  H22B 2944   6.139   5.204   8.061  0.3255 -1.4231 -0.2321
   40CHL1   C23 2945   5.929   5.205   8.092 -0.3456 -0.3086  0.0288
   40CHL1  H23A 2946   5.981   5.274   8.162  2.3602 -1.2032 -1.0386
   40CHL1  H23B 2947   5.884   5.268   8.012 -0.2167  1.0980  1.0370
   40CHL1   C24 2948   5.822   5.117   8.157 -0.2072 -0.1935 -0.3224
   40CHL1  H24A 2949   5.723   5.152   8.122 -0.5353 -1.0403 -0.2330
   40CHL1  H24B 2950   5.832   5.009   8.131 -1.2234 -0.3901  0.0952
   40CHL1   C25 2951   5.821   5.135   8.309 -0.1916 -0.5078 -0.0265
   40CHL1   H25 2952   5.833   5.244   8.327 -0.5193 -0.9302  2.9478
   40CHL1   C26 2953   5.681   5.112   8.369 -0.1110  0.6570 -0.0920
   40CHL1  H26A 2954   5.607   5.188   8.338  0.3530  1.5186  0.8496
   40CHL1  H26B 2955   5.649   5.005   8.370  1.4479  0.1691  0.1410
   40CHL1  H26C 2956   5.692   5.133   8.478 -1.4325  2.2083 -0.2602
   40CHL1   C27 2957   5.928   5.071   8.398 -0.1285  0.4632 -0.3691
   40CHL1  H27A 2958   5.889   5.032   8.495  1.9999 -2.1857 -0.4973
   40CHL1  H27B 2959   5.974   4.987   8.341 -0.9204  0.4763 -1.0261
   40CHL1  H27C 2960   6.004   5.149   8.419 -0.3365  0.4823  0.3226
   41CHL1    C3 2961   6.631   5.446   7.106  0.0409  0.1680  0.2159
   41CHL1    H3 2962   6.734   5.477   7.079  0.3233 -2.6197 -2.2201
   41CHL1    O3 2963   6.560   5.458   6.983 -0.2533 -0.4169 -0.4946
   41CHL1   H3' 2964   6.593   5.395   6.919 -2.0336 -0.8770 -0.9836
   41CHL1    C4 2965   6.617   5.299   7.155  0.2401 -0.3266 -0.0553
   41CHL1   H4A 2966   6.511   5.267   7.148 -0.3304  1.5801 -0.5833
   41CHL1   H4B 2967   6.680   5.244   7.081  2.5651  0.4903  1.2484
   41CHL1    C5 2968   6.655   5.281   7.297 -0.5578 -0.2486 -0.1321
   41CHL1    C6 2969   6.751   5.195   7.336 -0.4756 -0.1770 -0.0547
   41CHL1    H6 2970   6.800   5.133   7.260 -2.4041 -0.9640 -0.6975
   41CHL1    C7 2971   6.775   5.168   7.482  0.0521 -0.3277  0.0691
   41CHL1   H7A 2972   6.795   5.060   7.499 -1.6407 -1.0501 -2.3093
   41CHL1   H7B 2973   6.868   5.229   7.490 -1.0089  1.2019  1.2636
   41CHL1    C8 2974   6.678   5.236   7.587  0.2432  0.3399  0.1780
   41CHL1    H8 2975   6.582   5.181   7.589 -1.0257  2.3093 -2.3981
   41CHL1   C14 2976   6.735   5.235   7.731 -0.3875  0.6519  0.2937
   41CHL1   H14 2977   6.830   5.293   7.733  1.0186 -1.6200  0.9271
   41CHL1   C15 2978   6.788   5.109   7.793 -0.2422  0.1866  0.0316
   41CHL1  H15A 2979   6.713   5.027   7.802  1.7238 -1.4620  1.5286
   41CHL1  H15B 2980   6.877   5.063   7.745 -0.0914 -1.3095  1.6805
   41CHL1   C16 2981   6.809   5.147   7.943  0.0288  0.4615 -1.2185
   41CHL1  H16A 2982   6.763   5.072   8.010 -0.3199  0.1151 -1.8366
   41CHL1  H16B 2983   6.917   5.158   7.965 -0.4469  2.7447  0.1126
   41CHL1   C17 2984   6.737   5.280   7.965 -0.1587 -0.3827 -0.0390
   41CHL1   H17 2985   6.821   5.353   7.957 -0.0117 -0.6109 -0.6078
   41CHL1   C13 2986   6.649   5.313   7.837  0.2313  0.3930 -0.0922
   41CHL1   C18 2987   6.521   5.234   7.851 -0.2859 -0.0171  0.0308
   41CHL1  H18A 2988   6.464   5.285   7.932 -0.5576  0.0586 -0.2072
   41CHL1  H18B 2989   6.460   5.236   7.758 -0.5593  0.9251  0.2254
   41CHL1  H18C 2990   6.532   5.127   7.876  0.4921 -0.5364 -2.3906
   41CHL1   C12 2991   6.627   5.460   7.789  0.3315  0.7500 -0.4086
   41CHL1  H12A 2992   6.555   5.505   7.860  1.3427  0.1494  1.0316
   41CHL1  H12B 2993   6.727   5.508   7.785  0.4201  0.6105  0.0452
   41CHL1   C11 2994   6.568   5.457   7.648  0.2755 -0.5999 -0.2227
   41CHL1  H11A 2995   6.467   5.411   7.658  0.1182 -0.6442 -1.9069
   41CHL1  H11B 2996   6.553   5.559   7.606 -4.0627 -0.9417  0.2679
   41CHL1    C9 2997   6.647   5.380   7.540  0.7480 -0.3730 -0.1699
   41CHL1    H9 2998   6.742   5.436   7.537  0.0985  0.7719  0.1094
   41CHL1   C10 2999   6.580   5.375   7.401 -0.2023 -0.3710  0.5560
   41CHL1   C19 3000   6.428   5.340   7.413  0.0100 -0.0219 -0.4082
   41CHL1  H19A 3001   6.376   5.422   7.468 -1.3687 -0.4608 -1.0474
   41CHL1  H19B 3002   6.376   5.328   7.316  0.2364 -0.2027 -0.5064
   41CHL1  H19C 3003   6.422   5.237   7.454 -1.1642  0.1671 -0.0764
   41CHL1    C1 3004   6.590   5.520   7.344  0.0405  0.2723  0.3139
   41CHL1   H1A 3005   6.513   5.578   7.399 -0.1055 -0.8046  1.2632
   41CHL1   H1B 3006   6.683   5.572   7.377 -0.0284 -0.1584  1.1937
   41CHL1    C2 3007   6.560   5.543   7.197  0.5438 -0.1795  0.2455
   41CHL1   H2A 3008   6.594   5.642   7.160 -0.8261  0.7483  1.4470
   41CHL1   H2B 3009   6.450   5.533   7.185  0.6651 -1.7915  0.2744
   41CHL1   C20 3010   6.679   5.309   8.103  0.1318  0.2066  0.0640
   41CHL1   H20 3011   6.580   5.259   8.104  0.8042 -1.1168  1.0271
   41CHL1   C21 3012   6.654   5.457   8.137 -0.1271  0.4304  0.7686
   41CHL1  H21A 3013   6.751   5.502   8.165 -0.4387  0.6022  1.6152
   41CHL1  H21B 3014   6.595   5.462   8.231  1.6314  1.5315  1.8427
   41CHL1  H21C 3015   6.603   5.515   8.056  0.9666  0.5810  0.1904
   41CHL1   C22 3016   6.768   5.261   8.219  0.1144 -0.4117 -0.5271
   41CHL1  H22A 3017   6.768   5.150   8.213 -0.6085 -0.3677 -1.3538
   41CHL1  H22B 3018   6.874   5.293   8.206 -0.6181  1.4230 -2.1661
   41CHL1   C23 3019   6.713   5.299   8.361  0.5151  0.1770  0.0334
   41CHL1  H23A 3020   6.742   5.402   8.389 -1.9075  1.2179 -1.1538
   41CHL1  H23B 3021   6.602   5.293   8.363  0.3403  2.3010 -1.8820
   41CHL1   C24 3022   6.767   5.200   8.466  0.0422 -0.4460  0.6488
   41CHL1  H24A 3023   6.741   5.096   8.439 -0.4467 -0.1595 -0.0298
   41CHL1  H24B 3024   6.878   5.205   8.473  0.0409  1.9259 -0.4381
   41CHL1   C25 3025   6.716   5.228   8.607  0.0063 -0.0976 -0.5907
   41CHL1   H25 3026   6.661   5.324   8.619 -0.7197 -0.5889  0.0556
   41CHL1   C26 3027   6.617   5.125   8.651 -0.3502 -0.1402 -0.5624
   41CHL1  H26A 3028   6.529   5.110   8.585  0.3520 -0.0625 -1.5346
   41CHL1  H26B 3029   6.660   5.023   8.662 -1.6416 -0.6425 -0.0885
   41CHL1  H26C 3030   6.579   5.145   8.754  2.6055  1.2457  0.3190
   41CHL1   C27 3031   6.832   5.215   8.706  0.1312  1.2366  0.3930
   41CHL1  H27A 3032   6.803   5.249   8.808 -0.2671 -0.9336  1.0327
   41CHL1  H27B 3033   6.878   5.118   8.735 -0.6909  1.4247  2.4151
   41CHL1  H27C 3034   6.914   5.282   8.673  1.1173 -0.3198 -0.3712
   42CHL1    C3 3035   1.038   2.824   7.068 -0.0142 -0.2493 -0.0667
   42CHL1    H3 3036   1.005   2.915   7.124 -0.9881 -0.5884 -0.0699
   42CHL1    O3 3037   0.981   2.810   6.933 -0.5866 -0.1486 -0.2300
   42CHL1   H3' 3038   1.040   2.850   6.868  1.3123 -2.2597  0.1280
   42CHL1    C4 3039   1.188   2.831   7.051  0.6847  0.2855 -0.3311
   42CHL1   H4A 3040   1.210   2.744   6.986 -2.4965 -1.6076  0.9693
   42CHL1   H4B 3041   1.209   2.921   6.990 -0.7966  0.7529 -0.1882
   42CHL1    C5 3042   1.261   2.827   7.183  0.5243  0.5729 -0.0356
   42CHL1    C6 3043   1.336   2.934   7.218  0.4761  0.3348 -0.2484
   42CHL1    H6 3044   1.352   3.017   7.148  2.4088  0.0686 -0.1270
   42CHL1    C7 3045   1.417   2.933   7.347  0.0229 -0.0690 -0.2113
   42CHL1   H7A 3046   1.518   2.979   7.335 -0.2045  0.8867  1.3903
   42CHL1   H7B 3047   1.361   3.004   7.411  0.1249 -0.3942  0.2354
   42CHL1    C8 3048   1.424   2.802   7.419 -0.2103  0.4573 -0.3705
   42CHL1    H8 3049   1.503   2.736   7.376  1.3328  1.8947  0.2064
   42CHL1   C14 3050   1.463   2.836   7.565  0.0535  0.1967 -0.4908
   42CHL1   H14 3051   1.381   2.903   7.600 -0.0759 -1.0213  1.6111
   42CHL1   C15 3052   1.592   2.909   7.590 -0.1438  0.8805  0.3910
   42CHL1  H15A 3053   1.667   2.876   7.515  1.8374  2.6324  1.5225
   42CHL1  H15B 3054   1.584   3.019   7.572  0.0747  1.0886  1.5390
   42CHL1   C16 3055   1.623   2.883   7.735 -0.0594 -0.7773  0.3153
   42CHL1  H16A 3056   1.723   2.834   7.725  0.8794  1.2127 -0.3574
   42CHL1  H16B 3057   1.616   2.979   7.791 -1.0684 -0.8727  0.3480
   42CHL1   C17 3058   1.516   2.782   7.794  0.3622  0.1488  0.7782
   42CHL1   H17 3059   1.440   2.854   7.831 -1.4526 -2.6872  2.8060
   42CHL1   C13 3060   1.462   2.718   7.663 -0.5475 -0.4398  0.6078
   42CHL1   C18 3061   1.567   2.605   7.625  0.4484  0.5296 -0.6474
   42CHL1  H18A 3062   1.569   2.528   7.706 -2.0374 -0.5387 -1.5342
   42CHL1  H18B 3063   1.551   2.554   7.528 -0.2795 -0.4525 -0.0270
   42CHL1  H18C 3064   1.670   2.644   7.615  1.1665 -1.3208 -0.5494
   42CHL1   C12 3065   1.326   2.656   7.657  0.2432  0.0278  0.0956
   42CHL1  H12A 3066   1.333   2.567   7.724  1.1148 -0.1964 -0.2844
   42CHL1  H12B 3067   1.259   2.732   7.701 -0.1355  0.0601 -0.5336
   42CHL1   C11 3068   1.278   2.612   7.518 -0.1769 -0.4800 -0.0730
   42CHL1  H11A 3069   1.333   2.518   7.496 -2.2013 -2.1683  1.8785
   42CHL1  H11B 3070   1.168   2.598   7.527 -0.2029 -1.2342 -1.4290
   42CHL1    C9 3071   1.282   2.734   7.416 -0.4411 -0.4007 -0.7436
   42CHL1    H9 3072   1.217   2.813   7.459 -2.1723 -0.8968 -2.3793
   42CHL1   C10 3073   1.229   2.708   7.273  0.5296 -0.2565 -0.0445
   42CHL1   C19 3074   1.294   2.576   7.219  0.1664  0.4868  0.0110
   42CHL1  H19A 3075   1.264   2.489   7.282  2.3669 -2.2247 -2.5559
   42CHL1  H19B 3076   1.268   2.550   7.114  0.7284  1.2973 -0.3284
   42CHL1  H19C 3077   1.404   2.589   7.217 -0.0683  2.6406 -0.5038
   42CHL1    C1 3078   1.077   2.697   7.279 -0.3204 -0.2656 -0.0365
   42CHL1   H1A 3079   1.059   2.609   7.345 -2.1672 -0.0638 -0.2218
   42CHL1   H1B 3080   1.034   2.788   7.326  0.0545  0.7259 -1.5628
   42CHL1    C2 3081   1.001   2.695   7.145  0.3775 -0.0812 -0.1006
   42CHL1   H2A 3082   0.893   2.693   7.169  0.0571  1.7000 -1.3393
   42CHL1   H2B 3083   1.009   2.595   7.095 -0.7611  0.4522 -1.3925
   42CHL1   C20 3084   1.552   2.689   7.916 -0.6463 -0.8909 -0.3276
   42CHL1   H20 3085   1.606   2.594   7.895  0.2355 -0.6108  0.6188
   42CHL1   C21 3086   1.426   2.641   7.989 -0.0300  0.0726 -0.0849
   42CHL1  H21A 3087   1.382   2.544   7.959  0.2659  0.0646 -0.5180
   42CHL1  H21B 3088   1.344   2.711   7.963 -0.8952 -0.4530  1.2100
   42CHL1  H21C 3089   1.441   2.659   8.097  2.9777  3.0490 -0.8850
   42CHL1   C22 3090   1.646   2.760   8.010  0.4267  0.3526 -0.0472
   42CHL1  H22A 3091   1.722   2.808   7.947  1.0989  0.6337  0.9670
   42CHL1  H22B 3092   1.595   2.833   8.076 -0.1433  1.0316 -1.2251
   42CHL1   C23 3093   1.714   2.664   8.115  0.1303 -0.5029  0.6941
   42CHL1  H23A 3094   1.648   2.635   8.199  0.6670 -2.0838  0.5829
   42CHL1  H23B 3095   1.742   2.571   8.062 -0.8823  0.2853 -1.2732
   42CHL1   C24 3096   1.843   2.732   8.170  0.1396  0.8885  0.1964
   42CHL1  H24A 3097   1.901   2.768   8.082 -1.5307 -1.1610 -1.7986
   42CHL1  H24B 3098   1.809   2.821   8.227  0.2128 -0.0657  1.7680
   42CHL1   C25 3099   1.929   2.641   8.258  0.5287  0.4344 -0.0404
   42CHL1   H25 3100   2.006   2.709   8.301 -0.9601  0.4162  2.7313
   42CHL1   C26 3101   1.856   2.599   8.394  0.6799  0.0268  0.4318
   42CHL1  H26A 3102   1.937   2.543   8.444 -0.3616 -0.4467  1.6036
   42CHL1  H26B 3103   1.831   2.696   8.443  1.4873  1.3705 -1.6884
   42CHL1  H26C 3104   1.771   2.529   8.379 -0.5600  1.7425 -0.8001
   42CHL1   C27 3105   1.988   2.516   8.187 -0.2369  0.0580 -0.1338
   42CHL1  H27A 3106   2.067   2.469   8.250 -0.7982 -1.3373 -0.4580
   42CHL1  H27B 3107   2.036   2.544   8.091  0.8016 -0.7253  0.1413
   42CHL1  H27C 3108   1.905   2.447   8.160 -0.8363  0.3787  0.8727
   43CHL1    C3 3109   1.178   0.090   6.939 -0.6294 -0.5801  0.0514
   43CHL1    H3 3110   1.170   0.182   7.002  0.2559 -1.0636  0.8805
   43CHL1    O3 3111   1.234   0.124   6.811  0.4494 -0.4208 -0.2635
   43CHL1   H3' 3112   1.273   0.042   6.777  0.8136 -0.1257 -0.5644
   43CHL1    C4 3113   1.263  -0.017   7.007  0.2316 -0.0968 -0.3434
   43CHL1   H4A 3114   1.269  -0.107   6.942  0.6692 -1.1682  1.1343
   43CHL1   H4B 3115   1.366   0.025   7.009 -0.0493  0.6012  1.8429
   43CHL1    C5 3116   1.210  -0.052   7.140  0.7010 -0.9269 -0.2941
   43CHL1    C6 3117   1.285  -0.042   7.247 -0.3768  0.0153  0.1808
   43CHL1    H6 3118   1.388  -0.003   7.243 -0.9117  1.6289  1.7972
   43CHL1    C7 3119   1.235  -0.076   7.380  0.0514  0.2539 -0.8246
   43CHL1   H7A 3120   1.304  -0.149   7.427  0.8957  2.7638  2.0373
   43CHL1   H7B 3121   1.244   0.014   7.444 -1.5862 -1.7730  2.4236
   43CHL1    C8 3122   1.095  -0.148   7.379  0.7907  0.2952  0.8086
   43CHL1    H8 3123   1.132  -0.248   7.346  1.8775  0.7561  0.6181
   43CHL1   C14 3124   1.028  -0.165   7.517 -0.4612 -0.2076 -0.8713
   43CHL1   H14 3125   0.995  -0.064   7.548  2.2240  0.7619 -1.0189
   43CHL1   C15 3126   1.109  -0.229   7.635 -0.4109  0.0458  0.5873
   43CHL1  H15A 3127   1.143  -0.331   7.609  1.9233  0.7065  0.9424
   43CHL1  H15B 3128   1.194  -0.163   7.665 -0.3379  0.5719 -0.7502
   43CHL1   C16 3129   1.012  -0.242   7.749  0.2136  0.1979 -0.5686
   43CHL1  H16A 3130   1.032  -0.342   7.792 -0.5900  0.1890 -0.2052
   43CHL1  H16B 3131   1.022  -0.161   7.823  0.1903 -0.3234  0.0069
   43CHL1   C17 3132   0.869  -0.246   7.679  0.2239  0.5546  0.2624
   43CHL1   H17 3133   0.834  -0.142   7.698  1.3900  0.8874  0.6472
   43CHL1   C13 3134   0.897  -0.241   7.528  0.2205 -0.8968 -0.2270
   43CHL1   C18 3135   0.898  -0.388   7.478  0.0077  0.0293  0.1320
   43CHL1  H18A 3136   0.939  -0.393   7.375 -1.4289  1.5973 -0.5353
   43CHL1  H18B 3137   0.958  -0.463   7.535 -1.2105 -1.7662 -0.9064
   43CHL1  H18C 3138   0.796  -0.432   7.477  0.7695 -1.8435  1.7828
   43CHL1   C12 3139   0.796  -0.161   7.442 -0.2628 -0.8994  0.2610
   43CHL1  H12A 3140   0.695  -0.206   7.432  0.0761 -0.9352 -3.8166
   43CHL1  H12B 3141   0.779  -0.060   7.486 -2.9630  0.4248 -3.6069
   43CHL1   C11 3142   0.850  -0.145   7.295 -0.2661 -0.3784  0.1726
   43CHL1  H11A 3143   0.851  -0.246   7.247 -1.1446 -1.0289  1.4949
   43CHL1  H11B 3144   0.772  -0.087   7.240 -0.2846  0.0798  0.6808
   43CHL1    C9 3145   0.995  -0.082   7.281 -0.4217 -0.2378  0.7798
   43CHL1    H9 3146   0.983   0.028   7.294 -0.4409  0.0556 -1.4853
   43CHL1   C10 3147   1.058  -0.087   7.137  0.5645 -0.0643 -0.0752
   43CHL1   C19 3148   1.047  -0.234   7.076 -0.1139 -0.3686  0.1580
   43CHL1  H19A 3149   1.108  -0.301   7.141 -0.3077  0.6863  1.4467
   43CHL1  H19B 3150   0.942  -0.269   7.064 -0.3821  0.6433 -0.4142
   43CHL1  H19C 3151   1.094  -0.231   6.976  0.6133 -1.7015  0.4475
   43CHL1    C1 3152   0.984   0.020   7.048 -0.4550  0.4697  0.1448
   43CHL1   H1A 3153   0.877  -0.009   7.038 -0.9003  0.8518  3.3432
   43CHL1   H1B 3154   0.984   0.114   7.108  0.0452 -1.8922  4.0442
   43CHL1    C2 3155   1.045   0.049   6.914 -0.6832 -0.5535  1.0040
   43CHL1   H2A 3156   0.986   0.124   6.857  1.1911 -1.1376 -1.8016
   43CHL1   H2B 3157   1.042  -0.044   6.853 -0.0030  0.5466 -0.7649
   43CHL1   C20 3158   0.761  -0.343   7.738  0.1431 -0.1489  0.2012
   43CHL1   H20 3159   0.777  -0.451   7.714  0.3650 -0.1318  0.2664
   43CHL1   C21 3160   0.622  -0.294   7.690 -0.1033 -0.6955 -0.6544
   43CHL1  H21A 3161   0.621  -0.185   7.712 -3.4776 -1.0428  1.1778
   43CHL1  H21B 3162   0.544  -0.348   7.746  1.0839 -1.5624  0.1949
   43CHL1  H21C 3163   0.599  -0.318   7.584 -2.4584 -1.6520  0.0524
   43CHL1   C22 3164   0.750  -0.353   7.891 -0.2623  0.0073 -0.4569
   43CHL1  H22A 3165   0.848  -0.373   7.939 -0.2638 -0.4852 -0.6476
   43CHL1  H22B 3166   0.706  -0.259   7.930  0.5817  1.0685 -1.9978
   43CHL1   C23 3167   0.667  -0.482   7.929 -0.2194  0.0218  0.1636
   43CHL1  H23A 3168   0.557  -0.469   7.917 -0.3148 -0.9905 -0.0660
   43CHL1  H23B 3169   0.697  -0.577   7.881 -1.6249  0.0066 -0.7249
   43CHL1   C24 3170   0.689  -0.511   8.074  0.1938  0.0020 -0.6888
   43CHL1  H24A 3171   0.792  -0.551   8.087 -0.2419 -0.4020  1.7942
   43CHL1  H24B 3172   0.682  -0.413   8.126  0.8489 -0.1555 -0.2948
   43CHL1   C25 3173   0.588  -0.613   8.132 -0.3349 -0.3024  0.8684
   43CHL1   H25 3174   0.575  -0.693   8.055  0.0250  1.2759 -0.8652
   43CHL1   C26 3175   0.649  -0.676   8.249 -0.3335  0.2723  0.1829
   43CHL1  H26A 3176   0.573  -0.735   8.305  1.5027 -1.8969  0.4319
   43CHL1  H26B 3177   0.729  -0.746   8.218 -0.9703  0.1639 -1.2745
   43CHL1  H26C 3178   0.697  -0.604   8.319  0.2199 -0.8581  0.9852
   43CHL1   C27 3179   0.449  -0.552   8.168  0.1304  0.0286  0.1909
   43CHL1  H27A 3180   0.408  -0.494   8.083 -0.4574  1.0785  1.1774
   43CHL1  H27B 3181   0.375  -0.627   8.204 -1.8687  2.0594  0.4332
   43CHL1  H27C 3182   0.455  -0.485   8.256 -3.3872  2.0709 -1.0655
   44CHL1    C3 3183   0.875   5.390   6.745  0.6550 -0.5573  0.0722
   44CHL1    H3 3184   0.899   5.290   6.787  1.4530 -0.8653 -1.1307
   44CHL1    O3 3185   0.863   5.395   6.599  0.2662  0.4718  0.3479
   44CHL1   H3' 3186   0.954   5.395   6.568  0.2970  1.4105  0.4208
   44CHL1    C4 3187   0.738   5.420   6.804  0.2974  0.4294  0.1270
   44CHL1   H4A 3188   0.716   5.518   6.755 -0.3473 -0.8799 -2.2784
   44CHL1   H4B 3189   0.664   5.347   6.763 -2.3178  2.2311  1.4491
   44CHL1    C5 3190   0.744   5.435   6.958  0.0816 -0.6232  0.4946
   44CHL1    C6 3191   0.660   5.368   7.042  0.6954 -0.2525  0.1026
   44CHL1    H6 3192   0.586   5.305   6.991  0.0201  0.1120  0.6133
   44CHL1    C7 3193   0.656   5.390   7.192  0.9488  0.0000 -1.0379
   44CHL1   H7A 3194   0.547   5.404   7.210  0.9025  0.1159 -1.4191
   44CHL1   H7B 3195   0.681   5.298   7.249 -1.2592 -0.4588 -0.7781
   44CHL1    C8 3196   0.738   5.515   7.243 -0.0459  0.7101 -0.0843
   44CHL1    H8 3197   0.675   5.606   7.226  2.5043  3.1000  2.7376
   44CHL1   C14 3198   0.774   5.494   7.381  0.1006  0.2687  1.3273
   44CHL1   H14 3199   0.851   5.414   7.382 -0.4133 -0.3142 -1.4940
   44CHL1   C15 3200   0.668   5.436   7.476 -0.2986  0.1743  0.5933
   44CHL1  H15A 3201   0.565   5.477   7.463 -0.3800 -0.1290  0.2898
   44CHL1  H15B 3202   0.653   5.327   7.458  1.3915 -0.0919  0.7601
   44CHL1   C16 3203   0.720   5.480   7.620 -0.6008  0.0535 -0.1524
   44CHL1  H16A 3204   0.642   5.525   7.686 -1.1029  1.7732 -1.8843
   44CHL1  H16B 3205   0.745   5.383   7.668 -0.4066 -0.1727 -0.7140
   44CHL1   C17 3206   0.850   5.562   7.600  0.0159  0.8476  0.1263
   44CHL1   H17 3207   0.931   5.486   7.592  0.3384  1.1918  0.1067
   44CHL1   C13 3208   0.845   5.616   7.452 -0.7781 -0.7361  0.3549
   44CHL1   C18 3209   0.750   5.736   7.442 -0.4375 -0.0837 -0.0931
   44CHL1  H18A 3210   0.733   5.767   7.337 -3.1659  2.1359  0.9199
   44CHL1  H18B 3211   0.649   5.718   7.485  0.6787  0.8785  3.0991
   44CHL1  H18C 3212   0.794   5.821   7.498  0.1459 -0.5775  0.2077
   44CHL1   C12 3213   0.977   5.642   7.382 -1.1448 -0.0788 -0.2167
   44CHL1  H12A 3214   1.022   5.736   7.421 -5.2958  2.2660 -0.8234
   44CHL1  H12B 3215   1.035   5.559   7.428 -1.3851  0.8195  1.7856
   44CHL1   C11 3216   0.967   5.640   7.228  0.2538  0.8636  0.4951
   44CHL1  H11A 3217   0.917   5.735   7.199  0.6457  1.6822  2.4313
   44CHL1  H11B 3218   1.069   5.643   7.185  0.9172  0.2836  2.0026
   44CHL1    C9 3219   0.866   5.533   7.161 -0.8225  0.4636 -0.2994
   44CHL1    H9 3220   0.922   5.440   7.184  0.3374  1.4448  0.9664
   44CHL1   C10 3221   0.856   5.538   7.006  0.1885  0.1199  0.0686
   44CHL1   C19 3222   0.813   5.675   6.970 -1.0030 -0.2006  0.9378
   44CHL1  H19A 3223   0.720   5.696   7.027 -0.4820  0.2047  1.6428
   44CHL1  H19B 3224   0.892   5.751   6.985 -0.4521 -0.3564 -1.0336
   44CHL1  H19C 3225   0.798   5.673   6.860 -0.2962 -0.6984  0.8479
   44CHL1    C1 3226   0.996   5.507   6.939 -0.1457  0.3529  0.0193
   44CHL1   H1A 3227   1.069   5.587   6.962  0.6138 -0.9808  2.4369
   44CHL1   H1B 3228   1.039   5.422   6.996 -0.8793  0.4904  0.7767
   44CHL1    C2 3229   0.987   5.480   6.785  0.1034 -0.2420 -0.5854
   44CHL1   H2A 3230   1.073   5.429   6.738  1.2556  0.2441  0.9831
   44CHL1   H2B 3231   0.978   5.577   6.732 -1.1177  0.4091  0.7784
   44CHL1   C20 3232   0.881   5.651   7.720  0.2132  0.0469  0.0295
   44CHL1   H20 3233   0.795   5.715   7.747  0.4838 -0.1561  1.4454
   44CHL1   C21 3234   1.001   5.749   7.691  0.8930  0.2167 -0.2945
   44CHL1  H21A 3235   1.032   5.801   7.785  0.0911 -3.3076  2.0022
   44CHL1  H21B 3236   0.975   5.830   7.619 -0.5657  1.5837  1.7143
   44CHL1  H21C 3237   1.089   5.691   7.654  1.6689  0.5543  0.9711
   44CHL1   C22 3238   0.920   5.565   7.843  0.1982  0.3487 -0.4226
   44CHL1  H22A 3239   0.845   5.483   7.849  1.1871 -0.4733  1.0118
   44CHL1  H22B 3240   1.019   5.520   7.817  1.6200  3.0013  0.2018
   44CHL1   C23 3241   0.934   5.631   7.983 -0.4726  0.0780  0.0827
   44CHL1  H23A 3242   1.032   5.683   7.994 -1.0653  1.1357  0.3801
   44CHL1  H23B 3243   0.856   5.709   7.998  1.0473  1.6811 -0.1386
   44CHL1   C24 3244   0.938   5.522   8.086  0.5539  0.0987  0.5020
   44CHL1  H24A 3245   0.844   5.462   8.084  0.6078  0.0124  0.5512
   44CHL1  H24B 3246   1.030   5.459   8.083  0.0149 -0.7990  2.3887
   44CHL1   C25 3247   0.949   5.565   8.236 -0.3532  0.5219  0.6261
   44CHL1   H25 3248   1.018   5.652   8.233  0.7351 -0.2405  2.4178
   44CHL1   C26 3249   0.826   5.617   8.304  1.2426 -0.2118  0.3124
   44CHL1  H26A 3250   0.778   5.700   8.249 -0.7074 -0.8756  0.9831
   44CHL1  H26B 3251   0.746   5.541   8.315  0.3710  0.4431 -1.4769
   44CHL1  H26C 3252   0.865   5.663   8.397  1.3618  2.5866 -1.0800
   44CHL1   C27 3253   1.021   5.459   8.322  0.4592 -0.0423  0.2548
   44CHL1  H27A 3254   1.033   5.499   8.425  3.3325 -0.6191  0.1887
   44CHL1  H27B 3255   0.967   5.363   8.313 -1.1634  0.8823 -0.0419
   44CHL1  H27C 3256   1.123   5.450   8.278 -0.5442  1.6690 -2.5258
   45CHL1    C3 3257   1.929   3.432   6.778 -0.2550  0.2362 -0.9833
   45CHL1    H3 3258   1.889   3.333   6.807  2.7102 -0.4596  1.0026
   45CHL1    O3 3259   1.949   3.429   6.638  1.0352  0.5814 -0.2840
   45CHL1   H3' 3260   1.870   3.473   6.607  0.1914 -0.5402  0.2036
   45CHL1    C4 3261   1.827   3.549   6.812  0.0515 -0.1014 -0.6473
   45CHL1   H4A 3262   1.877   3.642   6.777 -1.3851  0.8966 -0.0858
   45CHL1   H4B 3263   1.735   3.545   6.751 -0.7062 -0.3599  0.5023
   45CHL1    C5 3264   1.800   3.565   6.963  0.0535  0.1166 -0.1040
   45CHL1    C6 3265   1.676   3.582   7.007  0.1905 -0.3303 -0.5516
   45CHL1    H6 3266   1.594   3.550   6.941 -0.0634 -0.6404 -0.0966
   45CHL1    C7 3267   1.643   3.606   7.154 -0.6119  0.6644  0.2859
   45CHL1   H7A 3268   1.559   3.678   7.166 -0.0280  1.3196  0.5024
   45CHL1   H7B 3269   1.613   3.510   7.201  1.2904  0.2167  0.6077
   45CHL1    C8 3270   1.760   3.658   7.234 -0.4502  0.1516  0.1425
   45CHL1    H8 3271   1.772   3.766   7.208  0.3535  0.4475  1.6819
   45CHL1   C14 3272   1.736   3.639   7.383 -0.1168  0.4957 -0.2720
   45CHL1   H14 3273   1.741   3.530   7.403 -0.0130  0.1777 -1.9861
   45CHL1   C15 3274   1.598   3.682   7.434 -0.5619 -0.3600 -0.0500
   45CHL1  H15A 3275   1.575   3.782   7.393 -2.7892 -1.0295 -0.4583
   45CHL1  H15B 3276   1.515   3.613   7.408 -0.9834  0.2908 -0.4405
   45CHL1   C16 3277   1.625   3.707   7.586  0.4967  0.3576 -0.1107
   45CHL1  H16A 3278   1.598   3.813   7.603  0.7664  0.2339  1.1207
   45CHL1  H16B 3279   1.555   3.643   7.645 -0.8480  1.0612 -0.9238
   45CHL1   C17 3280   1.779   3.688   7.606 -0.0209  0.5389 -0.5118
   45CHL1   H17 3281   1.781   3.578   7.625  0.0004  0.6478  0.1468
   45CHL1   C13 3282   1.838   3.698   7.472  0.1466 -0.2056 -0.1211
   45CHL1   C18 3283   1.854   3.852   7.439  0.4737  0.4945  0.4394
   45CHL1  H18A 3284   1.933   3.904   7.498 -1.3072  3.1064  0.6188
   45CHL1  H18B 3285   1.894   3.876   7.338 -0.1201 -4.2291 -1.0338
   45CHL1  H18C 3286   1.766   3.918   7.452  0.5707  0.5915  0.6066
   45CHL1   C12 3287   1.969   3.626   7.448 -0.1251 -0.1842 -0.3479
   45CHL1  H12A 3288   2.054   3.667   7.505  1.3088  1.6004 -3.6249
   45CHL1  H12B 3289   1.950   3.523   7.488  1.9201  0.0003  1.1406
   45CHL1   C11 3290   2.006   3.618   7.297  0.1980  0.3388  0.5303
   45CHL1  H11A 3291   2.044   3.720   7.273  0.4140 -0.2048 -1.5743
   45CHL1  H11B 3292   2.089   3.544   7.292  0.5851  0.8069 -0.0843
   45CHL1    C9 3293   1.885   3.578   7.207  0.2201  0.0052 -0.2428
   45CHL1    H9 3294   1.866   3.471   7.229 -2.2282  0.5244  0.3115
   45CHL1   C10 3295   1.926   3.586   7.052  0.2590 -0.5135 -0.9078
   45CHL1   C19 3296   1.984   3.726   7.007 -0.8860 -0.3449 -0.4845
   45CHL1  H19A 3297   1.910   3.808   7.017  0.0968  0.1952  2.9016
   45CHL1  H19B 3298   2.079   3.746   7.060 -1.2502  0.8921 -0.2885
   45CHL1  H19C 3299   2.004   3.720   6.897  2.5892 -1.0424  0.1240
   45CHL1    C1 3300   2.028   3.479   7.007  0.3158  0.2061 -0.6381
   45CHL1   H1A 3301   2.124   3.493   7.061  0.6614 -0.3701 -1.0885
   45CHL1   H1B 3302   1.993   3.379   7.041  1.6615 -0.2307 -0.4972
   45CHL1    C2 3303   2.059   3.465   6.850  0.0760 -0.3359  0.0979
   45CHL1   H2A 3304   2.118   3.371   6.839  0.3969 -0.2798  1.3102
   45CHL1   H2B 3305   2.112   3.549   6.801  0.6351 -0.0433  1.1741
   45CHL1   C20 3306   1.841   3.758   7.729 -0.3367 -0.1781  0.4535
   45CHL1   H20 3307   1.896   3.850   7.696 -0.1108  0.0728  1.5025
   45CHL1   C21 3308   1.944   3.660   7.795  0.0305 -0.4389 -0.5769
   45CHL1  H21A 3309   2.023   3.637   7.721  0.8952 -1.1649  0.5595
   45CHL1  H21B 3310   1.897   3.567   7.834  1.2700 -0.4861  0.8346
   45CHL1  H21C 3311   1.993   3.718   7.876 -0.9471 -0.3476 -0.0298
   45CHL1   C22 3312   1.744   3.804   7.841  0.4410  0.0972  0.9042
   45CHL1  H22A 3313   1.643   3.830   7.802  0.2653 -0.6584  0.8459
   45CHL1  H22B 3314   1.725   3.715   7.905 -0.1236 -0.1034  0.4651
   45CHL1   C23 3315   1.799   3.921   7.924  0.3045  0.3303 -1.0717
   45CHL1  H23A 3316   1.894   3.882   7.967 -1.2230 -3.4423 -0.9472
   45CHL1  H23B 3317   1.806   4.014   7.863  1.5257  1.4617  0.7561
   45CHL1   C24 3318   1.708   3.947   8.050  0.2898 -0.5040  0.0858
   45CHL1  H24A 3319   1.607   3.977   8.018  0.3128 -0.4638  0.0528
   45CHL1  H24B 3320   1.705   3.850   8.105  0.8764  0.4534  1.8682
   45CHL1   C25 3321   1.752   4.059   8.143  0.4311  0.3003  0.1717
   45CHL1   H25 3322   1.681   4.080   8.226  1.6985  0.8933  1.1056
   45CHL1   C26 3323   1.896   4.023   8.197  0.5533  0.2099 -0.5116
   45CHL1  H26A 3324   1.972   3.989   8.124  2.9574 -0.6389  2.3111
   45CHL1  H26B 3325   1.940   4.102   8.262  2.3189 -0.3005 -1.0714
   45CHL1  H26C 3326   1.887   3.932   8.260  2.3599  0.9826  0.9004
   45CHL1   C27 3327   1.778   4.192   8.075  0.4562 -0.2052  0.2372
   45CHL1  H27A 3328   1.802   4.262   8.157  0.5820  0.7670 -0.6161
   45CHL1  H27B 3329   1.856   4.203   7.996 -0.4776 -0.7642 -0.7849
   45CHL1  H27C 3330   1.682   4.209   8.021  0.2435 -0.9570  0.3670
   46CHL1    C3 3331   1.727   4.591   7.027 -0.4233  0.2421 -0.3745
   46CHL1    H3 3332   1.654   4.508   7.041  1.4158 -1.4511 -0.7075
   46CHL1    O3 3333   1.753   4.611   6.890  0.4572 -0.0031  0.4093
   46CHL1   H3' 3334   1.768   4.519   6.866  2.4060  0.0958  1.1697
   46CHL1    C4 3335   1.675   4.722   7.087 -0.5865  0.6361 -0.3354
   46CHL1   H4A 3336   1.743   4.803   7.053  0.3673 -0.5683 -1.3070
   46CHL1   H4B 3337   1.584   4.757   7.033 -0.5497  0.1311 -0.7173
   46CHL1    C5 3338   1.667   4.719   7.236 -0.1585 -0.7645 -0.5156
   46CHL1    C6 3339   1.554   4.743   7.303 -0.0691  0.5651 -0.0661
   46CHL1    H6 3340   1.461   4.765   7.247  0.0916  0.7743 -0.2534
   46CHL1    C7 3341   1.530   4.758   7.448 -0.4496 -0.0229 -0.2578
   46CHL1   H7A 3342   1.481   4.856   7.467 -0.5774  0.5386 -3.2589
   46CHL1   H7B 3343   1.473   4.674   7.494 -0.6750 -0.6096 -1.5627
   46CHL1    C8 3344   1.660   4.758   7.519  0.2225 -0.1230 -0.3789
   46CHL1    H8 3345   1.699   4.861   7.519  1.7523 -0.5854  4.2590
   46CHL1   C14 3346   1.637   4.721   7.668  0.0352  0.8751  0.2833
   46CHL1   H14 3347   1.603   4.615   7.664  0.0040  0.8246  1.5397
   46CHL1   C15 3348   1.531   4.788   7.751 -0.5267 -0.2493  0.5000
   46CHL1  H15A 3349   1.521   4.896   7.729  1.6467 -0.4330 -1.6094
   46CHL1  H15B 3350   1.431   4.745   7.727 -0.2677 -2.0547  2.5477
   46CHL1   C16 3351   1.567   4.753   7.900 -0.2379  0.4012  0.0878
   46CHL1  H16A 3352   1.595   4.846   7.954 -2.5562 -0.0196  2.0728
   46CHL1  H16B 3353   1.487   4.694   7.949  0.7289  0.1474  1.3822
   46CHL1   C17 3354   1.695   4.663   7.891 -0.5112  0.5374  0.5266
   46CHL1   H17 3355   1.658   4.558   7.883  1.1827 -0.1030  0.7640
   46CHL1   C13 3356   1.761   4.709   7.758  0.1389  0.4936 -0.1244
   46CHL1   C18 3357   1.820   4.849   7.775  0.3026 -0.4061 -0.4475
   46CHL1  H18A 3358   1.845   4.897   7.678 -0.0772  0.5562 -0.0788
   46CHL1  H18B 3359   1.750   4.925   7.816  2.1150  0.7215  0.6420
   46CHL1  H18C 3360   1.909   4.854   7.842 -0.2304  2.0155  0.1230
   46CHL1   C12 3361   1.861   4.612   7.692  0.1757 -0.1611 -0.5413
   46CHL1  H12A 3362   1.959   4.617   7.744 -0.5199  1.1914  0.6729
   46CHL1  H12B 3363   1.812   4.513   7.704  0.0492 -0.0890 -0.4722
   46CHL1   C11 3364   1.892   4.647   7.544 -0.2414 -0.0157 -0.1368
   46CHL1  H11A 3365   1.947   4.744   7.549 -0.3585  0.1191 -1.3782
   46CHL1  H11B 3366   1.966   4.574   7.506 -0.1827 -0.0895  0.1187
   46CHL1    C9 3367   1.771   4.655   7.461  0.2164  0.2861  0.5894
   46CHL1    H9 3368   1.720   4.556   7.467  2.5358 -1.0291 -0.4925
   46CHL1   C10 3369   1.794   4.686   7.313 -0.2922  0.6803 -0.2927
   46CHL1   C19 3370   1.891   4.803   7.290  0.4891 -0.2172 -0.1483
   46CHL1  H19A 3371   1.906   4.816   7.180  3.5913 -1.4295  0.0848
   46CHL1  H19B 3372   1.867   4.891   7.353  1.2564 -0.3322  0.3054
   46CHL1  H19C 3373   1.988   4.762   7.325  0.2826 -0.4350  0.1636
   46CHL1    C1 3374   1.845   4.556   7.241 -0.1998 -0.1460 -1.0576
   46CHL1   H1A 3375   1.940   4.535   7.293 -0.5095  0.9700  0.0043
   46CHL1   H1B 3376   1.789   4.466   7.272 -1.8057  2.0360  2.8288
   46CHL1    C2 3377   1.864   4.557   7.096  0.1542 -0.0837 -0.4551
   46CHL1   H2A 3378   1.891   4.460   7.049  1.1080  0.7827 -1.7472
   46CHL1   H2B 3379   1.942   4.629   7.061  0.0650  0.3292  0.1957
   46CHL1   C20 3380   1.786   4.671   8.008 -0.7629 -0.6834 -0.1263
   46CHL1   H20 3381   1.858   4.755   8.003 -0.7267 -0.7409 -0.5441
   46CHL1   C21 3382   1.873   4.540   8.019  0.0771  0.4376  0.0926
   46CHL1  H21A 3383   1.905   4.507   7.919 -1.2223  0.4004 -0.3256
   46CHL1  H21B 3384   1.807   4.461   8.063 -0.2002  0.9831  0.6682
   46CHL1  H21C 3385   1.966   4.556   8.077  0.6153 -1.2918 -0.2659
   46CHL1   C22 3386   1.712   4.679   8.147  0.2519  0.5586  0.3870
   46CHL1  H22A 3387   1.642   4.764   8.134 -0.6776 -0.1758  0.5172
   46CHL1  H22B 3388   1.650   4.590   8.172 -0.2651  1.2590  1.6846
   46CHL1   C23 3389   1.809   4.703   8.268  0.2795 -0.2252 -0.2212
   46CHL1  H23A 3390   1.754   4.694   8.364 -0.2024 -1.4274 -0.5965
   46CHL1  H23B 3391   1.888   4.626   8.271  3.2913  2.6802 -1.7593
   46CHL1   C24 3392   1.870   4.844   8.264 -1.1390  0.4126 -0.1932
   46CHL1  H24A 3393   1.924   4.855   8.168 -2.0361 -0.1946 -0.7722
   46CHL1  H24B 3394   1.803   4.932   8.271  0.1593  1.3867  0.2201
   46CHL1   C25 3395   1.983   4.855   8.370 -0.8831  0.4219 -0.4281
   46CHL1   H25 3396   2.058   4.777   8.346 -0.1516  0.6108  1.1868
   46CHL1   C26 3397   2.052   4.993   8.375 -0.7253  0.9071  0.2508
   46CHL1  H26A 3398   1.986   5.074   8.413  0.1259  1.0252  1.5176
   46CHL1  H26B 3399   2.145   4.993   8.435  0.2079 -1.3302 -1.1617
   46CHL1  H26C 3400   2.101   5.019   8.279  0.8419  0.4988  0.9271
   46CHL1   C27 3401   1.938   4.832   8.520  0.1017 -0.0930 -0.1805
   46CHL1  H27A 3402   1.870   4.912   8.553 -0.0300 -1.2486  2.4502
   46CHL1  H27B 3403   1.900   4.728   8.534 -0.8447  0.4698  1.6105
   46CHL1  H27C 3404   2.026   4.844   8.588  0.9450  1.7912 -1.5741
   47CHL1    C3 3405   1.057   4.864   6.701 -0.1576  0.1872  0.1618
   47CHL1    H3 3406   1.018   4.762   6.722 -1.2094  0.9335  1.8993
   47CHL1    O3 3407   1.055   4.874   6.557 -0.3368 -0.2026 -0.0767
   47CHL1   H3' 3408   1.016   4.959   6.534  0.6865  0.9018  2.1014
   47CHL1    C4 3409   0.960   4.965   6.753 -0.3136 -0.6239 -0.0248
   47CHL1   H4A 3410   0.971   5.062   6.701 -2.4818 -0.1012  0.4141
   47CHL1   H4B 3411   0.859   4.928   6.726 -0.4170  0.8125 -1.6406
   47CHL1    C5 3412   0.963   4.982   6.902  0.3258 -0.3319  0.0663
   47CHL1    C6 3413   0.850   4.964   6.978 -1.0507 -0.7590  0.2439
   47CHL1    H6 3414   0.757   4.952   6.921  0.1940 -1.0007 -1.8175
   47CHL1    C7 3415   0.843   4.977   7.128  0.6347 -0.5177 -0.1349
   47CHL1   H7A 3416   0.758   5.040   7.162 -0.1714 -0.6557 -1.8276
   47CHL1   H7B 3417   0.836   4.875   7.172 -0.5713  0.0004  0.8827
   47CHL1    C8 3418   0.976   5.048   7.182  0.8886 -0.0122 -0.2111
   47CHL1    H8 3419   0.969   5.157   7.163 -2.1936  0.2553  2.0794
   47CHL1   C14 3420   0.980   5.021   7.335  0.1472 -0.2522  0.5560
   47CHL1   H14 3421   0.979   4.911   7.346  0.9074 -0.4218 -0.8948
   47CHL1   C15 3422   0.863   5.068   7.425  0.1161 -0.2520  0.2475
   47CHL1  H15A 3423   0.826   5.163   7.382  3.0643  0.2501 -1.2931
   47CHL1  H15B 3424   0.782   4.992   7.429 -1.9336  1.8660 -0.1349
   47CHL1   C16 3425   0.925   5.083   7.562  0.3081  0.1951  0.3920
   47CHL1  H16A 3426   0.901   5.187   7.592 -3.2226 -0.8059  1.2556
   47CHL1  H16B 3427   0.877   5.012   7.632 -0.6274 -0.5646 -1.0058
   47CHL1   C17 3428   1.075   5.064   7.549 -0.5347 -0.0292 -0.1158
   47CHL1   H17 3429   1.093   4.956   7.566 -0.4251 -0.0808 -0.5483
   47CHL1   C13 3430   1.112   5.076   7.396  0.8073 -0.8774 -0.3040
   47CHL1   C18 3431   1.123   5.230   7.360  0.1804 -0.5643 -0.0806
   47CHL1  H18A 3432   1.222   5.264   7.396  0.3673  1.1552 -2.1671
   47CHL1  H18B 3433   1.138   5.257   7.254 -1.6963  0.3139 -0.1492
   47CHL1  H18C 3434   1.032   5.283   7.395  0.6223  0.0477  0.1504
   47CHL1   C12 3435   1.232   4.998   7.333 -0.1206  0.6912  0.2419
   47CHL1  H12A 3436   1.330   5.034   7.370  1.2432 -0.0342 -2.5156
   47CHL1  H12B 3437   1.230   4.889   7.351 -0.4054  0.0963 -3.0726
   47CHL1   C11 3438   1.241   5.026   7.181 -0.7502 -1.2191 -0.0463
   47CHL1  H11A 3439   1.285   5.126   7.158 -1.0356 -1.2462 -0.7205
   47CHL1  H11B 3440   1.321   4.957   7.148 -0.3505 -1.2676  1.0072
   47CHL1    C9 3441   1.104   4.999   7.113 -0.4680  0.1963 -0.5071
   47CHL1    H9 3442   1.098   4.891   7.137  1.2372  0.3965  0.9780
   47CHL1   C10 3443   1.104   5.007   6.960 -0.8148  0.6430 -0.3103
   47CHL1   C19 3444   1.145   5.155   6.922  0.1775 -0.2725 -0.2508
   47CHL1  H19A 3445   1.068   5.231   6.950  1.2026  0.4541  0.6565
   47CHL1  H19B 3446   1.248   5.176   6.957 -0.2336  0.3817  0.5844
   47CHL1  H19C 3447   1.158   5.156   6.811 -1.7167 -0.8301 -0.5008
   47CHL1    C1 3448   1.205   4.903   6.901 -0.3815 -0.1093 -0.2355
   47CHL1   H1A 3449   1.311   4.918   6.931  0.0437 -2.8869 -0.1968
   47CHL1   H1B 3450   1.184   4.804   6.945  0.0838  0.0728  0.3964
   47CHL1    C2 3451   1.197   4.894   6.748 -0.0924 -0.1842  0.1755
   47CHL1   H2A 3452   1.259   4.819   6.694  0.9823  0.4494  0.5084
   47CHL1   H2B 3453   1.242   4.989   6.712 -0.5142 -0.3078 -0.6777
   47CHL1   C20 3454   1.158   5.133   7.656 -0.6409 -0.9174 -0.5303
   47CHL1   H20 3455   1.127   5.240   7.654 -0.5516 -0.9104 -1.5292
   47CHL1   C21 3456   1.304   5.122   7.630 -0.1660  0.4566 -0.0625
   47CHL1  H21A 3457   1.325   5.158   7.527  0.3607  0.5884  0.0885
   47CHL1  H21B 3458   1.345   5.020   7.640 -0.1515  0.6462  2.0807
   47CHL1  H21C 3459   1.366   5.196   7.685  0.4935  1.7177 -2.4295
   47CHL1   C22 3460   1.136   5.073   7.796 -0.2873 -0.3267 -0.8816
   47CHL1  H22A 3461   1.029   5.068   7.826  0.2044  0.3710  1.0654
   47CHL1  H22B 3462   1.159   4.967   7.772 -0.2938  0.0336 -2.5485
   47CHL1   C23 3463   1.223   5.125   7.918  0.6249  0.0024 -0.4829
   47CHL1  H23A 3464   1.332   5.127   7.896  0.7853  0.5685  0.3522
   47CHL1  H23B 3465   1.195   5.229   7.942 -1.8175 -0.3971 -1.4432
   47CHL1   C24 3466   1.218   5.030   8.043  0.3027 -0.5798 -0.0278
   47CHL1  H24A 3467   1.116   5.003   8.079  0.0573  1.5291  0.9375
   47CHL1  H24B 3468   1.264   4.931   8.026  3.4491  0.0220  4.1134
   47CHL1   C25 3469   1.283   5.092   8.167  0.0809  0.3377 -0.4888
   47CHL1   H25 3470   1.379   5.135   8.129  1.6383  0.6012  3.4820
   47CHL1   C26 3471   1.201   5.214   8.220 -0.3600  0.3530 -0.4765
   47CHL1  H26A 3472   1.246   5.258   8.312  0.3322  0.4372 -0.8517
   47CHL1  H26B 3473   1.201   5.291   8.140  0.9602 -0.6298 -1.4400
   47CHL1  H26C 3474   1.100   5.178   8.246 -0.6664  0.8786 -0.9397
   47CHL1   C27 3475   1.312   4.996   8.284  0.1568  0.1657 -0.0041
   47CHL1  H27A 3476   1.388   4.919   8.258  0.0564  0.4094 -1.0155
   47CHL1  H27B 3477   1.361   5.060   8.361  2.6892  2.0592 -3.0570
   47CHL1  H27C 3478   1.224   4.939   8.320 -0.5120  2.1187  1.5079
   48CHL1    C3 3479   4.577   0.615   6.423 -0.0594  0.1292 -0.8837
   48CHL1    H3 3480   4.679   0.571   6.422 -1.0087 -2.2029 -4.1698
   48CHL1    O3 3481   4.528   0.633   6.289  0.2631 -0.4502  0.3288
   48CHL1   H3' 3482   4.534   0.729   6.287  1.0088 -0.4876  0.5503
   48CHL1    C4 3483   4.471   0.531   6.495 -0.3883 -0.0054  0.2285
   48CHL1   H4A 3484   4.369   0.575   6.492 -0.9850 -1.0941  2.6158
   48CHL1   H4B 3485   4.453   0.429   6.454  1.2946  0.3033 -1.3438
   48CHL1    C5 3486   4.510   0.525   6.641  0.6353  0.2284  0.4202
   48CHL1    C6 3487   4.544   0.411   6.700 -0.2906 -0.0581  0.1836
   48CHL1    H6 3488   4.534   0.319   6.641  0.2968  0.9404 -1.5254
   48CHL1    C7 3489   4.577   0.393   6.846  0.0991  0.6344 -0.6495
   48CHL1   H7A 3490   4.523   0.305   6.885 -0.8896  2.1914  1.6163
   48CHL1   H7B 3491   4.687   0.376   6.855  0.0247  1.5225  2.2062
   48CHL1    C8 3492   4.530   0.511   6.934 -0.0759 -0.3140 -0.8063
   48CHL1    H8 3493   4.420   0.500   6.945 -0.1924  1.0916 -0.5141
   48CHL1   C14 3494   4.589   0.507   7.076  0.5076 -0.5204 -0.5720
   48CHL1   H14 3495   4.698   0.526   7.071  0.7625 -0.9680  2.6592
   48CHL1   C15 3496   4.572   0.380   7.161 -0.2382  0.0338 -0.5547
   48CHL1  H15A 3497   4.467   0.343   7.156  0.3696 -1.4431 -3.4048
   48CHL1  H15B 3498   4.644   0.301   7.131 -0.3853 -1.0325  1.8377
   48CHL1   C16 3499   4.600   0.424   7.304 -0.3565 -0.4885 -0.3471
   48CHL1  H16A 3500   4.515   0.398   7.370 -0.4011  0.1176 -0.1603
   48CHL1  H16B 3501   4.693   0.375   7.341 -1.1993 -1.6552  0.2680
   48CHL1   C17 3502   4.618   0.582   7.298  0.3501 -0.2811  0.2453
   48CHL1   H17 3503   4.725   0.593   7.272  0.3965  0.7224  0.8225
   48CHL1   C13 3504   4.547   0.625   7.169 -0.1633  0.6320  0.0793
   48CHL1   C18 3505   4.391   0.619   7.189  0.1304 -0.0683 -0.4840
   48CHL1  H18A 3506   4.362   0.712   7.243 -0.8112 -0.3277 -0.5168
   48CHL1  H18B 3507   4.346   0.612   7.087 -1.2523  3.0308 -0.1560
   48CHL1  H18C 3508   4.361   0.529   7.248 -0.0331  0.1277 -0.2677
   48CHL1   C12 3509   4.590   0.760   7.105  0.3854 -0.2234 -0.0898
   48CHL1  H12A 3510   4.564   0.848   7.168 -0.9154 -0.0035 -0.9032
   48CHL1  H12B 3511   4.701   0.757   7.103  0.4209 -0.7262  1.4747
   48CHL1   C11 3512   4.519   0.767   6.959  0.0889 -0.4279  0.6751
   48CHL1  H11A 3513   4.412   0.791   6.972  0.5213  1.4443  0.9023
   48CHL1  H11B 3514   4.569   0.848   6.902  0.5237 -0.5553  0.8677
   48CHL1    C9 3515   4.565   0.647   6.870  0.0101 -0.8568  0.0879
   48CHL1    H9 3516   4.676   0.643   6.869  0.0964  1.2669 -0.1703
   48CHL1   C10 3517   4.514   0.658   6.722 -0.0044  0.4569 -0.7586
   48CHL1   C19 3518   4.379   0.730   6.710  0.6652 -0.5049  0.2127
   48CHL1  H19A 3519   4.305   0.684   6.779 -0.2196  1.7925  0.8427
   48CHL1  H19B 3520   4.379   0.833   6.753  0.7063 -0.4039 -0.0268
   48CHL1  H19C 3521   4.340   0.742   6.607 -1.6224 -0.5976  1.0287
   48CHL1    C1 3522   4.613   0.741   6.635  0.5801 -0.1548  0.0452
   48CHL1   H1A 3523   4.639   0.833   6.692 -0.3550  0.5814 -0.7119
   48CHL1   H1B 3524   4.713   0.692   6.635  1.0403  0.7568  1.4147
   48CHL1    C2 3525   4.575   0.758   6.481  0.2473 -0.9565  0.2428
   48CHL1   H2A 3526   4.653   0.822   6.434  0.2603 -1.6184 -0.6480
   48CHL1   H2B 3527   4.478   0.812   6.470  2.3045  3.0342  0.5992
   48CHL1   C20 3528   4.579   0.649   7.439 -0.3395  0.5963  0.0093
   48CHL1   H20 3529   4.486   0.596   7.470  0.0286  0.1993  0.4390
   48CHL1   C21 3530   4.564   0.802   7.435  1.0208  0.6322  0.3020
   48CHL1  H21A 3531   4.468   0.833   7.390  1.5150  1.3084 -0.3065
   48CHL1  H21B 3532   4.641   0.846   7.367  3.1213 -1.7696  1.0606
   48CHL1  H21C 3533   4.567   0.851   7.535  0.5778 -1.3937  1.3187
   48CHL1   C22 3534   4.685   0.614   7.547  0.0314 -0.4147 -0.2806
   48CHL1  H22A 3535   4.719   0.509   7.534  0.6906 -0.1185 -0.9867
   48CHL1  H22B 3536   4.755   0.699   7.536 -2.2726  1.4927 -0.5519
   48CHL1   C23 3537   4.627   0.625   7.688 -0.5304  0.5883 -0.2025
   48CHL1  H23A 3538   4.549   0.704   7.690  0.0850  1.1818  0.2561
   48CHL1  H23B 3539   4.574   0.530   7.713  1.9820 -0.3304  1.7906
   48CHL1   C24 3540   4.730   0.661   7.794 -0.5516 -0.3260 -0.6597
   48CHL1  H24A 3541   4.804   0.737   7.763  0.5050 -0.5082  1.3604
   48CHL1  H24B 3542   4.669   0.699   7.880  0.6626  1.1985 -0.4636
   48CHL1   C25 3543   4.818   0.552   7.856  0.6025  0.7166 -1.1128
   48CHL1   H25 3544   4.882   0.512   7.774  1.4816 -0.8110  0.2929
   48CHL1   C26 3545   4.907   0.609   7.964 -0.0090 -0.2036  0.6469
   48CHL1  H26A 3546   4.847   0.643   8.051  0.2200  1.4559  0.1809
   48CHL1  H26B 3547   4.969   0.521   7.993  2.8994  2.2654  2.3089
   48CHL1  H26C 3548   4.954   0.700   7.922 -2.2249  0.7208  0.1208
   48CHL1   C27 3549   4.731   0.431   7.908  0.0432 -0.2949  0.0068
   48CHL1  H27A 3550   4.783   0.355   7.970  0.2675  0.3430  0.5995
   48CHL1  H27B 3551   4.643   0.477   7.959 -0.0732 -1.3581  0.7880
   48CHL1  H27C 3552   4.703   0.372   7.818  0.9422 -1.4453  0.4732
   49CHL1    C3 3553   3.078   1.598   6.613  0.2961  0.9283  0.4820
   49CHL1    H3 3554   3.003   1.680   6.615 -1.4918 -0.6987  1.2979
   49CHL1    O3 3555   3.097   1.568   6.475 -0.1571  0.0175 -0.0257
   49CHL1   H3' 3556   3.193   1.573   6.474 -0.1417 -0.1911  0.2662
   49CHL1    C4 3557   3.210   1.645   6.680  0.6422 -0.4683 -0.4194
   49CHL1   H4A 3558   3.284   1.563   6.663 -0.1943 -1.4033  0.4029
   49CHL1   H4B 3559   3.242   1.730   6.616 -1.2926  1.1656  0.7630
   49CHL1    C5 3560   3.189   1.679   6.826  0.4982 -0.8863 -0.0493
   49CHL1    C6 3561   3.224   1.803   6.876  0.2976  0.2459 -0.2561
   49CHL1    H6 3562   3.272   1.878   6.812  1.5242 -0.1837  0.1559
   49CHL1    C7 3563   3.199   1.837   7.018 -1.2954 -0.2630  0.0407
   49CHL1   H7A 3564   3.286   1.900   7.049 -2.2259  0.4154  1.3456
   49CHL1   H7B 3565   3.108   1.899   7.026 -1.2033 -0.5354  3.9569
   49CHL1    C8 3566   3.186   1.716   7.117 -0.4875 -1.2462  0.3887
   49CHL1    H8 3567   3.283   1.664   7.125  1.9103  3.1362  0.9561
   49CHL1   C14 3568   3.138   1.760   7.253  0.0583  0.1689  0.3469
   49CHL1   H14 3569   3.033   1.797   7.246  0.1222 -0.0812 -2.1345
   49CHL1   C15 3570   3.224   1.873   7.315  0.4145  0.0680  0.0878
   49CHL1  H15A 3571   3.330   1.856   7.289  0.6622  1.1986  0.3588
   49CHL1  H15B 3572   3.222   1.973   7.267 -0.3065 -0.1440 -0.3302
   49CHL1   C16 3573   3.181   1.875   7.465  0.0250  0.0273 -0.3300
   49CHL1  H16A 3574   3.269   1.859   7.530  1.1129  1.0033 -1.5333
   49CHL1  H16B 3575   3.135   1.975   7.482  0.5921  0.1482  0.4842
   49CHL1   C17 3576   3.092   1.744   7.486  0.6867  0.6667 -0.1221
   49CHL1   H17 3577   2.986   1.774   7.467  1.2363  1.5824 -1.8094
   49CHL1   C13 3578   3.129   1.653   7.359 -0.2200 -0.1348 -0.1922
   49CHL1   C18 3579   3.264   1.587   7.388 -0.1560  0.5575 -0.3925
   49CHL1  H18A 3580   3.248   1.521   7.477 -2.6031 -1.0006 -1.9339
   49CHL1  H18B 3581   3.301   1.518   7.309 -0.1721 -0.1016  0.1725
   49CHL1  H18C 3582   3.343   1.662   7.409 -1.0539  1.4266 -0.0478
   49CHL1   C12 3583   3.013   1.561   7.310 -0.3671  0.0565  0.0842
   49CHL1  H12A 3584   3.006   1.475   7.379 -3.0581 -0.0013 -0.1812
   49CHL1  H12B 3585   2.918   1.615   7.332  0.0096  0.9520 -0.4549
   49CHL1   C11 3586   3.045   1.503   7.165 -0.1973  0.6232 -1.3160
   49CHL1  H11A 3587   3.135   1.438   7.168 -0.1605  0.6989 -0.8002
   49CHL1  H11B 3588   2.950   1.450   7.141 -0.9803  1.2308  0.3700
   49CHL1    C9 3589   3.081   1.616   7.056 -0.1962 -0.1441 -0.7500
   49CHL1    H9 3590   2.988   1.676   7.043  0.3627  1.8700  3.6520
   49CHL1   C10 3591   3.119   1.571   6.912 -0.1106  0.1886 -0.2009
   49CHL1   C19 3592   3.230   1.458   6.918  0.0608  0.1044  0.0165
   49CHL1  H19A 3593   3.193   1.364   6.965 -1.4920 -0.6159 -2.5437
   49CHL1  H19B 3594   3.283   1.440   6.822 -2.2597  1.3405 -1.5413
   49CHL1  H19C 3595   3.301   1.500   6.992  0.9130 -0.2460 -0.5890
   49CHL1    C1 3596   2.993   1.523   6.834  0.2949  0.3632  0.1223
   49CHL1   H1A 3597   2.943   1.440   6.890 -1.1805  1.5431  0.5752
   49CHL1   H1B 3598   2.921   1.607   6.835  4.0008  3.6798 -0.6818
   49CHL1    C2 3599   3.021   1.477   6.690  0.5382 -0.9358  0.2186
   49CHL1   H2A 3600   2.924   1.450   6.644  0.2084 -0.5207  0.6500
   49CHL1   H2B 3601   3.101   1.401   6.683  1.7277  0.2149  0.9465
   49CHL1   C20 3602   3.093   1.689   7.629  0.3735  0.8445  0.3824
   49CHL1   H20 3603   3.193   1.642   7.644  0.1712  0.3122  0.0771
   49CHL1   C21 3604   2.992   1.573   7.649 -0.1497 -0.0466 -0.7984
   49CHL1  H21A 3605   2.888   1.608   7.632 -0.2358 -0.2386 -0.6584
   49CHL1  H21B 3606   2.996   1.548   7.757 -0.0211  0.3200 -0.7148
   49CHL1  H21C 3607   3.006   1.481   7.589  3.0191 -0.6102  0.6990
   49CHL1   C22 3608   3.076   1.791   7.738  0.8466 -0.2004  0.4295
   49CHL1  H22A 3609   3.093   1.896   7.703  2.5751 -0.6380 -0.0736
   49CHL1  H22B 3610   2.981   1.773   7.792  1.2488  0.8985  1.5256
   49CHL1   C23 3611   3.184   1.769   7.842  0.2732 -0.2666  0.0618
   49CHL1  H23A 3612   3.186   1.661   7.869 -2.0546 -1.0139 -2.4927
   49CHL1  H23B 3613   3.278   1.803   7.793  1.1336 -1.9473  0.5148
   49CHL1   C24 3614   3.163   1.861   7.965  0.3447  0.0156 -0.4073
   49CHL1  H24A 3615   3.127   1.954   7.916 -0.6395 -0.5770 -0.8044
   49CHL1  H24B 3616   3.083   1.824   8.032  1.8745  2.5508  3.0204
   49CHL1   C25 3617   3.292   1.884   8.060 -0.6499 -0.8140  0.4118
   49CHL1   H25 3618   3.373   1.919   7.994  0.0953  0.4279  1.9767
   49CHL1   C26 3619   3.259   1.987   8.173 -0.1366  0.0993  0.2238
   49CHL1  H26A 3620   3.177   1.944   8.235  0.4213 -1.8655 -0.3679
   49CHL1  H26B 3621   3.345   2.015   8.237  0.1393 -1.2079  0.4461
   49CHL1  H26C 3622   3.215   2.081   8.135  0.2346 -0.0098 -0.4812
   49CHL1   C27 3623   3.343   1.747   8.114 -0.0865  0.0290 -0.0890
   49CHL1  H27A 3624   3.261   1.701   8.174  0.8876 -0.6991  0.6948
   49CHL1  H27B 3625   3.372   1.694   8.021 -0.1538  0.5512 -0.4097
   49CHL1  H27C 3626   3.434   1.763   8.176 -0.4204  0.6628  0.2430
   50CHL1    C3 3627   4.106   3.032   7.017  0.3805  0.5824 -0.0607
   50CHL1    H3 3628   4.004   3.074   7.027  0.2412 -0.0677  1.2531
   50CHL1    O3 3629   4.110   2.992   6.884 -0.6769  0.7526  0.0430
   50CHL1   H3' 3630   4.186   2.934   6.895 -2.5588 -1.6045  1.0412
   50CHL1    C4 3631   4.208   3.138   7.054  0.0021 -0.3856  0.4211
   50CHL1   H4A 3632   4.313   3.112   7.030  0.1965  1.2923 -0.5986
   50CHL1   H4B 3633   4.177   3.221   6.987  1.8961  1.6280  1.9907
   50CHL1    C5 3634   4.209   3.169   7.203  0.1317  0.1540 -0.0556
   50CHL1    C6 3635   4.191   3.296   7.245  0.5572  0.6866  0.3944
   50CHL1    H6 3636   4.180   3.377   7.171  1.8725  1.6087  1.1850
   50CHL1    C7 3637   4.180   3.336   7.393  0.8118  0.4275  0.2298
   50CHL1   H7A 3638   4.254   3.419   7.402  3.0519 -1.4575 -0.3152
   50CHL1   H7B 3639   4.073   3.364   7.407  1.2973  1.9719  0.9526
   50CHL1    C8 3640   4.232   3.221   7.490  0.1218 -0.1377  0.2697
   50CHL1    H8 3641   4.342   3.206   7.482  0.3735  2.0848 -0.7685
   50CHL1   C14 3642   4.191   3.256   7.628 -0.1060 -1.2416  0.1009
   50CHL1   H14 3643   4.080   3.257   7.639 -0.0479  2.1406  0.7410
   50CHL1   C15 3644   4.223   3.395   7.675  0.2396 -0.3253  0.6709
   50CHL1  H15A 3645   4.322   3.416   7.630 -1.0651 -1.0956 -2.7687
   50CHL1  H15B 3646   4.163   3.479   7.633  0.7869 -0.1409  0.2398
   50CHL1   C16 3647   4.235   3.386   7.825  0.2671  0.5165  0.9332
   50CHL1  H16A 3648   4.336   3.418   7.858  0.6688 -0.0236  0.2211
   50CHL1  H16B 3649   4.170   3.460   7.876 -1.0722 -0.8868  1.2962
   50CHL1   C17 3650   4.206   3.231   7.862  0.6482  0.4235 -0.9338
   50CHL1   H17 3651   4.096   3.225   7.878  0.5799 -0.1318 -1.5746
   50CHL1   C13 3652   4.238   3.161   7.734 -0.6212  0.4034  0.3522
   50CHL1   C18 3653   4.390   3.138   7.725  0.2981  0.3798  0.0424
   50CHL1  H18A 3654   4.437   3.093   7.816 -1.2287  0.8423  1.0808
   50CHL1  H18B 3655   4.415   3.072   7.640 -0.6563  0.1096 -0.0291
   50CHL1  H18C 3656   4.439   3.237   7.714  2.1120 -0.6094 -1.0339
   50CHL1   C12 3657   4.162   3.030   7.706 -0.6161 -0.4954 -0.5675
   50CHL1  H12A 3658   4.198   2.955   7.779 -1.6319 -0.7926 -0.3766
   50CHL1  H12B 3659   4.056   3.055   7.728 -0.4098 -0.9847  1.0233
   50CHL1   C11 3660   4.179   2.982   7.562 -0.0604  0.3215 -0.0936
   50CHL1  H11A 3661   4.281   2.938   7.558 -0.4692 -0.6862  0.3332
   50CHL1  H11B 3662   4.098   2.912   7.533  0.2771  1.1270 -3.1629
   50CHL1    C9 3663   4.171   3.086   7.447 -0.1003  0.7738  0.1075
   50CHL1    H9 3664   4.061   3.104   7.445 -0.5058 -1.3656  1.4437
   50CHL1   C10 3665   4.208   3.049   7.305  0.4762 -0.4005  0.1741
   50CHL1   C19 3666   4.351   2.984   7.312 -0.3789  0.7918  0.4086
   50CHL1  H19A 3667   4.429   3.050   7.356  0.2734 -0.3797  1.0415
   50CHL1  H19B 3668   4.346   2.886   7.364  1.1148 -0.1177 -1.1304
   50CHL1  H19C 3669   4.377   2.968   7.205  3.5124  0.9045  1.2644
   50CHL1    C1 3670   4.116   2.931   7.252  0.4138 -0.5419  0.4591
   50CHL1   H1A 3671   4.137   2.842   7.315 -0.2809  0.4611  2.1603
   50CHL1   H1B 3672   4.010   2.962   7.260  0.7642  0.6546  0.5969
   50CHL1    C2 3673   4.122   2.907   7.101 -0.3095  0.8331  0.0852
   50CHL1   H2A 3674   4.048   2.829   7.074  1.4286 -0.5509 -0.7890
   50CHL1   H2B 3675   4.220   2.859   7.078  0.4362  1.7461  1.2532
   50CHL1   C20 3676   4.271   3.191   7.998  0.2672  0.0891  0.1853
   50CHL1   H20 3677   4.379   3.217   7.993  0.4875 -0.9259 -0.6436
   50CHL1   C21 3678   4.262   3.039   8.034  0.6287 -0.6855 -0.0482
   50CHL1  H21A 3679   4.333   2.989   7.964  0.4472 -1.2028  0.1394
   50CHL1  H21B 3680   4.159   3.007   8.009 -0.6218  2.5847  0.7592
   50CHL1  H21C 3681   4.287   3.019   8.140  0.0866  0.4940  0.3124
   50CHL1   C22 3682   4.199   3.267   8.109 -0.4271  0.5226  0.5586
   50CHL1  H22A 3683   4.189   3.372   8.073  0.8352 -0.5458 -3.0762
   50CHL1  H22B 3684   4.101   3.215   8.119 -1.0493  1.2817 -1.2656
   50CHL1   C23 3685   4.279   3.277   8.236  0.6644 -0.1461 -0.0471
   50CHL1  H23A 3686   4.287   3.183   8.294 -0.3934 -2.1837 -3.0987
   50CHL1  H23B 3687   4.376   3.323   8.209 -0.6808  1.6044 -2.0621
   50CHL1   C24 3688   4.207   3.376   8.334  0.7940  0.8570  0.2992
   50CHL1  H24A 3689   4.163   3.452   8.267 -2.4929 -1.1683  0.0637
   50CHL1  H24B 3690   4.119   3.316   8.366 -0.1361  1.4229 -1.1831
   50CHL1   C25 3691   4.275   3.445   8.452 -0.4000 -0.7482  0.1622
   50CHL1   H25 3692   4.223   3.527   8.505 -0.5207  0.1772 -1.3449
   50CHL1   C26 3693   4.297   3.337   8.559 -0.4334 -0.5903  0.0916
   50CHL1  H26A 3694   4.199   3.306   8.602  0.0116 -3.1987 -0.6767
   50CHL1  H26B 3695   4.353   3.251   8.516  0.5362 -0.5266  1.2127
   50CHL1  H26C 3696   4.356   3.389   8.637  1.0420  0.4269 -1.6630
   50CHL1   C27 3697   4.422   3.500   8.409 -0.4055 -0.6241 -0.1755
   50CHL1  H27A 3698   4.500   3.427   8.378  1.0958  1.2333 -0.8655
   50CHL1  H27B 3699   4.402   3.569   8.324  2.0037  0.8462  0.4144
   50CHL1  H27C 3700   4.461   3.569   8.487 -1.8599 -1.2466  1.1369
   51CHL1    C3 3701   3.929   1.940   6.910  0.8489  0.5985 -0.3076
   51CHL1    H3 3702   3.834   1.934   6.967  0.9848 -1.3322 -0.2682
   51CHL1    O3 3703   3.904   1.920   6.773 -0.0932 -0.0711  0.4271
   51CHL1   H3' 3704   3.972   1.973   6.731 -0.8221 -0.8448 -1.8074
   51CHL1    C4 3705   3.967   2.082   6.936  0.4600 -0.3829  0.0927
   51CHL1   H4A 3706   4.070   2.100   6.897 -1.0920  2.4628 -2.8637
   51CHL1   H4B 3707   3.899   2.156   6.890 -1.0947 -1.1507  1.1225
   51CHL1    C5 3708   3.988   2.106   7.085  0.4621 -0.5998  0.7616
   51CHL1    C6 3709   3.901   2.193   7.139  0.2130  0.0649 -0.1706
   51CHL1    H6 3710   3.831   2.253   7.079  0.8629  1.0512  0.0451
   51CHL1    C7 3711   3.893   2.219   7.290 -0.4410  0.3583  0.2757
   51CHL1   H7A 3712   3.880   2.327   7.314 -1.1036 -0.2639  2.8576
   51CHL1   H7B 3713   3.804   2.158   7.317 -0.2830 -0.3404 -0.7316
   51CHL1    C8 3714   4.015   2.168   7.363  0.1082 -0.6288  0.4087
   51CHL1    H8 3715   4.101   2.234   7.339 -1.3788  1.6683  1.2462
   51CHL1   C14 3716   3.991   2.167   7.511 -0.3823  0.3932  0.0497
   51CHL1   H14 3717   3.911   2.090   7.519  0.7495 -0.8479 -0.2836
   51CHL1   C15 3718   3.938   2.300   7.572 -0.3155  0.2730 -0.5739
   51CHL1  H15A 3719   3.990   2.397   7.556 -1.1946  1.1502  1.6347
   51CHL1  H15B 3720   3.834   2.306   7.533  0.4586  0.8485 -2.6484
   51CHL1   C16 3721   3.942   2.269   7.723  0.4405  0.3404  0.3499
   51CHL1  H16A 3722   3.970   2.360   7.780  0.2562 -1.3393  3.2200
   51CHL1  H16B 3723   3.848   2.227   7.763  1.2302 -1.9097 -0.0806
   51CHL1   C17 3724   4.041   2.151   7.738  1.0089  0.0654  0.8794
   51CHL1   H17 3725   3.984   2.056   7.747  1.1494 -0.4785 -3.1020
   51CHL1   C13 3726   4.109   2.122   7.598  0.2079  0.2543  0.0770
   51CHL1   C18 3727   4.227   2.224   7.583  0.4734 -0.3487  0.8906
   51CHL1  H18A 3728   4.232   2.265   7.480  0.7238  0.7189  1.3224
   51CHL1  H18B 3729   4.232   2.318   7.642 -0.2889  0.8664 -0.9546
   51CHL1  H18C 3730   4.319   2.163   7.596 -0.4199 -1.8366  0.2717
   51CHL1   C12 3731   4.144   1.980   7.554  0.0072  0.0397  0.0915
   51CHL1  H12A 3732   4.227   1.931   7.609 -0.6068 -1.8001 -0.5609
   51CHL1  H12B 3733   4.057   1.913   7.569  0.8235 -0.3787  3.3759
   51CHL1   C11 3734   4.183   1.976   7.401 -0.4513  0.0886 -0.3467
   51CHL1  H11A 3735   4.271   2.043   7.398 -0.1732 -0.2329  0.4767
   51CHL1  H11B 3736   4.215   1.874   7.370  1.9631  0.4287  0.9470
   51CHL1    C9 3737   4.064   2.027   7.314 -0.2627 -0.2042 -0.0101
   51CHL1    H9 3738   3.977   1.964   7.341 -1.3917  0.7934 -1.2222
   51CHL1   C10 3739   4.079   2.012   7.158 -0.0048  0.7325 -0.5899
   51CHL1   C19 3740   4.229   2.045   7.115 -0.0369 -0.0787 -0.3989
   51CHL1  H19A 3741   4.266   2.128   7.179  3.2805 -0.5444 -1.5896
   51CHL1  H19B 3742   4.285   1.955   7.146 -0.1321 -0.3970 -1.1447
   51CHL1  H19C 3743   4.238   2.069   7.006 -1.5979 -0.7188 -0.6814
   51CHL1    C1 3744   4.045   1.863   7.125  0.7814 -0.7607  0.1138
   51CHL1   H1A 3745   4.127   1.798   7.160 -0.1071 -1.5572  0.7363
   51CHL1   H1B 3746   3.953   1.833   7.180 -0.4593 -0.5427 -1.7969
   51CHL1    C2 3747   4.025   1.841   6.970 -0.0707 -0.7492 -0.2784
   51CHL1   H2A 3748   3.969   1.747   6.953 -0.5627 -0.2763 -1.3390
   51CHL1   H2B 3749   4.122   1.843   6.917 -0.8911 -2.1208 -1.8970
   51CHL1   C20 3750   4.130   2.169   7.857 -0.1381 -0.5633 -0.3987
   51CHL1   H20 3751   4.180   2.268   7.851 -0.3746 -0.3722  0.6732
   51CHL1   C21 3752   4.233   2.058   7.864 -0.0359 -0.1016  0.1740
   51CHL1  H21A 3753   4.307   2.076   7.946 -0.3520  0.4356  0.3424
   51CHL1  H21B 3754   4.285   2.042   7.767  1.2845 -0.5612  0.9373
   51CHL1  H21C 3755   4.178   1.963   7.880 -0.1507  0.1331  1.1970
   51CHL1   C22 3756   4.047   2.178   7.990  0.4900 -0.4428 -1.1144
   51CHL1  H22A 3757   3.968   2.253   7.972 -0.1564  0.0145  2.9976
   51CHL1  H22B 3758   4.002   2.077   8.000 -1.9596  0.7593  0.4656
   51CHL1   C23 3759   4.126   2.213   8.119 -0.4240  0.0442  0.2612
   51CHL1  H23A 3760   4.194   2.128   8.139 -0.7423 -0.7142 -1.7845
   51CHL1  H23B 3761   4.192   2.300   8.100  0.3617 -0.1512  1.9695
   51CHL1   C24 3762   4.030   2.228   8.238  0.7815 -0.1585 -0.2655
   51CHL1  H24A 3763   3.969   2.320   8.229  0.7466 -0.1260  0.2873
   51CHL1  H24B 3764   3.957   2.144   8.241  0.1568  0.4204  1.6214
   51CHL1   C25 3765   4.101   2.241   8.375 -0.6146 -0.1459 -0.5305
   51CHL1   H25 3766   4.184   2.167   8.378 -0.4381  0.0564 -0.2227
   51CHL1   C26 3767   4.184   2.375   8.389 -0.4270 -0.2356 -0.0305
   51CHL1  H26A 3768   4.122   2.466   8.384 -0.8436 -0.5336 -0.3023
   51CHL1  H26B 3769   4.238   2.381   8.486  1.4417 -2.6969 -0.8443
   51CHL1  H26C 3770   4.270   2.374   8.318  2.7112 -0.6261  3.6258
   51CHL1   C27 3771   4.019   2.215   8.499  0.6118 -0.1125  0.5775
   51CHL1  H27A 3772   3.981   2.110   8.497  1.1822 -0.3071 -0.8760
   51CHL1  H27B 3773   4.079   2.220   8.593  1.3094  0.5982  0.1009
   51CHL1  H27C 3774   3.935   2.286   8.510  0.1671 -0.6643  0.8050
   52CHL1    C3 3775   6.091   3.148   7.175  0.7027  0.1836  0.9553
   52CHL1    H3 3776   6.049   3.239   7.222  1.2159 -0.2372  2.2555
   52CHL1    O3 3777   6.065   3.159   7.035  0.2433  0.1981  0.5037
   52CHL1   H3' 3778   5.977   3.125   7.019  0.5571  0.1233 -1.1132
   52CHL1    C4 3779   6.245   3.150   7.195 -0.0068 -0.2626 -0.0926
   52CHL1   H4A 3780   6.286   3.062   7.142 -2.1422 -1.4658  0.1930
   52CHL1   H4B 3781   6.298   3.236   7.146  2.9482 -0.9109  1.8237
   52CHL1    C5 3782   6.271   3.129   7.342  0.4003  0.8469 -0.5459
   52CHL1    C6 3783   6.337   3.220   7.418  0.4187  0.1713  0.3795
   52CHL1    H6 3784   6.387   3.303   7.368  0.3974  2.4573  3.9503
   52CHL1    C7 3785   6.380   3.197   7.560 -0.1399  0.0787  0.0667
   52CHL1   H7A 3786   6.490   3.196   7.575 -0.0221 -1.2821 -0.7595
   52CHL1   H7B 3787   6.335   3.278   7.621 -1.5452 -1.1974  0.7788
   52CHL1    C8 3788   6.335   3.055   7.612  0.4428 -0.9301  0.4940
   52CHL1    H8 3789   6.418   2.988   7.580  0.3249 -0.1130 -1.5916
   52CHL1   C14 3790   6.336   3.050   7.766  0.0146  0.1558 -0.0646
   52CHL1   H14 3791   6.264   3.134   7.779 -1.3815 -0.9053 -0.8072
   52CHL1   C15 3792   6.470   3.092   7.831  0.0208  0.2802  0.1994
   52CHL1  H15A 3793   6.549   3.039   7.773 -1.2888  0.5910 -1.9377
   52CHL1  H15B 3794   6.472   3.203   7.827 -0.2068  0.3212  1.2594
   52CHL1   C16 3795   6.463   3.035   7.972 -0.2332  0.5530 -0.5194
   52CHL1  H16A 3796   6.543   2.958   7.984 -0.9191 -0.3895 -1.8038
   52CHL1  H16B 3797   6.486   3.116   8.043  0.4410 -0.6305  0.6243
   52CHL1   C17 3798   6.314   2.983   7.987 -0.6697  0.1333  0.4500
   52CHL1   H17 3799   6.255   3.073   8.016  1.0235  1.0129  1.2482
   52CHL1   C13 3800   6.279   2.936   7.845 -0.9520  0.5251 -0.2633
   52CHL1   C18 3801   6.363   2.806   7.816 -0.2287  0.0699 -0.5034
   52CHL1  H18A 3802   6.468   2.817   7.851 -0.2490  2.1136 -0.9923
   52CHL1  H18B 3803   6.310   2.719   7.860  0.5415  0.4362  1.2157
   52CHL1  H18C 3804   6.365   2.788   7.706 -0.2870  0.4039 -0.5600
   52CHL1   C12 3805   6.137   2.902   7.797  0.0046 -0.2756 -0.4421
   52CHL1  H12A 3806   6.112   2.801   7.837  2.9265 -0.5803  0.7562
   52CHL1  H12B 3807   6.068   2.986   7.819 -1.7347 -2.1663  1.5846
   52CHL1   C11 3808   6.130   2.893   7.645 -0.0883 -0.8974  0.5567
   52CHL1  H11A 3809   6.161   2.789   7.622  3.4822 -0.2381  2.0600
   52CHL1  H11B 3810   6.021   2.901   7.624 -0.1556 -1.2298  0.7729
   52CHL1    C9 3811   6.194   3.016   7.569  0.1612  0.5987 -0.3669
   52CHL1    H9 3812   6.125   3.098   7.596  1.0733  0.5505  2.2316
   52CHL1   C10 3813   6.199   3.002   7.409  0.1562  0.9643 -0.4093
   52CHL1   C19 3814   6.272   2.870   7.378  0.5439  0.1772  0.3658
   52CHL1  H19A 3815   6.374   2.871   7.424  0.2396 -0.9062  1.0891
   52CHL1  H19B 3816   6.220   2.781   7.420 -0.6078  0.6337 -0.0977
   52CHL1  H19C 3817   6.277   2.839   7.272  2.5777 -1.4571  0.8970
   52CHL1    C1 3818   6.052   2.992   7.367 -0.4059 -0.3550 -0.3393
   52CHL1   H1A 3819   6.003   2.897   7.396  0.8371 -0.2136  2.4114
   52CHL1   H1B 3820   5.995   3.077   7.412 -0.4699  0.0683 -1.2044
   52CHL1    C2 3821   6.037   3.013   7.216 -0.2534  0.1104  0.3065
   52CHL1   H2A 3822   5.927   3.016   7.203 -0.2827  4.0148  0.7600
   52CHL1   H2B 3823   6.076   2.928   7.157  0.8866  2.0070 -1.7500
   52CHL1   C20 3824   6.311   2.878   8.099 -0.5296  0.1309 -0.2075
   52CHL1   H20 3825   6.353   2.778   8.076 -0.2445  0.1947  0.0211
   52CHL1   C21 3826   6.163   2.856   8.142 -0.1404  0.6005 -0.7558
   52CHL1  H21A 3827   6.119   2.944   8.194 -1.5190 -0.5503  0.0493
   52CHL1  H21B 3828   6.165   2.769   8.211  0.3311  1.2509  0.0728
   52CHL1  H21C 3829   6.091   2.819   8.067  1.2555 -2.2827 -0.7325
   52CHL1   C22 3830   6.396   2.922   8.217 -0.5850  0.2117 -0.4547
   52CHL1  H22A 3831   6.499   2.959   8.197 -1.2671  3.1996  1.2610
   52CHL1  H22B 3832   6.349   3.004   8.274 -1.6649  0.2121 -1.3452
   52CHL1   C23 3833   6.419   2.802   8.314  0.5637 -0.0881 -0.3173
   52CHL1  H23A 3834   6.336   2.731   8.333 -0.1703  0.5332 -1.1559
   52CHL1  H23B 3835   6.485   2.733   8.258  0.8687 -0.1222  0.0824
   52CHL1   C24 3836   6.476   2.845   8.454 -0.5195 -0.2542  0.6279
   52CHL1  H24A 3837   6.557   2.912   8.419 -1.1494  0.5067  0.6196
   52CHL1  H24B 3838   6.406   2.908   8.512 -0.1368  0.7726 -0.0114
   52CHL1   C25 3839   6.523   2.733   8.549  0.6295 -0.7893 -0.7681
   52CHL1   H25 3840   6.428   2.679   8.571  0.4279  0.9720  3.0398
   52CHL1   C26 3841   6.630   2.650   8.472  0.2059 -0.8495 -0.2858
   52CHL1  H26A 3842   6.715   2.715   8.442 -0.0036 -1.5412 -2.4276
   52CHL1  H26B 3843   6.682   2.581   8.542 -0.2274  0.9469  1.8932
   52CHL1  H26C 3844   6.578   2.587   8.397 -0.0209  2.2611 -2.8818
   52CHL1   C27 3845   6.581   2.778   8.687  0.2330 -0.4548  0.2520
   52CHL1  H27A 3846   6.658   2.857   8.674  1.1759 -1.3905  0.1082
   52CHL1  H27B 3847   6.507   2.829   8.752  0.7776 -2.3146  2.3806
   52CHL1  H27C 3848   6.603   2.681   8.737  1.2290 -3.4768 -5.5393
   53CHL1    C3 3849   2.220   6.335   7.152  0.3635  0.6036  0.1392
   53CHL1    H3 3850   2.220   6.446   7.148 -2.1859  0.6938  1.5372
   53CHL1    O3 3851   2.242   6.286   7.021  0.4402 -0.0128 -0.2618
   53CHL1   H3' 3852   2.174   6.333   6.971 -1.8417 -0.8717  1.9511
   53CHL1    C4 3853   2.334   6.270   7.241  0.8791  0.8234  0.3376
   53CHL1   H4A 3854   2.347   6.163   7.215  0.7853  0.6949  0.8196
   53CHL1   H4B 3855   2.433   6.311   7.213  1.0771  1.4046  1.8518
   53CHL1    C5 3856   2.313   6.287   7.394 -0.5144 -0.2161  0.3798
   53CHL1    C6 3857   2.408   6.343   7.470  0.5252  0.0049  0.0602
   53CHL1    H6 3858   2.509   6.357   7.431 -0.0817 -2.6409 -2.6095
   53CHL1    C7 3859   2.392   6.373   7.613  0.2883  0.0753  0.1064
   53CHL1   H7A 3860   2.481   6.345   7.673 -0.7669  0.2323  1.7538
   53CHL1   H7B 3861   2.395   6.483   7.629 -0.6859  0.1127  0.0133
   53CHL1    C8 3862   2.266   6.316   7.673  0.2127  0.3949 -0.4198
   53CHL1    H8 3863   2.286   6.207   7.689 -1.5403  0.2626  1.0268
   53CHL1   C14 3864   2.236   6.369   7.814  1.0543  0.5249 -0.6228
   53CHL1   H14 3865   2.223   6.479   7.807  0.9543  0.5583  0.0638
   53CHL1   C15 3866   2.339   6.371   7.932  0.1558 -0.8531  0.0451
   53CHL1  H15A 3867   2.393   6.275   7.942  0.9020 -0.3419  1.1308
   53CHL1  H15B 3868   2.429   6.436   7.926  0.0281 -0.6887 -0.0734
   53CHL1   C16 3869   2.255   6.418   8.057  0.5395 -0.3397 -0.0830
   53CHL1  H16A 3870   2.274   6.335   8.129 -1.3675 -0.0768  0.7591
   53CHL1  H16B 3871   2.282   6.521   8.090 -3.6937  1.1522 -0.9990
   53CHL1   C17 3872   2.105   6.409   8.012  0.2350 -0.2092  0.3450
   53CHL1   H17 3873   2.078   6.513   7.985 -0.3289 -0.1891  0.9555
   53CHL1   C13 3874   2.101   6.324   7.882 -0.8805  0.1834 -0.1127
   53CHL1   C18 3875   2.119   6.172   7.915  0.7191 -0.6106 -1.1119
   53CHL1  H18A 3876   2.170   6.128   7.827 -0.4807 -0.5020 -1.8791
   53CHL1  H18B 3877   2.191   6.152   7.997 -1.8726  1.2491  1.7070
   53CHL1  H18C 3878   2.024   6.127   7.951  0.9886  0.2901  0.7999
   53CHL1   C12 3879   1.986   6.349   7.785 -0.2720 -0.3191  1.0881
   53CHL1  H12A 3880   1.889   6.311   7.824 -0.9420 -1.7613 -1.8668
   53CHL1  H12B 3881   1.971   6.459   7.773  1.0433 -0.3312 -0.8803
   53CHL1   C11 3882   2.016   6.291   7.644  0.2155  0.2931  0.2313
   53CHL1  H11A 3883   2.018   6.180   7.649  0.6514  0.1920 -1.9525
   53CHL1  H11B 3884   1.923   6.312   7.587  1.2426  1.7524 -0.9327
   53CHL1    C9 3885   2.148   6.334   7.584  0.5954  0.2993 -0.6526
   53CHL1    H9 3886   2.132   6.442   7.565 -0.2654  0.6661  2.0157
   53CHL1   C10 3887   2.170   6.258   7.446  0.5496  0.4361 -1.1235
   53CHL1   C19 3888   2.159   6.098   7.461  0.4142 -1.0786 -0.7345
   53CHL1  H19A 3889   2.229   6.059   7.538 -0.7328 -1.3810  0.1611
   53CHL1  H19B 3890   2.057   6.066   7.490  0.4376  1.5046  2.5440
   53CHL1  H19C 3891   2.192   6.061   7.362 -0.2357  1.8437 -2.0958
   53CHL1    C1 3892   2.060   6.310   7.348  0.2002 -0.0878 -0.0696
   53CHL1   H1A 3893   1.974   6.246   7.375 -1.1232  1.1473 -1.2429
   53CHL1   H1B 3894   2.040   6.419   7.357 -0.3713 -0.2462  0.6607
   53CHL1    C2 3895   2.084   6.278   7.200 -0.1786  0.6458 -0.3554
   53CHL1   H2A 3896   2.005   6.329   7.142 -0.2338 -0.1955 -1.0366
   53CHL1   H2B 3897   2.087   6.167   7.191  4.6919  0.5014  1.5133
   53CHL1   C20 3898   2.009   6.374   8.122  0.8728 -0.1327 -0.1520
   53CHL1   H20 3899   2.018   6.266   8.150 -0.4803 -0.3442 -0.5161
   53CHL1   C21 3900   1.863   6.405   8.081 -0.0157 -0.8556  0.0672
   53CHL1  H21A 3901   1.789   6.374   8.157  0.5958 -1.5392  0.3889
   53CHL1  H21B 3902   1.827   6.348   7.993 -0.0919 -0.7040 -0.0026
   53CHL1  H21C 3903   1.849   6.512   8.054 -1.5635 -1.1135 -0.1890
   53CHL1   C22 3904   2.037   6.463   8.249  0.6121  0.0313 -0.7127
   53CHL1  H22A 3905   2.141   6.439   8.279  0.4621  0.8508  0.5300
   53CHL1  H22B 3906   2.026   6.571   8.225  2.7874  0.4481  0.0903
   53CHL1   C23 3907   1.957   6.429   8.383  0.2478 -0.6852 -0.5728
   53CHL1  H23A 3908   1.852   6.446   8.352  0.2108 -0.5254 -0.3619
   53CHL1  H23B 3909   1.978   6.327   8.423 -1.7375  0.1041  2.6827
   53CHL1   C24 3910   1.987   6.525   8.499  0.3448  0.7783  0.2538
   53CHL1  H24A 3911   2.096   6.517   8.519 -0.0347 -2.2383  1.3465
   53CHL1  H24B 3912   1.987   6.630   8.462 -1.6282  0.4189 -0.8056
   53CHL1   C25 3913   1.898   6.506   8.621 -0.1330  0.5620  0.7615
   53CHL1   H25 3914   1.920   6.586   8.695 -1.1165 -0.1310  1.8187
   53CHL1   C26 3915   1.742   6.524   8.600 -1.4090  0.5607  0.5575
   53CHL1  H26A 3916   1.734   6.622   8.548 -0.5871 -0.8241 -2.3070
   53CHL1  H26B 3917   1.694   6.453   8.529 -0.0424  0.2930 -0.1364
   53CHL1  H26C 3918   1.690   6.529   8.698 -0.9723  1.0837  0.7667
   53CHL1   C27 3919   1.923   6.372   8.694 -0.1714 -0.1831  0.2726
   53CHL1  H27A 3920   2.026   6.332   8.703 -0.8199 -1.6427  1.4665
   53CHL1  H27B 3921   1.890   6.365   8.800  3.6768  2.7898  1.7982
   53CHL1  H27C 3922   1.869   6.299   8.629 -2.1868  0.8089  0.7710
   54CHL1    C3 3923   2.624   1.410   6.800  0.2390 -0.4234  0.2644
   54CHL1    H3 3924   2.733   1.409   6.819  0.5934  1.2992 -1.5959
   54CHL1    O3 3925   2.597   1.416   6.660 -0.2577 -0.1415 -0.3944
   54CHL1   H3' 3926   2.636   1.494   6.620 -0.0372 -2.0404 -4.1428
   54CHL1    C4 3927   2.581   1.274   6.854 -0.0291 -0.5699  0.0578
   54CHL1   H4A 3928   2.470   1.271   6.843 -0.2254 -0.4474  1.8094
   54CHL1   H4B 3929   2.635   1.189   6.808  0.9468  0.4545 -0.7362
   54CHL1    C5 3930   2.597   1.268   7.006  0.5562  0.0900  0.3611
   54CHL1    C6 3931   2.659   1.160   7.064 -0.0970 -0.3413  0.5369
   54CHL1    H6 3932   2.682   1.073   7.001  0.5067 -1.1880  1.9028
   54CHL1    C7 3933   2.692   1.146   7.208  0.3984 -0.4513 -0.0017
   54CHL1   H7A 3934   2.683   1.038   7.233  1.9163 -0.4527  0.6261
   54CHL1   H7B 3935   2.797   1.180   7.219 -0.7173  3.0842  0.2002
   54CHL1    C8 3936   2.601   1.237   7.299  0.2632 -0.2323  0.2215
   54CHL1    H8 3937   2.496   1.199   7.305 -0.4940  1.7753  0.0874
   54CHL1   C14 3938   2.652   1.244   7.447  0.9600  0.4928  0.2105
   54CHL1   H14 3939   2.759   1.275   7.447  1.4012 -0.9796 -1.2640
   54CHL1   C15 3940   2.683   1.109   7.520  0.5892  0.5512 -0.5583
   54CHL1  H15A 3941   2.599   1.038   7.508  0.1151  0.8096  1.0973
   54CHL1  H15B 3942   2.769   1.052   7.479  0.9111  0.8478 -0.3026
   54CHL1   C16 3943   2.704   1.145   7.666 -0.7961 -0.1916  0.0671
   54CHL1  H16A 3944   2.645   1.078   7.732 -0.5617 -1.7521 -1.2877
   54CHL1  H16B 3945   2.811   1.129   7.691  0.0448  2.6401 -1.5161
   54CHL1   C17 3946   2.668   1.298   7.674  0.0179 -0.2646 -0.8571
   54CHL1   H17 3947   2.755   1.364   7.655  0.8229 -0.9060  0.5456
   54CHL1   C13 3948   2.580   1.331   7.545 -0.1601  0.0804  0.3810
   54CHL1   C18 3949   2.431   1.289   7.557  0.2663 -0.1154  0.3537
   54CHL1  H18A 3950   2.391   1.343   7.646  0.9130  1.4457 -0.3005
   54CHL1  H18B 3951   2.372   1.295   7.463 -1.1995 -0.0881  1.2533
   54CHL1  H18C 3952   2.425   1.183   7.592 -2.4331  0.5771  2.1429
   54CHL1   C12 3953   2.594   1.481   7.484 -0.1572  0.0092  0.4466
   54CHL1  H12A 3954   2.532   1.546   7.550  0.4235  1.0088  0.0127
   54CHL1  H12B 3955   2.694   1.524   7.503 -1.3418  1.6229  3.2545
   54CHL1   C11 3956   2.544   1.489   7.346  0.2005  0.1433  0.7266
   54CHL1  H11A 3957   2.436   1.467   7.357 -0.3596  0.6088 -2.9979
   54CHL1  H11B 3958   2.556   1.592   7.305  1.2815  0.0479  0.7881
   54CHL1    C9 3959   2.597   1.384   7.243  0.4055  1.0924 -0.1074
   54CHL1    H9 3960   2.705   1.409   7.250  0.5532  0.6311 -0.6897
   54CHL1   C10 3961   2.547   1.389   7.095  0.3914  0.2792  0.4797
   54CHL1   C19 3962   2.397   1.360   7.102  0.0870 -0.6253 -0.0912
   54CHL1  H19A 3963   2.339   1.438   7.155  2.9348  1.1611  0.5058
   54CHL1  H19B 3964   2.359   1.363   6.997 -2.0626  1.1348  0.7048
   54CHL1  H19C 3965   2.381   1.260   7.148  0.0095  0.5355  2.4522
   54CHL1    C1 3966   2.576   1.527   7.025  1.0694 -0.1872 -0.0945
   54CHL1   H1A 3967   2.522   1.608   7.078 -2.3697 -1.4657 -1.4899
   54CHL1   H1B 3968   2.685   1.549   7.037  1.1255 -0.6192  0.1995
   54CHL1    C2 3969   2.548   1.521   6.870 -0.0839 -0.4039 -0.3190
   54CHL1   H2A 3970   2.586   1.621   6.840  2.2724 -1.1192  0.1705
   54CHL1   H2B 3971   2.442   1.511   6.839  0.4331 -1.1065 -1.9367
   54CHL1   C20 3972   2.614   1.343   7.812  0.0678 -0.2653  0.1577
   54CHL1   H20 3973   2.513   1.300   7.831 -0.2359  1.1473  1.9601
   54CHL1   C21 3974   2.587   1.497   7.810  0.3342  0.5631 -0.4148
   54CHL1  H21A 3975   2.499   1.521   7.747 -0.8254 -1.8076  0.2435
   54CHL1  H21B 3976   2.678   1.551   7.775  1.2960 -2.6838 -3.1599
   54CHL1  H21C 3977   2.572   1.525   7.917 -0.3031  0.6187 -0.5139
   54CHL1   C22 3978   2.698   1.302   7.940  0.5411 -0.6475 -0.4331
   54CHL1  H22A 3979   2.656   1.343   8.035  0.6139 -0.8132 -0.3286
   54CHL1  H22B 3980   2.709   1.191   7.951  3.3482 -0.1986  2.1166
   54CHL1   C23 3981   2.850   1.356   7.937 -0.0508  0.1971  0.0694
   54CHL1  H23A 3982   2.898   1.305   7.850  2.1251  0.1509  1.2581
   54CHL1  H23B 3983   2.847   1.467   7.929  1.5408  0.3763  1.7136
   54CHL1   C24 3984   2.933   1.320   8.063  0.1741  0.3594  0.3060
   54CHL1  H24A 3985   2.855   1.310   8.141 -2.7286  0.2514 -2.5247
   54CHL1  H24B 3986   2.978   1.220   8.048  1.4659  0.7192  1.6546
   54CHL1   C25 3987   3.047   1.424   8.087  0.5914  0.0623 -0.3431
   54CHL1   H25 3988   3.106   1.430   7.993 -0.4632 -0.5909 -1.0568
   54CHL1   C26 3989   2.988   1.555   8.131 -0.0778  0.5900 -0.4848
   54CHL1  H26A 3990   2.933   1.614   8.054 -0.0732  0.9628 -0.2000
   54CHL1  H26B 3991   2.910   1.532   8.206  0.1474  1.9768  0.1874
   54CHL1  H26C 3992   3.056   1.630   8.176  0.8920  0.0040 -0.9479
   54CHL1   C27 3993   3.153   1.383   8.196  0.7885 -0.3078 -0.1046
   54CHL1  H27A 3994   3.235   1.457   8.185 -1.9360  3.0566  1.2814
   54CHL1  H27B 3995   3.121   1.367   8.301 -1.2556  0.5306 -0.5765
   54CHL1  H27C 3996   3.190   1.281   8.172  1.9632 -0.1448  1.0082
   55CHL1    C3 3997   2.194   2.887   6.834 -0.8049 -0.0421 -0.1115
   55CHL1    H3 3998   2.233   2.783   6.843  0.8566  0.6535  1.0844
   55CHL1    O3 3999   2.113   2.896   6.724 -0.5899 -0.9076  0.2590
   55CHL1   H3' 4000   2.102   2.991   6.717 -2.0210 -1.0137  0.9470
   55CHL1    C4 4001   2.106   2.913   6.964  0.1503 -0.1350  0.1162
   55CHL1   H4A 4002   2.027   2.988   6.941  0.0749  1.1890  4.3470
   55CHL1   H4B 4003   2.053   2.818   6.987 -0.5351  0.0785 -0.5743
   55CHL1    C5 4004   2.187   2.957   7.088 -0.8638  0.1163  0.0399
   55CHL1    C6 4005   2.165   2.890   7.200 -0.1055 -0.2953 -0.8769
   55CHL1    H6 4006   2.087   2.814   7.212 -1.2401  1.2876  2.1746
   55CHL1    C7 4007   2.231   2.922   7.329  0.7803  0.1355 -0.0611
   55CHL1   H7A 4008   2.172   2.940   7.422  0.9471 -2.5127  0.6049
   55CHL1   H7B 4009   2.307   2.842   7.345  0.8131  0.2381  0.3053
   55CHL1    C8 4010   2.311   3.058   7.323 -0.4636 -0.1595  0.0437
   55CHL1    H8 4011   2.232   3.136   7.323 -1.3709 -1.0693 -1.0250
   55CHL1   C14 4012   2.405   3.082   7.441  0.3767  0.1391  0.0129
   55CHL1   H14 4013   2.487   3.008   7.444  0.7903  0.6109  0.4578
   55CHL1   C15 4014   2.338   3.074   7.580  0.3486  1.1036 -0.5013
   55CHL1  H15A 4015   2.243   3.132   7.582 -0.5003 -0.2720 -0.0968
   55CHL1  H15B 4016   2.314   2.973   7.619  2.1701  0.2414 -1.5540
   55CHL1   C16 4017   2.443   3.148   7.671 -0.5913 -0.3902 -0.3086
   55CHL1  H16A 4018   2.385   3.214   7.738 -0.3082 -0.6852  0.2284
   55CHL1  H16B 4019   2.491   3.078   7.742 -2.2925  1.7783  3.0865
   55CHL1   C17 4020   2.551   3.219   7.581  0.5090  0.4187  0.3124
   55CHL1   H17 4021   2.639   3.152   7.569 -0.7237 -1.4836  1.4516
   55CHL1   C13 4022   2.482   3.219   7.439  0.1692 -0.8732  0.3561
   55CHL1   C18 4023   2.376   3.342   7.432  0.4505  0.0290 -0.1323
   55CHL1  H18A 4024   2.325   3.347   7.530  0.7966 -0.4292  0.0715
   55CHL1  H18B 4025   2.427   3.440   7.416 -1.2887  0.7811 -1.2449
   55CHL1  H18C 4026   2.293   3.331   7.359  0.0571 -1.9751  0.6032
   55CHL1   C12 4027   2.570   3.206   7.313  0.2128  0.2918 -0.2133
   55CHL1  H12A 4028   2.613   3.308   7.298  3.0272 -0.7335  0.6489
   55CHL1  H12B 4029   2.644   3.126   7.327 -1.6665 -1.5759 -0.6668
   55CHL1   C11 4030   2.483   3.183   7.186  0.5471 -0.7522 -0.2423
   55CHL1  H11A 4031   2.432   3.281   7.174 -0.1437 -1.3217 -2.1516
   55CHL1  H11B 4032   2.556   3.175   7.103 -1.5798 -0.6956 -2.1607
   55CHL1    C9 4033   2.393   3.066   7.189 -0.6019 -0.0715  0.3063
   55CHL1    H9 4034   2.464   2.981   7.199  0.5908  0.8940  0.1150
   55CHL1   C10 4035   2.300   3.051   7.065 -0.0662  0.2499 -0.9079
   55CHL1   C19 4036   2.239   3.187   7.027  0.1452  0.2617 -0.2725
   55CHL1  H19A 4037   2.303   3.263   6.978 -0.4125  0.9918  0.1210
   55CHL1  H19B 4038   2.149   3.181   6.962 -0.6120 -1.0333  0.8875
   55CHL1  H19C 4039   2.198   3.239   7.117  0.4139 -0.7363  0.4329
   55CHL1    C1 4040   2.387   3.008   6.948  0.6817  0.4567 -0.0113
   55CHL1   H1A 4041   2.464   3.086   6.934  1.4001 -0.2500  0.0031
   55CHL1   H1B 4042   2.447   2.917   6.964  0.8398  0.5531 -0.0596
   55CHL1    C2 4043   2.302   2.995   6.816  0.9898 -0.3292 -0.2687
   55CHL1   H2A 4044   2.373   2.955   6.741  0.1057 -2.3518 -0.0525
   55CHL1   H2B 4045   2.262   3.093   6.781  4.4106  0.4719 -2.1350
   55CHL1   C20 4046   2.609   3.345   7.641  0.6088  0.1927 -0.5659
   55CHL1   H20 4047   2.532   3.425   7.650  0.5362 -0.2226  3.9069
   55CHL1   C21 4048   2.732   3.408   7.564  0.4286  0.6716  0.2559
   55CHL1  H21A 4049   2.714   3.430   7.456  2.9006  1.3492 -0.0503
   55CHL1  H21B 4050   2.819   3.341   7.585  0.2515  0.5022  0.4507
   55CHL1  H21C 4051   2.759   3.502   7.617  0.6927  0.1389  1.0803
   55CHL1   C22 4052   2.658   3.321   7.795 -0.3044  0.3648  0.0132
   55CHL1  H22A 4053   2.559   3.290   7.835 -0.1113  0.3135  0.4560
   55CHL1  H22B 4054   2.724   3.231   7.792 -0.5407  0.1610  0.7196
   55CHL1   C23 4055   2.723   3.436   7.862  0.0800 -0.5793  0.0983
   55CHL1  H23A 4056   2.825   3.450   7.820  0.6778 -0.6631  1.5142
   55CHL1  H23B 4057   2.657   3.526   7.854 -2.2603 -2.2627 -0.2367
   55CHL1   C24 4058   2.738   3.412   8.011  0.0333 -0.1154 -0.1334
   55CHL1  H24A 4059   2.641   3.426   8.062 -0.4740  0.7645 -1.3277
   55CHL1  H24B 4060   2.778   3.308   8.019 -0.9907 -0.5858 -0.9703
   55CHL1   C25 4061   2.838   3.511   8.082 -1.3678  0.8911  0.8379
   55CHL1   H25 4062   2.935   3.517   8.027  0.2118 -0.4840  3.3647
   55CHL1   C26 4063   2.794   3.658   8.103  0.4086 -0.1632 -0.1382
   55CHL1  H26A 4064   2.696   3.659   8.156  0.0801  2.4222 -0.7676
   55CHL1  H26B 4065   2.868   3.711   8.167  0.9083 -1.0119  0.0057
   55CHL1  H26C 4066   2.774   3.708   8.006 -2.8247 -1.2570 -0.1116
   55CHL1   C27 4067   2.878   3.450   8.224 -0.2720  0.0018  0.5413
   55CHL1  H27A 4068   2.905   3.342   8.224 -0.2004  0.0123 -1.6999
   55CHL1  H27B 4069   2.966   3.506   8.264  0.5554 -0.1653 -1.0207
   55CHL1  H27C 4070   2.795   3.474   8.294 -0.1392  2.7994 -0.2163
   56CHL1    C3 4071   1.590   0.762   6.810  0.5743 -0.0535 -0.2289
   56CHL1    H3 4072   1.521   0.675   6.807  0.1370  0.3079 -0.7248
   56CHL1    O3 4073   1.611   0.811   6.677 -0.3598 -0.0364 -0.1834
   56CHL1   H3' 4074   1.548   0.883   6.665 -1.2459 -1.1840 -2.9102
   56CHL1    C4 4075   1.523   0.885   6.879 -0.2326 -0.0763  0.3515
   56CHL1   H4A 4076   1.589   0.973   6.863 -0.0312 -0.2612  0.1452
   56CHL1   H4B 4077   1.427   0.906   6.828 -0.4969 -1.4092  0.2803
   56CHL1    C5 4078   1.496   0.858   7.025 -0.2382 -0.2689  0.4729
   56CHL1    C6 4079   1.369   0.870   7.075  0.0343 -1.1881 -0.3239
   56CHL1    H6 4080   1.288   0.907   7.010  0.6961 -1.5083 -1.3529
   56CHL1    C7 4081   1.345   0.865   7.223  0.1251 -0.3090 -0.8025
   56CHL1   H7A 4082   1.275   0.947   7.252 -0.0494 -0.0391 -1.9675
   56CHL1   H7B 4083   1.282   0.778   7.252 -4.4842  3.4419  1.0760
   56CHL1    C8 4084   1.473   0.849   7.308  0.1997 -0.3236 -0.1558
   56CHL1    H8 4085   1.516   0.951   7.321 -3.3102  1.0621  1.0808
   56CHL1   C14 4086   1.449   0.814   7.449  0.2932  1.0573  0.1508
   56CHL1   H14 4087   1.396   0.716   7.450  0.5370  0.9136  2.9561
   56CHL1   C15 4088   1.337   0.896   7.525  0.7234 -0.3519 -1.0239
   56CHL1  H15A 4089   1.344   1.004   7.500 -0.2803  0.0568  0.3828
   56CHL1  H15B 4090   1.237   0.860   7.493 -0.7715  0.0230  2.9911
   56CHL1   C16 4091   1.378   0.875   7.672 -0.5559  0.8513  0.0188
   56CHL1  H16A 4092   1.422   0.969   7.711 -2.3976  0.2588  3.7485
   56CHL1  H16B 4093   1.296   0.832   7.733  2.1855  1.3506  4.2698
   56CHL1   C17 4094   1.504   0.777   7.676  0.2075  0.4464  0.1872
   56CHL1   H17 4095   1.455   0.677   7.678 -0.2096  0.6648  1.1553
   56CHL1   C13 4096   1.574   0.796   7.539  0.7448  0.1449  0.7254
   56CHL1   C18 4097   1.655   0.929   7.551  0.5239 -0.1541 -0.1177
   56CHL1  H18A 4098   1.682   0.984   7.458 -0.5545 -0.0728 -0.3836
   56CHL1  H18B 4099   1.597   1.001   7.611 -0.9346 -0.2653 -1.3461
   56CHL1  H18C 4100   1.750   0.918   7.608  1.0209  1.9645 -0.4972
   56CHL1   C12 4101   1.658   0.685   7.471  0.3107  0.3613 -0.0533
   56CHL1  H12A 4102   1.754   0.672   7.525  1.2158  2.7923 -1.0100
   56CHL1  H12B 4103   1.596   0.592   7.470 -1.7300  1.6605 -2.7995
   56CHL1   C11 4104   1.693   0.717   7.328  0.9403 -0.2612 -0.0200
   56CHL1  H11A 4105   1.759   0.806   7.329 -2.0404  2.0378  1.7852
   56CHL1  H11B 4106   1.741   0.629   7.280 -0.5266 -0.4708 -1.1574
   56CHL1    C9 4107   1.576   0.756   7.239 -0.0272  0.6859  0.6098
   56CHL1    H9 4108   1.528   0.657   7.221  2.0889 -0.1020 -0.9496
   56CHL1   C10 4109   1.620   0.816   7.103  0.4812  0.5024 -0.0177
   56CHL1   C19 4110   1.696   0.952   7.121  0.1881 -0.6290  0.2337
   56CHL1  H19A 4111   1.721   0.995   7.022  0.2077 -2.5220 -0.5931
   56CHL1  H19B 4112   1.631   1.033   7.161  1.3964  2.0259 -2.8991
   56CHL1  H19C 4113   1.793   0.945   7.175  0.3152 -1.6881 -0.1283
   56CHL1    C1 4114   1.706   0.710   7.021  0.2597 -0.1624  0.4157
   56CHL1   H1A 4115   1.804   0.699   7.072 -0.8671  1.3411  3.0522
   56CHL1   H1B 4116   1.645   0.619   7.043 -2.9773  2.4099  2.6146
   56CHL1    C2 4117   1.720   0.731   6.874 -0.2204  0.1071 -0.1402
   56CHL1   H2A 4118   1.767   0.639   6.833 -0.0075 -0.7801  2.0276
   56CHL1   H2B 4119   1.784   0.820   6.858  0.6607 -0.6801 -1.1073
   56CHL1   C20 4120   1.584   0.788   7.808 -1.5764 -0.1410 -0.4846
   56CHL1   H20 4121   1.665   0.863   7.794  0.1932 -1.7084  0.9576
   56CHL1   C21 4122   1.659   0.651   7.827  0.0425 -0.1151  0.4079
   56CHL1  H21A 4123   1.736   0.653   7.907 -1.2948 -1.5287  1.7649
   56CHL1  H21B 4124   1.710   0.632   7.730  0.5007 -1.5782  0.9203
   56CHL1  H21C 4125   1.585   0.570   7.838 -2.1011  1.6087 -0.7955
   56CHL1   C22 4126   1.497   0.829   7.929  0.7120  0.9151  0.1140
   56CHL1  H22A 4127   1.453   0.931   7.921 -1.1071  0.0233 -1.6940
   56CHL1  H22B 4128   1.410   0.760   7.931  0.1173  1.6843  1.2743
   56CHL1   C23 4129   1.561   0.828   8.066 -0.6998  0.3854 -0.5759
   56CHL1  H23A 4130   1.584   0.724   8.098 -4.1487 -1.0659 -2.4699
   56CHL1  H23B 4131   1.658   0.880   8.059 -1.0990  1.1506 -0.4544
   56CHL1   C24 4132   1.474   0.893   8.175 -0.1171 -0.2498 -0.2631
   56CHL1  H24A 4133   1.427   0.986   8.135  0.3352 -1.5031 -3.8631
   56CHL1  H24B 4134   1.386   0.826   8.186 -1.7183  1.5368 -1.7397
   56CHL1   C25 4135   1.547   0.930   8.306 -0.5184  0.2761  0.1384
   56CHL1   H25 4136   1.588   0.837   8.350  0.1779 -0.2176 -1.5115
   56CHL1   C26 4137   1.673   1.009   8.279  0.2323 -0.9301 -0.3369
   56CHL1  H26A 4138   1.755   0.943   8.242  0.1490 -1.3807  0.2686
   56CHL1  H26B 4139   1.707   1.051   8.376  1.4343 -0.8991 -0.7591
   56CHL1  H26C 4140   1.644   1.091   8.211  1.6997 -0.5508 -0.5301
   56CHL1   C27 4141   1.468   1.007   8.412  0.5326  0.0268  0.0797
   56CHL1  H27A 4142   1.369   0.958   8.421  0.8481 -0.5505  0.4243
   56CHL1  H27B 4143   1.518   1.003   8.511  2.2601  0.3340 -0.7639
   56CHL1  H27C 4144   1.465   1.114   8.380  1.9201  0.6833  2.0249
   57SAPC     N 4145   1.942   4.678  10.819  0.3040 -0.0909  1.0205
   57SAPC   C12 4146   1.887   4.681  10.678 -0.5883  0.0116 -0.3785
   57SAPC  H12A 4147   1.973   4.676  10.613  1.4474 -3.8203  2.4318
   57SAPC  H12B 4148   1.847   4.781  10.664  1.8130  0.9757 -0.5780
   57SAPC   C13 4149   2.020   4.556  10.839 -0.1990  0.4926  0.5290
   57SAPC  H13A 4150   2.115   4.579  10.793  0.8113 -1.0470  1.7931
   57SAPC  H13B 4151   2.047   4.544  10.943 -1.1473  0.6707  0.7956
   57SAPC  H13C 4152   1.982   4.464  10.797  0.8223 -0.0209  0.7105
   57SAPC   C14 4153   2.044   4.783  10.851  0.0132 -0.6315  0.2083
   57SAPC  H14A 4154   2.072   4.793  10.955 -1.7434  0.9218  0.5689
   57SAPC  H14B 4155   2.137   4.779  10.797  0.1536  0.7978  0.3101
   57SAPC  H14C 4156   2.009   4.883  10.827  1.7062  0.3405  1.6170
   57SAPC   C15 4157   1.830   4.681  10.918  0.5185 -0.2024  0.6232
   57SAPC  H15A 4158   1.858   4.642  11.014  2.1877  1.2688  0.7400
   57SAPC  H15B 4159   1.777   4.775  10.918 -1.3332 -1.1739 -1.9676
   57SAPC  H15C 4160   1.766   4.603  10.879  2.2548 -1.5977  0.4897
   57SAPC   C11 4161   1.791   4.570  10.637 -0.0991  0.1343  0.2283
   57SAPC  H11A 4162   1.839   4.471  10.653 -0.1097  0.2463  0.9802
   57SAPC  H11B 4163   1.775   4.580  10.527 -0.1020 -0.9809  0.1140
   57SAPC     P 4164   1.562   4.470  10.707 -0.0532 -0.0455 -0.2332
   57SAPC   O13 4165   1.617   4.359  10.787 -0.2875 -0.4376  0.9760
   57SAPC   O14 4166   1.431   4.529  10.748 -0.1909 -0.1437 -0.1694
   57SAPC   O12 4167   1.669   4.581  10.703  0.7154 -0.4905 -0.2357
   57SAPC   O11 4168   1.559   4.419  10.558 -0.2501  0.3088  0.0213
   57SAPC    C1 4169   1.467   4.485  10.455 -0.1649  0.3266 -0.6501
   57SAPC    HA 4170   1.456   4.593  10.475  0.6940 -0.1706  2.8319
   57SAPC    HB 4171   1.519   4.480  10.357 -2.3095 -0.2049 -1.7931
   57SAPC    C2 4172   1.320   4.424  10.456 -0.2930 -0.0412  0.3659
   57SAPC    HS 4173   1.281   4.437  10.560  0.0867 -0.8985  0.6174
   57SAPC   O21 4174   1.332   4.291  10.414  0.0014  0.2525  0.5158
   57SAPC   C21 4175   1.226   4.219  10.418  0.3808 -0.5738  0.1285
   57SAPC   O22 4176   1.125   4.248  10.482  0.3782 -0.0493 -0.1597
   57SAPC   C22 4177   1.241   4.094  10.338  0.0800  0.3899  0.3444
   57SAPC   H2R 4178   1.331   4.039  10.373  0.2954 -0.2818 -1.1813
   57SAPC   H2S 4179   1.148   4.044  10.371 -0.4935  1.4373  0.3356
   57SAPC    C3 4180   1.232   4.512  10.359  0.1336 -0.7137 -0.0908
   57SAPC    HX 4181   1.245   4.617  10.393  0.2032 -0.5991 -0.4731
   57SAPC    HY 4182   1.125   4.487  10.378 -0.1957  0.8181  0.1412
   57SAPC   O31 4183   1.251   4.497  10.212  0.5591 -0.2056  0.0710
   57SAPC   C31 4184   1.346   4.571  10.145 -0.8142  0.0296  0.3956
   57SAPC   O32 4185   1.416   4.651  10.198  0.2924  0.6509  0.1803
   57SAPC   C32 4186   1.343   4.543  10.000 -0.0581 -0.2368 -0.4150
   57SAPC   H2X 4187   1.324   4.434   9.996  0.0144 -0.2878  0.4884
   57SAPC   H2Y 4188   1.446   4.558   9.961  0.1783 -0.9127 -0.0504
   57SAPC   C23 4189   1.224   4.101  10.181 -0.0094 -0.1489 -0.0552
   57SAPC   H3R 4190   1.257   4.203  10.152  2.4544 -1.5702 -2.4297
   57SAPC   H3S 4191   1.120   4.071  10.155  0.2467 -0.6223 -0.5397
   57SAPC   C24 4192   1.314   4.005  10.108  0.5522  0.7528  0.1309
   57SAPC   H4R 4193   1.419   4.020  10.141  0.1859 -0.9775  2.1610
   57SAPC   H4S 4194   1.306   4.014   9.997 -1.4510  0.8441  0.2700
   57SAPC   C25 4195   1.268   3.864  10.144 -0.3643 -0.1384  0.0832
   57SAPC   H5R 4196   1.184   3.859  10.215 -0.7746  1.0861 -0.2902
   57SAPC   C26 4197   1.329   3.752  10.089 -0.3854 -0.5956  1.2173
   57SAPC   H6R 4198   1.298   3.650  10.113 -1.5762 -0.1422  1.6231
   57SAPC   C27 4199   1.443   3.775   9.981 -0.6161  0.0105 -0.1458
   57SAPC   H7R 4200   1.532   3.806  10.039 -1.4159  2.9040 -0.4026
   57SAPC   H7S 4201   1.425   3.859   9.911  0.4303  0.9133  0.6477
   57SAPC   C28 4202   1.454   3.649   9.889 -0.1561 -0.7839 -0.2817
   57SAPC   H8R 4203   1.458   3.554   9.943 -0.3690 -0.2533  0.6748
   57SAPC   C29 4204   1.450   3.647   9.757  0.0822  0.8545 -0.4835
   57SAPC   H9R 4205   1.448   3.547   9.711 -1.3024  0.0480  1.2381
   57SAPC  C210 4206   1.458   3.757   9.655  0.3283  0.4106  0.1707
   57SAPC  H10R 4207   1.526   3.726   9.572  2.6875 -0.2158  2.2615
   57SAPC  H10S 4208   1.513   3.840   9.705 -0.7359 -0.9905  3.8221
   57SAPC  C211 4209   1.319   3.799   9.601 -0.0159  0.7877 -0.0669
   57SAPC  H11R 4210   1.236   3.756   9.660  0.4813 -0.1683 -0.0663
   57SAPC  C212 4211   1.294   3.872   9.494 -0.3547  0.3487 -0.1436
   57SAPC  H12R 4212   1.191   3.906   9.474 -0.7159  0.4324  1.7838
   57SAPC  C213 4213   1.399   3.936   9.400 -0.6489  0.3825  0.2321
   57SAPC  H13R 4214   1.366   3.917   9.295 -0.6271 -0.6363  0.4071
   57SAPC  H13S 4215   1.502   3.895   9.412 -1.7908 -2.4886  0.5550
   57SAPC  C214 4216   1.398   4.089   9.413 -0.7189  0.2960  0.5530
   57SAPC  H14R 4217   1.467   4.127   9.489 -0.3205  0.9865 -0.1474
   57SAPC  C215 4218   1.330   4.181   9.343 -0.2641  0.1747 -0.3677
   57SAPC  H15R 4219   1.345   4.288   9.361  1.6579 -0.1124 -0.1964
   57SAPC  C216 4220   1.235   4.153   9.230 -0.0621  0.3945  0.3338
   57SAPC  H16R 4221   1.232   4.045   9.207 -2.4782  0.2603  1.1973
   57SAPC  H16S 4222   1.269   4.204   9.137 -2.5804 -1.2668 -1.5310
   57SAPC  C217 4223   1.099   4.205   9.256 -0.5343 -0.3746 -0.0204
   57SAPC  H17R 4224   1.044   4.205   9.159 -0.3294  1.1182 -0.1460
   57SAPC  H17S 4225   1.103   4.312   9.282 -1.5295  0.2070 -2.1233
   57SAPC  C218 4226   1.028   4.117   9.363 -0.4569  0.2967  0.4967
   57SAPC  H18R 4227   1.105   4.095   9.440  0.1582 -0.6413 -0.3780
   57SAPC  H18S 4228   1.024   4.018   9.312  1.1384  0.3549  0.2438
   57SAPC  C219 4229   0.888   4.157   9.407  0.6262  0.0612  0.2941
   57SAPC  H19R 4230   0.834   4.170   9.311  0.6310  2.3251  0.5866
   57SAPC  H19S 4231   0.891   4.258   9.453 -0.5445  0.9775 -1.6064
   57SAPC  C220 4232   0.817   4.078   9.515  1.0678  0.4159 -0.8492
   57SAPC  H20R 4233   0.866   4.080   9.614  0.4011  4.7151 -0.5266
   57SAPC  H20S 4234   0.798   3.972   9.486  0.2600 -0.3709  2.3611
   57SAPC  H20T 4235   0.715   4.118   9.528 -0.9012 -2.9360 -4.6235
   57SAPC   C33 4236   1.242   4.620   9.919  1.0449  1.8397  0.4261
   57SAPC   H3X 4237   1.160   4.669   9.977  0.4854  0.3837  0.8779
   57SAPC   H3Y 4238   1.195   4.544   9.853  3.3258  0.1276  0.7286
   57SAPC   C34 4239   1.304   4.727   9.830  0.1252 -0.6481  0.8491
   57SAPC   H4X 4240   1.393   4.674   9.791  2.5588  2.4629  1.9591
   57SAPC   H4Y 4241   1.336   4.809   9.898 -0.3590  1.2761 -1.1595
   57SAPC   C35 4242   1.214   4.799   9.724 -0.0459  0.2345 -0.1724
   57SAPC   H5X 4243   1.289   4.852   9.662  1.0295 -2.7066 -1.4938
   57SAPC   H5Y 4244   1.138   4.862   9.775  1.8494  4.2408 -2.0729
   57SAPC   C36 4245   1.162   4.688   9.637  0.5288  0.7849  0.5303
   57SAPC   H6X 4246   1.082   4.643   9.700  2.1498 -0.8379  1.4766
   57SAPC   H6Y 4247   1.231   4.603   9.618 -0.8530 -0.6242  1.6666
   57SAPC   C37 4248   1.112   4.738   9.506 -0.2504 -0.4644  0.3829
   57SAPC   H7X 4249   1.194   4.775   9.441 -1.2687  0.4306 -0.4077
   57SAPC   H7Y 4250   1.040   4.822   9.517 -0.5466 -0.5271 -0.9930
   57SAPC   C38 4251   1.044   4.630   9.427  0.0627 -0.5397  0.0385
   57SAPC   H8X 4252   0.959   4.600   9.491 -0.6341  1.1425 -0.0771
   57SAPC   H8Y 4253   1.113   4.544   9.406 -0.7662 -1.8217  2.3778
   57SAPC   C39 4254   0.986   4.685   9.294 -0.2468  0.5578  0.1639
   57SAPC   H9X 4255   1.064   4.737   9.235  0.6792  1.7725  2.4418
   57SAPC   H9Y 4256   0.901   4.751   9.320 -0.6649  0.0666  0.0644
   57SAPC  C310 4257   0.905   4.573   9.222 -0.3209 -0.4112 -0.3056
   57SAPC  H10X 4258   0.853   4.522   9.306 -1.1587 -0.5716 -0.9139
   57SAPC  H10Y 4259   0.975   4.512   9.161  3.4757  1.4330  2.0540
   57SAPC  C311 4260   0.813   4.631   9.111 -0.3834 -0.2053 -0.2685
   57SAPC  H11X 4261   0.854   4.731   9.086  2.5732 -1.0425  0.9582
   57SAPC  H11Y 4262   0.708   4.640   9.148 -0.1911  1.3400 -0.0778
   57SAPC  C312 4263   0.817   4.554   8.977 -0.0669 -0.2430 -0.5097
   57SAPC  H12X 4264   0.769   4.456   8.999 -0.6060 -0.1702 -1.3050
   57SAPC  H12Y 4265   0.915   4.535   8.929 -0.4117 -0.0335 -1.3112
   57SAPC  C313 4266   0.742   4.632   8.867 -0.2484 -0.0105  0.6044
   57SAPC  H13X 4267   0.803   4.722   8.847 -2.2408  1.3379  0.5750
   57SAPC  H13Y 4268   0.644   4.656   8.912 -0.5205 -0.6455  0.3622
   57SAPC  C314 4269   0.711   4.557   8.736 -0.8759  0.6873  0.0064
   57SAPC  H14X 4270   0.806   4.525   8.687 -1.1052 -0.7764  0.4759
   57SAPC  H14Y 4271   0.670   4.631   8.665  2.5528  1.6341 -1.0881
   57SAPC  C315 4272   0.628   4.430   8.753  0.4011  0.3517  0.6646
   57SAPC  H15X 4273   0.540   4.451   8.817  0.2336 -1.2722  1.0083
   57SAPC  H15Y 4274   0.686   4.350   8.804 -0.7058  0.0212  1.4158
   57SAPC  C316 4275   0.569   4.378   8.621  0.3006  0.3783  0.1723
   57SAPC  H16X 4276   0.657   4.332   8.573  0.9047  2.4063 -0.7408
   57SAPC  H16Y 4277   0.530   4.462   8.560  1.5783  2.3686  2.0168
   57SAPC  C317 4278   0.462   4.269   8.637  0.5999 -0.7988 -0.3540
   57SAPC  H17X 4279   0.369   4.315   8.675  0.0128 -1.7276 -0.6492
   57SAPC  H17Y 4280   0.514   4.191   8.697 -0.3835 -1.3666 -0.2290
   57SAPC  C318 4281   0.422   4.215   8.505 -0.2098  0.9679 -0.5077
   57SAPC  H18X 4282   0.349   4.134   8.525  0.8931  0.0768 -0.0699
   57SAPC  H18Y 4283   0.513   4.177   8.455 -0.0634  1.1571 -0.3859
   57SAPC  H18Z 4284   0.370   4.295   8.448  0.4835 -0.2549 -2.9331
   58SAPC     N 4285   3.320   1.530  10.911  0.1316 -0.0365 -0.1811
   58SAPC   C12 4286   3.358   1.657  10.836 -0.7429 -0.0393 -0.1784
   58SAPC  H12A 4287   3.305   1.740  10.880  1.9749  0.6575  1.8557
   58SAPC  H12B 4288   3.310   1.646  10.739  1.3689 -0.1238 -1.2426
   58SAPC   C13 4289   3.362   1.404  10.835  0.4937 -0.0605 -0.4203
   58SAPC  H13A 4290   3.465   1.424  10.810  0.1734  0.8422 -1.0860
   58SAPC  H13B 4291   3.351   1.324  10.907  0.9180 -0.8209 -1.1920
   58SAPC  H13C 4292   3.292   1.377  10.757 -1.6594 -1.9193  2.0595
   58SAPC   C14 4293   3.378   1.533  11.053  0.2214  0.0001 -0.3461
   58SAPC  H14A 4294   3.341   1.464  11.128  1.2881  2.1785  2.2807
   58SAPC  H14B 4295   3.486   1.533  11.056  0.2105 -1.1786  0.4689
   58SAPC  H14C 4296   3.358   1.627  11.102 -0.0328  0.8120 -1.9793
   58SAPC   C15 4297   3.177   1.517  10.925 -0.5483  0.1584 -0.4208
   58SAPC  H15A 4298   3.130   1.514  10.827 -1.9332 -0.6665  0.2479
   58SAPC  H15B 4299   3.139   1.427  10.972 -2.4965  0.2093 -1.8435
   58SAPC  H15C 4300   3.125   1.588  10.986  2.6305  0.9462  1.4465
   58SAPC   C11 4301   3.504   1.699  10.799  0.2791  0.2388 -0.5511
   58SAPC  H11A 4302   3.559   1.693  10.895  0.1553 -0.1400 -0.5035
   58SAPC  H11B 4303   3.515   1.798  10.750  1.1438 -0.2740 -1.4075
   58SAPC     P 4304   3.544   1.602  10.563  0.2647 -0.3094 -0.4007
   58SAPC   O13 4305   3.628   1.493  10.507 -0.4063  0.1831 -0.2098
   58SAPC   O14 4306   3.404   1.593  10.530  0.8340  0.0356  0.6046
   58SAPC   O12 4307   3.562   1.606  10.715  0.3411  0.0457 -0.0333
   58SAPC   O11 4308   3.597   1.739  10.509  0.2674 -0.4754 -0.0479
   58SAPC    C1 4309   3.736   1.772  10.510 -0.5198 -0.0422 -0.5332
   58SAPC    HA 4310   3.755   1.851  10.586 -1.5235  0.0475 -0.3611
   58SAPC    HB 4311   3.798   1.690  10.552  0.8716  0.6612 -1.2072
   58SAPC    C2 4312   3.788   1.814  10.373 -0.4432  0.6838  0.5327
   58SAPC    HS 4313   3.897   1.793  10.379 -0.2648  1.7723  1.1848
   58SAPC   O21 4314   3.764   1.958  10.362  0.9727  0.0590 -0.4631
   58SAPC   C21 4315   3.859   2.028  10.303  0.1474  0.6408  0.6474
   58SAPC   O22 4316   3.954   1.988  10.238 -0.1353  0.1203 -0.2164
   58SAPC   C22 4317   3.822   2.178  10.330 -0.4635 -0.8406 -0.4120
   58SAPC   H2R 4318   3.711   2.183  10.341 -0.4900  3.6655 -1.7805
   58SAPC   H2S 4319   3.882   2.193  10.423 -0.6850  0.2265 -0.4272
   58SAPC    C3 4320   3.722   1.728  10.267  0.1597 -0.9037 -0.0927
   58SAPC    HX 4321   3.619   1.768  10.259 -0.2175 -2.0486 -1.1862
   58SAPC    HY 4322   3.719   1.621  10.298  2.3492 -1.0154 -0.1476
   58SAPC   O31 4323   3.788   1.742  10.148 -0.4923  0.1282  0.1347
   58SAPC   C31 4324   3.903   1.674  10.125  0.0409  0.2330  0.1791
   58SAPC   O32 4325   3.963   1.601  10.203  0.6088 -0.4952 -0.0966
   58SAPC   C32 4326   3.948   1.699   9.983  0.3318  0.1203  0.1023
   58SAPC   H2X 4327   4.045   1.650   9.957  0.6706  0.2718  1.0786
   58SAPC   H2Y 4328   3.977   1.805   9.968 -0.1927 -0.0946 -2.8810
   58SAPC   C23 4329   3.856   2.253  10.205  0.5328 -0.0973 -0.3981
   58SAPC   H3R 4330   3.804   2.212  10.116 -0.6964  0.5419  0.0053
   58SAPC   H3S 4331   3.964   2.240  10.180  0.3668 -0.1756 -1.0838
   58SAPC   C24 4332   3.817   2.393  10.203  0.7002 -1.0373 -0.0733
   58SAPC   H4R 4333   3.851   2.429  10.104 -0.4217 -2.0171 -0.8322
   58SAPC   H4S 4334   3.876   2.449  10.278 -0.8813  2.7126 -1.4864
   58SAPC   C25 4335   3.672   2.437  10.230 -0.8293 -0.4685  0.1319
   58SAPC   H5R 4336   3.642   2.442  10.336 -1.2143 -0.2543  0.0130
   58SAPC   C26 4337   3.585   2.470  10.129 -0.4266  0.1254  0.0818
   58SAPC   H6R 4338   3.479   2.479  10.156 -0.5207  0.6781 -0.4532
   58SAPC   C27 4339   3.613   2.459   9.977 -0.1402  0.4769 -0.4396
   58SAPC   H7R 4340   3.584   2.360   9.936  1.4242  0.4181 -1.4236
   58SAPC   H7S 4341   3.721   2.472   9.955  0.1926 -0.6646  0.4441
   58SAPC   C28 4342   3.533   2.556   9.895 -0.4175 -0.4797 -0.4514
   58SAPC   H8R 4343   3.442   2.595   9.943 -1.7713 -2.2136 -1.5255
   58SAPC   C29 4344   3.559   2.594   9.769  0.3452 -0.5753  0.2452
   58SAPC   H9R 4345   3.497   2.670   9.719  1.1616 -0.2180 -0.2250
   58SAPC  C210 4346   3.670   2.547   9.674 -0.0530 -0.3093 -0.1082
   58SAPC  H10R 4347   3.749   2.500   9.736  0.1539  0.4807  0.2420
   58SAPC  H10S 4348   3.716   2.636   9.626  1.7846 -0.8975  0.4890
   58SAPC  C211 4349   3.615   2.444   9.584 -0.6641 -0.2351 -0.2153
   58SAPC  H11R 4350   3.610   2.340   9.619 -0.2199 -0.0527  0.3977
   58SAPC  C212 4351   3.571   2.466   9.460 -0.8178 -1.0117  0.3949
   58SAPC  H12R 4352   3.516   2.383   9.412 -0.9555  0.1824 -1.5718
   58SAPC  C213 4353   3.571   2.595   9.379 -0.4506 -0.2505  0.3418
   58SAPC  H13R 4354   3.545   2.676   9.451  1.1608  1.6309 -1.1499
   58SAPC  H13S 4355   3.496   2.588   9.298 -0.3098  0.2483  0.1685
   58SAPC  C214 4356   3.704   2.609   9.319 -0.3889 -0.1017  0.9243
   58SAPC  H14R 4357   3.770   2.521   9.319 -1.1298 -0.7839 -3.4217
   58SAPC  C215 4358   3.749   2.723   9.259 -0.1369 -0.3398 -1.2002
   58SAPC  H15R 4359   3.849   2.737   9.217 -0.4225  0.3977 -1.6462
   58SAPC  C216 4360   3.656   2.838   9.247 -0.7131  0.1219 -0.6340
   58SAPC  H16R 4361   3.721   2.927   9.264 -1.3803  0.4103  0.4185
   58SAPC  H16S 4362   3.576   2.844   9.323 -0.0305 -0.5738  0.1444
   58SAPC  C217 4363   3.578   2.855   9.111  0.1516  0.3872  0.0079
   58SAPC  H17R 4364   3.496   2.928   9.131 -0.2714 -0.0329 -0.1615
   58SAPC  H17S 4365   3.527   2.759   9.085 -1.0471  0.7992  0.7728
   58SAPC  C218 4366   3.666   2.902   8.995 -0.3344  0.1596 -0.8937
   58SAPC  H18R 4367   3.737   2.824   8.962  0.4808  0.5365 -0.0659
   58SAPC  H18S 4368   3.716   2.989   9.043  0.5032 -1.2183  0.7941
   58SAPC  C219 4369   3.598   2.958   8.869  0.1883 -0.0861  0.4808
   58SAPC  H19R 4370   3.680   2.995   8.805 -0.6205 -1.7829 -1.5932
   58SAPC  H19S 4371   3.534   3.044   8.898  2.0534  1.1785  0.9447
   58SAPC  C220 4372   3.511   2.869   8.783 -0.0015 -0.1810 -0.1323
   58SAPC  H20R 4373   3.418   2.834   8.832 -0.2210 -1.6397 -1.5401
   58SAPC  H20S 4374   3.567   2.788   8.731 -0.0648 -0.7294  0.6422
   58SAPC  H20T 4375   3.468   2.941   8.710 -0.3938  0.7480  1.0036
   58SAPC   C33 4376   3.849   1.649   9.874 -0.0765  0.2539  1.4354
   58SAPC   H3X 4377   3.765   1.722   9.880 -1.1696 -0.8388 -0.2828
   58SAPC   H3Y 4378   3.810   1.550   9.904 -1.8248  0.7258  0.7852
   58SAPC   C34 4379   3.903   1.657   9.736  0.3039 -0.4217  0.2241
   58SAPC   H4X 4380   4.005   1.614   9.731 -0.1192 -1.5986  1.3578
   58SAPC   H4Y 4381   3.912   1.762   9.701  3.4930 -1.3901 -2.0677
   58SAPC   C35 4382   3.812   1.577   9.633  0.3076  0.6886  0.4775
   58SAPC   H5X 4383   3.712   1.625   9.626  0.1449  0.5717  1.8073
   58SAPC   H5Y 4384   3.802   1.469   9.656 -0.8520  0.4584 -1.0721
   58SAPC   C36 4385   3.878   1.579   9.498  0.3637 -0.2367 -0.0906
   58SAPC   H6X 4386   3.988   1.565   9.504  0.8752  2.8680 -0.9987
   58SAPC   H6Y 4387   3.850   1.673   9.445 -3.3022 -1.7147 -0.9296
   58SAPC   C37 4388   3.817   1.466   9.403 -0.2430  0.6199  0.0121
   58SAPC   H7X 4389   3.708   1.475   9.383  0.1161  0.5297 -2.1084
   58SAPC   H7Y 4390   3.846   1.369   9.449 -0.1011  0.1628 -1.0299
   58SAPC   C38 4391   3.886   1.475   9.266 -0.1499  0.4551  0.6083
   58SAPC   H8X 4392   3.991   1.498   9.291 -0.5999  1.1038  1.9616
   58SAPC   H8Y 4393   3.850   1.557   9.200 -1.2563  1.4226  2.3730
   58SAPC   C39 4394   3.869   1.345   9.180 -0.2085 -0.4210 -0.6750
   58SAPC   H9X 4395   3.761   1.329   9.158 -0.5299  2.2468 -1.2697
   58SAPC   H9Y 4396   3.916   1.260   9.232 -1.6370 -0.1169  1.1633
   58SAPC  C310 4397   3.940   1.362   9.048  0.0060 -0.8009  0.0238
   58SAPC  H10X 4398   3.969   1.263   9.008  1.3647 -0.6151  0.5244
   58SAPC  H10Y 4399   4.029   1.428   9.056  0.2541 -1.2346  0.9287
   58SAPC  C311 4400   3.841   1.435   8.953 -0.2086 -0.3192 -0.3977
   58SAPC  H11X 4401   3.819   1.540   8.981 -3.8581 -0.1157 -3.6558
   58SAPC  H11Y 4402   3.744   1.380   8.958 -0.7902  0.8448  1.8451
   58SAPC  C312 4403   3.884   1.424   8.807  0.3556 -0.4923 -0.0174
   58SAPC  H12X 4404   3.890   1.317   8.780  1.1602 -0.7315  1.0488
   58SAPC  H12Y 4405   3.983   1.470   8.784  0.5045 -1.5437 -1.5186
   58SAPC  C313 4406   3.785   1.489   8.716 -0.0590 -0.4669 -0.2215
   58SAPC  H13X 4407   3.687   1.471   8.764  0.2926  0.5686  0.9210
   58SAPC  H13Y 4408   3.794   1.434   8.620  0.1954 -0.3908 -0.2427
   58SAPC  C314 4409   3.801   1.638   8.693  0.3374  0.3491 -0.4932
   58SAPC  H14X 4410   3.903   1.677   8.673  0.9398  0.3162  2.4230
   58SAPC  H14Y 4411   3.771   1.683   8.789 -1.1398  0.0234 -0.7913
   58SAPC  C315 4412   3.696   1.696   8.593  0.7743 -0.5505 -0.7539
   58SAPC  H15X 4413   3.592   1.665   8.616  1.5722 -2.3978  0.5716
   58SAPC  H15Y 4414   3.724   1.670   8.489  0.7196 -4.1678  0.0653
   58SAPC  C316 4415   3.697   1.851   8.591  0.0950 -0.9683  0.0617
   58SAPC  H16X 4416   3.802   1.885   8.583 -0.1894 -0.6159 -2.3456
   58SAPC  H16Y 4417   3.657   1.881   8.690  0.0386 -0.0290 -0.2466
   58SAPC  C317 4418   3.631   1.920   8.471  1.1473 -0.8246  0.1662
   58SAPC  H17X 4419   3.659   1.866   8.379  1.0370  0.8821 -0.8967
   58SAPC  H17Y 4420   3.674   2.022   8.459 -1.8190  0.2855 -1.5524
   58SAPC  C318 4421   3.477   1.930   8.489  0.2507 -0.4768 -0.1234
   58SAPC  H18X 4422   3.453   1.969   8.590 -0.4176 -0.9139 -0.1157
   58SAPC  H18Y 4423   3.433   1.828   8.483  1.3842 -1.0258  0.7435
   58SAPC  H18Z 4424   3.434   1.991   8.406  0.8497 -0.1850 -0.2235
   59SAPC     N 4425   5.350   3.679  11.352  0.8501  1.1279 -0.8704
   59SAPC   C12 4426   5.264   3.573  11.276  0.3100  0.4355  0.2070
   59SAPC  H12A 4427   5.173   3.616  11.237 -1.1443 -1.4962  1.3547
   59SAPC  H12B 4428   5.239   3.503  11.355  1.0307 -0.4279 -0.3199
   59SAPC   C13 4429   5.479   3.621  11.406 -0.1962  0.1003 -0.0299
   59SAPC  H13A 4430   5.460   3.547  11.483  0.0855 -0.8496 -0.8618
   59SAPC  H13B 4431   5.522   3.563  11.325 -0.0691  1.8239 -1.2221
   59SAPC  H13C 4432   5.548   3.697  11.441 -0.4560 -0.8248  2.6352
   59SAPC   C14 4433   5.373   3.796  11.266  0.4790 -0.0028 -0.0285
   59SAPC  H14A 4434   5.278   3.828  11.227  0.9342  0.7764 -0.5001
   59SAPC  H14B 4435   5.415   3.873  11.329 -1.2473  0.6252  0.3966
   59SAPC  H14C 4436   5.418   3.783  11.169  2.7390 -1.3680  1.1483
   59SAPC   C15 4437   5.275   3.730  11.466  0.1229 -0.9672 -0.3792
   59SAPC  H15A 4438   5.286   3.662  11.549  0.6861  0.4664  0.7326
   59SAPC  H15B 4439   5.317   3.827  11.488  0.5399 -0.5619 -2.8146
   59SAPC  H15C 4440   5.171   3.746  11.441  0.5220  0.9506 -0.8957
   59SAPC   C11 4441   5.329   3.485  11.158  0.3247  0.3335 -0.0233
   59SAPC  H11A 4442   5.332   3.545  11.064  1.4849 -1.7214 -1.3414
   59SAPC  H11B 4443   5.250   3.411  11.132 -1.1138  1.1391  2.0271
   59SAPC     P 4444   5.501   3.289  11.165 -0.2581 -0.1096  0.0095
   59SAPC   O13 4445   5.642   3.272  11.197  0.4911  0.0300  0.1117
   59SAPC   O14 4446   5.406   3.211  11.243  0.8671 -0.2784 -0.1559
   59SAPC   O12 4447   5.465   3.437  11.179 -0.5781 -0.4709  0.0015
   59SAPC   O11 4448   5.476   3.267  11.015 -0.3859 -0.3815  0.2469
   59SAPC    C1 4449   5.537   3.350  10.917 -0.1886  0.6073 -0.8432
   59SAPC    HA 4450   5.521   3.459  10.930  0.9627  1.0212 -2.6409
   59SAPC    HB 4451   5.648   3.338  10.914 -0.0433 -0.4260  4.4824
   59SAPC    C2 4452   5.464   3.322  10.786  0.0266  0.1242 -0.5365
   59SAPC    HS 4453   5.460   3.212  10.769  0.1814 -0.5076  3.0996
   59SAPC   O21 4454   5.533   3.388  10.672  0.2912  0.6998 -0.0864
   59SAPC   C21 4455   5.643   3.338  10.632  0.1832  0.2432  0.5863
   59SAPC   O22 4456   5.681   3.228  10.665  0.4342 -0.0259 -0.2774
   59SAPC   C22 4457   5.717   3.438  10.538 -0.4027 -1.0417  0.0170
   59SAPC   H2R 4458   5.737   3.533  10.593  0.6825 -2.7029  2.6480
   59SAPC   H2S 4459   5.817   3.391  10.522 -0.0340 -0.9029  1.7734
   59SAPC    C3 4460   5.311   3.366  10.787 -0.8168  0.7021  0.0029
   59SAPC    HX 4461   5.311   3.475  10.766 -3.1835  0.6324 -0.5541
   59SAPC    HY 4462   5.275   3.331  10.886 -0.2690  0.1797  0.0183
   59SAPC   O31 4463   5.249   3.288  10.682  0.2373  0.0916  0.3220
   59SAPC   C31 4464   5.132   3.343  10.643  0.0556 -1.0463 -0.2828
   59SAPC   O32 4465   5.074   3.436  10.700 -0.3382  0.5764  0.1306
   59SAPC   C32 4466   5.074   3.253  10.540 -0.0989 -0.0844  0.4455
   59SAPC   H2X 4467   4.987   3.207  10.591  0.2164 -1.6699 -0.4271
   59SAPC   H2Y 4468   5.132   3.164  10.508 -1.0891 -0.6285  0.1518
   59SAPC   C23 4469   5.627   3.464  10.412  0.8591  0.0719  0.2509
   59SAPC   H3R 4470   5.673   3.547  10.355  1.7990 -0.5316  0.1135
   59SAPC   H3S 4471   5.525   3.494  10.444  0.8087  0.8923 -0.6733
   59SAPC   C24 4472   5.623   3.348  10.309  0.0805  0.4349  0.3297
   59SAPC   H4R 4473   5.555   3.383  10.228 -1.6865 -0.5527  1.3590
   59SAPC   H4S 4474   5.575   3.259  10.355  0.1685 -0.6488 -1.6135
   59SAPC   C25 4475   5.763   3.315  10.262 -0.0819  0.7282 -0.7164
   59SAPC   H5R 4476   5.824   3.285  10.348 -0.5401  1.4504 -0.1312
   59SAPC   C26 4477   5.815   3.318  10.142  0.2520 -0.0180 -0.0275
   59SAPC   H6R 4478   5.916   3.280  10.120  0.9112  1.2647  0.7135
   59SAPC   C27 4479   5.739   3.379  10.023 -0.0544 -0.5691  0.4149
   59SAPC   H7R 4480   5.701   3.479  10.054  1.6314  0.2801 -0.1681
   59SAPC   H7S 4481   5.659   3.308   9.993 -0.2593  0.0566 -0.5582
   59SAPC   C28 4482   5.833   3.402   9.900  0.1149  1.1015 -0.8591
   59SAPC   H8R 4483   5.932   3.445   9.923  1.1334 -2.2084  1.3405
   59SAPC   C29 4484   5.787   3.399   9.774 -0.4289  0.0114 -0.1819
   59SAPC   H9R 4485   5.860   3.402   9.692 -0.4242 -0.9260 -0.2167
   59SAPC  C210 4486   5.645   3.375   9.723  0.3530 -0.0425 -0.0689
   59SAPC  H10R 4487   5.611   3.470   9.676 -1.4442 -0.8334 -0.3740
   59SAPC  H10S 4488   5.574   3.360   9.807  1.6644 -0.6310  0.9508
   59SAPC  C211 4489   5.667   3.262   9.625 -0.4720  1.3211 -0.0627
   59SAPC  H11R 4490   5.679   3.161   9.668 -0.1021  0.8494 -1.2679
   59SAPC  C212 4491   5.672   3.270   9.487  0.0039 -0.4845  0.0539
   59SAPC  H12R 4492   5.697   3.182   9.426 -1.5046 -1.3893  0.7218
   59SAPC  C213 4493   5.668   3.397   9.406 -0.1917 -0.5879 -0.0887
   59SAPC  H13R 4494   5.632   3.480   9.471  0.4627 -0.5502  0.2322
   59SAPC  H13S 4495   5.584   3.381   9.336 -0.9347  1.6788  0.2273
   59SAPC  C214 4496   5.803   3.429   9.341 -0.2500 -0.2320 -0.2318
   59SAPC  H14R 4497   5.870   3.479   9.412  0.1678  0.5274 -1.1542
   59SAPC  C215 4498   5.822   3.419   9.209  0.1622 -0.3831  0.0527
   59SAPC  H15R 4499   5.922   3.443   9.172  0.5381  0.3163  1.5053
   59SAPC  C216 4500   5.730   3.363   9.102  1.8455 -0.1778  0.6390
   59SAPC  H16R 4501   5.667   3.278   9.136  0.1302  1.1123  0.7432
   59SAPC  H16S 4502   5.794   3.318   9.023  1.0005  0.4680 -0.4298
   59SAPC  C217 4503   5.639   3.468   9.042 -0.0537 -0.1180 -0.3067
   59SAPC  H17R 4504   5.564   3.502   9.117  2.3580  3.7824  0.4529
   59SAPC  H17S 4505   5.572   3.423   8.965 -0.8258  0.5125 -0.0025
   59SAPC  C218 4506   5.705   3.590   8.977 -0.1777  0.3408  0.0071
   59SAPC  H18R 4507   5.779   3.556   8.902  0.0913 -1.1546  0.9444
   59SAPC  H18S 4508   5.754   3.658   9.050  1.8981 -1.4990  0.3383
   59SAPC  C219 4509   5.605   3.671   8.902  0.5268 -0.0899 -0.4255
   59SAPC  H19R 4510   5.536   3.724   8.970 -2.1742 -1.0818 -2.3033
   59SAPC  H19S 4511   5.540   3.604   8.842 -0.6279  1.3377 -0.7981
   59SAPC  C220 4512   5.665   3.778   8.814  0.6188  0.2782  0.2085
   59SAPC  H20R 4513   5.584   3.842   8.774 -0.8818 -1.8272 -0.2055
   59SAPC  H20S 4514   5.721   3.727   8.733  1.7485  2.9189 -0.7259
   59SAPC  H20T 4515   5.735   3.849   8.863  0.7293 -0.2422  0.8138
   59SAPC   C33 4516   5.034   3.323  10.406 -0.5578  0.5159  0.3096
   59SAPC   H3X 4517   5.119   3.385  10.370 -1.1697 -0.5547 -3.0927
   59SAPC   H3Y 4518   4.944   3.389  10.412 -0.9512 -0.0108  0.2521
   59SAPC   C34 4519   5.000   3.218  10.297 -0.8358 -0.3842  0.0021
   59SAPC   H4X 4520   4.924   3.145  10.334  1.1213 -2.0547  0.7931
   59SAPC   H4Y 4521   5.092   3.157  10.286 -0.0232  1.0043 -1.0761
   59SAPC   C35 4522   4.957   3.288  10.166 -0.2841 -0.1254  0.4788
   59SAPC   H5X 4523   5.045   3.354  10.150 -0.6266  0.3807  0.6667
   59SAPC   H5Y 4524   4.864   3.347  10.174 -0.8964 -1.0989  0.5443
   59SAPC   C36 4525   4.954   3.187  10.054  0.7234  0.2939  0.6830
   59SAPC   H6X 4526   4.852   3.145  10.053  1.2319 -1.0649  2.6678
   59SAPC   H6Y 4527   5.026   3.103  10.069  0.4269 -0.4332 -1.7237
   59SAPC   C37 4528   4.962   3.244   9.907  0.8411 -0.3129  0.2803
   59SAPC   H7X 4529   5.069   3.259   9.882 -0.1987  0.3538 -4.1216
   59SAPC   H7Y 4530   4.920   3.347   9.902  2.5400  0.3200 -1.3754
   59SAPC   C38 4531   4.897   3.157   9.794  0.3637 -0.4784 -0.3299
   59SAPC   H8X 4532   4.789   3.158   9.820  0.4576 -0.9169  0.0904
   59SAPC   H8Y 4533   4.941   3.055   9.802 -0.6364 -1.0509 -1.9895
   59SAPC   C39 4534   4.931   3.206   9.652 -0.0919  0.4204 -0.2671
   59SAPC   H9X 4535   5.037   3.186   9.629 -1.2008 -3.9694 -1.9456
   59SAPC   H9Y 4536   4.906   3.314   9.645  0.9044  0.5351 -2.3345
   59SAPC  C310 4537   4.852   3.132   9.548  0.1131 -1.1094  0.1283
   59SAPC  H10X 4538   4.744   3.145   9.572 -0.1963 -2.1090 -0.7020
   59SAPC  H10Y 4539   4.867   3.022   9.549  2.1624 -0.8378  0.7476
   59SAPC  C311 4540   4.871   3.193   9.408 -0.9759 -0.6400 -0.2145
   59SAPC  H11X 4541   4.979   3.190   9.382 -0.8793 -1.7588  0.2393
   59SAPC  H11Y 4542   4.826   3.294   9.403  0.7303  0.2355  1.6476
   59SAPC  C312 4543   4.791   3.121   9.298  0.0218 -0.6189 -0.1735
   59SAPC  H12X 4544   4.683   3.114   9.319  0.3079  1.1147  1.9635
   59SAPC  H12Y 4545   4.834   3.019   9.285 -0.1085 -0.5288 -1.3569
   59SAPC  C313 4546   4.812   3.194   9.159  0.1261  0.6012 -0.3661
   59SAPC  H13X 4547   4.916   3.180   9.125  0.3212  2.8372 -0.7516
   59SAPC  H13Y 4548   4.794   3.304   9.162  1.8821  0.9259 -1.5382
   59SAPC  C314 4549   4.718   3.125   9.054 -0.3423 -0.0356  0.7389
   59SAPC  H14X 4550   4.611   3.141   9.082 -0.1100 -0.7386  2.0588
   59SAPC  H14Y 4551   4.749   3.018   9.057  3.7841  1.1132  2.5308
   59SAPC  C315 4552   4.731   3.177   8.900  0.0474 -0.0494  0.2347
   59SAPC  H15X 4553   4.670   3.119   8.827 -1.2736 -0.7147  1.8301
   59SAPC  H15Y 4554   4.836   3.180   8.866 -0.6377 -1.8059 -2.1712
   59SAPC  C316 4555   4.689   3.325   8.886 -0.5259 -0.4667  0.5962
   59SAPC  H16X 4556   4.748   3.398   8.946 -2.7394  1.9313 -0.0571
   59SAPC  H16Y 4557   4.583   3.329   8.918 -0.5437  2.4282  0.3469
   59SAPC  C317 4558   4.707   3.368   8.741  0.6315 -0.2855 -0.2594
   59SAPC  H17X 4559   4.650   3.289   8.688  1.8578 -1.5545  0.2528
   59SAPC  H17Y 4560   4.813   3.357   8.711  0.0960 -5.0432 -0.8743
   59SAPC  C318 4561   4.655   3.507   8.712 -0.2648 -0.2722  0.0825
   59SAPC  H18X 4562   4.687   3.543   8.612 -0.4251 -1.6541 -0.4778
   59SAPC  H18Y 4563   4.697   3.583   8.782  0.2893 -2.0858  1.7786
   59SAPC  H18Z 4564   4.544   3.501   8.709 -0.2067 -0.7032 -3.2740
   60SAPC     N 4565   6.709   1.453  11.031  0.0464 -0.0785 -0.1968
   60SAPC   C12 4566   6.642   1.388  10.914 -0.3770  0.3184 -0.9648
   60SAPC  H12A 4567   6.543   1.351  10.934  0.5202 -1.1373  0.9160
   60SAPC  H12B 4568   6.697   1.299  10.890  1.3421  1.3600 -0.9714
   60SAPC   C13 4569   6.853   1.457  11.011  0.2575 -0.5298 -0.4645
   60SAPC  H13A 4570   6.874   1.509  10.918  4.2061  0.8608  1.1090
   60SAPC  H13B 4571   6.919   1.502  11.084  0.6944 -1.8949  0.0005
   60SAPC  H13C 4572   6.899   1.360  11.013 -1.0423 -1.1275  1.7641
   60SAPC   C14 4573   6.662   1.599  11.052  0.1857  0.2535 -0.0442
   60SAPC  H14A 4574   6.676   1.651  10.958  1.9364 -0.3835 -0.1694
   60SAPC  H14B 4575   6.556   1.604  11.068  0.0287 -1.0424 -0.5932
   60SAPC  H14C 4576   6.712   1.649  11.133 -0.7750 -2.1239  2.0637
   60SAPC   C15 4577   6.669   1.377  11.151  0.0998  0.4914  0.1279
   60SAPC  H15A 4578   6.637   1.276  11.132 -1.3258  0.5090  2.3100
   60SAPC  H15B 4579   6.753   1.363  11.217  1.7511 -2.5423 -2.4560
   60SAPC  H15C 4580   6.582   1.407  11.208  1.3589  0.1609  2.2835
   60SAPC   C11 4581   6.635   1.473  10.781  0.6600  0.1700  0.4274
   60SAPC  H11A 4582   6.566   1.560  10.790  0.2510 -0.1565  0.4870
   60SAPC  H11B 4583   6.588   1.412  10.701  0.1763 -0.0844  0.8980
   60SAPC     P 4584   6.822   1.479  10.594  0.1544  0.0885 -0.2630
   60SAPC   O13 4585   6.945   1.556  10.566  0.2352  0.1920  0.4485
   60SAPC   O14 4586   6.841   1.331  10.617 -0.1483 -0.0860  0.4861
   60SAPC   O12 4587   6.759   1.530  10.731 -0.6444 -0.0439 -0.2556
   60SAPC   O11 4588   6.713   1.507  10.487  0.0066 -0.3744 -0.1155
   60SAPC    C1 4589   6.638   1.621  10.478 -0.3845 -0.1862  0.1302
   60SAPC    HA 4590   6.535   1.600  10.514 -0.2805 -0.6353  0.1645
   60SAPC    HB 4591   6.692   1.702  10.532  1.1046 -0.6126 -0.7001
   60SAPC    C2 4592   6.629   1.677  10.333 -0.2921 -0.3045 -0.3995
   60SAPC    HS 4593   6.602   1.785  10.337 -1.9061 -0.5110 -3.8304
   60SAPC   O21 4594   6.536   1.606  10.251 -0.4013 -0.4101 -0.4374
   60SAPC   C21 4595   6.418   1.663  10.212 -0.0200 -0.3442  0.2442
   60SAPC   O22 4596   6.376   1.772  10.236  0.2596  0.0843 -0.7773
   60SAPC   C22 4597   6.338   1.556  10.131  0.1094 -0.2990 -0.3573
   60SAPC   H2R 4598   6.317   1.467  10.194  2.7950  0.6595  1.9820
   60SAPC   H2S 4599   6.244   1.606  10.099 -0.3935 -0.7161  0.4418
   60SAPC    C3 4600   6.771   1.691  10.267 -0.6022  0.3983  0.4184
   60SAPC    HX 4601   6.836   1.601  10.276 -0.2001  0.5466 -0.7965
   60SAPC    HY 4602   6.827   1.757  10.337  3.7603 -1.2395 -1.3369
   60SAPC   O31 4603   6.777   1.739  10.129  0.2038 -0.1912 -0.2733
   60SAPC   C31 4604   6.893   1.806  10.097 -0.0487  0.1119  0.3773
   60SAPC   O32 4605   6.979   1.829  10.179  0.1673 -0.0616 -0.5365
   60SAPC   C32 4606   6.895   1.815   9.949  0.3947  0.1853 -0.4570
   60SAPC   H2X 4607   6.792   1.821   9.906  1.3145  3.4953 -2.3928
   60SAPC   H2Y 4608   6.924   1.710   9.923  2.8040  0.9397 -0.8973
   60SAPC   C23 4609   6.422   1.525  10.001  0.4806  0.4876 -0.1571
   60SAPC   H3R 4610   6.388   1.441   9.938  3.1912 -0.5061 -0.3460
   60SAPC   H3S 4611   6.528   1.501  10.024  0.3577 -0.5574 -0.6840
   60SAPC   C24 4612   6.413   1.654   9.910  0.0510 -0.2249 -0.4807
   60SAPC   H4R 4613   6.464   1.739   9.959 -2.0537  0.4572  0.5828
   60SAPC   H4S 4614   6.306   1.682   9.900  0.7436  2.5320 -0.5282
   60SAPC   C25 4615   6.467   1.633   9.773  0.1543 -0.4272 -0.0383
   60SAPC   H5R 4616   6.565   1.582   9.777 -0.2018 -1.1476 -0.4485
   60SAPC   C26 4617   6.416   1.665   9.656 -0.3041  0.2061 -0.0563
   60SAPC   H6R 4618   6.468   1.634   9.564 -1.5335 -1.1558 -0.3186
   60SAPC   C27 4619   6.282   1.723   9.625 -0.8468 -0.6146 -0.0016
   60SAPC   H7R 4620   6.298   1.815   9.564 -0.3530 -1.5879 -1.3629
   60SAPC   H7S 4621   6.222   1.755   9.713  0.9415 -1.5198  1.5781
   60SAPC   C28 4622   6.211   1.617   9.543 -0.9846 -0.5242  0.1964
   60SAPC   H8R 4623   6.178   1.530   9.601  2.4246 -1.3693  0.9806
   60SAPC   C29 4624   6.170   1.629   9.414  0.2184  0.5422  0.0792
   60SAPC   H9R 4625   6.121   1.540   9.372 -0.6198  0.1810  1.8004
   60SAPC  C210 4626   6.213   1.737   9.316  0.5172 -0.1151  0.1341
   60SAPC  H10R 4627   6.279   1.813   9.364 -0.8924  0.5975  0.9799
   60SAPC  H10S 4628   6.124   1.786   9.271  1.2555 -0.3338 -1.5763
   60SAPC  C211 4629   6.293   1.677   9.204 -0.4187 -0.3121  0.2502
   60SAPC  H11R 4630   6.398   1.651   9.226 -0.1867  1.4118  1.3103
   60SAPC  C212 4631   6.249   1.655   9.077 -0.3107 -0.7292  0.0180
   60SAPC  H12R 4632   6.326   1.619   9.007  1.0738  1.7043  0.2151
   60SAPC  C213 4633   6.108   1.679   9.019  0.2095 -0.1197 -0.6986
   60SAPC  H13R 4634   6.024   1.662   9.090  0.8689 -0.9306 -0.0846
   60SAPC  H13S 4635   6.087   1.598   8.946 -0.8177 -1.5988  1.1876
   60SAPC  C214 4636   6.087   1.815   8.961  0.2852  0.5007  0.7343
   60SAPC  H14R 4637   6.064   1.888   9.040 -2.8468 -1.2874  1.5309
   60SAPC  C215 4638   6.076   1.852   8.832  0.4708  0.5367 -0.3354
   60SAPC  H15R 4639   6.058   1.957   8.806 -0.2570 -0.2879 -3.5199
   60SAPC  C216 4640   6.090   1.770   8.704 -0.4601 -0.4587  0.0827
   60SAPC  H16R 4641   6.112   1.664   8.731  1.0737  0.2872  1.8628
   60SAPC  H16S 4642   6.176   1.806   8.644  0.1429  2.3336  2.5140
   60SAPC  C217 4643   5.963   1.776   8.606 -0.2984  0.6367 -0.1890
   60SAPC  H17R 4644   5.951   1.886   8.592 -1.4545  0.6083  0.4757
   60SAPC  H17S 4645   5.874   1.740   8.662  0.8299 -0.6388  0.7858
   60SAPC  C218 4646   5.989   1.696   8.482 -0.1256  0.4491  0.1921
   60SAPC  H18R 4647   6.093   1.721   8.453 -0.2569  0.6058 -0.1499
   60SAPC  H18S 4648   5.913   1.723   8.406  1.1148  2.7182 -0.3005
   60SAPC  C219 4649   6.005   1.541   8.497 -0.0074 -0.0283 -0.3242
   60SAPC  H19R 4650   6.030   1.517   8.603 -0.4852 -0.3713 -0.2869
   60SAPC  H19S 4651   6.076   1.488   8.430  0.7077  0.0106  0.3878
   60SAPC  C220 4652   5.869   1.476   8.463 -0.5134 -0.1754 -0.2288
   60SAPC  H20R 4653   5.789   1.525   8.522 -1.0862 -0.3013 -0.8883
   60SAPC  H20S 4654   5.864   1.370   8.496  0.5575  0.0120  0.5738
   60SAPC  H20T 4655   5.842   1.482   8.356 -2.1070  0.2637  0.1827
   60SAPC   C33 4656   6.988   1.929   9.917  0.5844 -0.4229  0.2719
   60SAPC   H3X 4657   7.089   1.902   9.954  1.0581 -0.5392 -1.0784
   60SAPC   H3Y 4658   6.957   2.027   9.960 -0.4594 -0.9571  0.7457
   60SAPC   C34 4659   7.007   1.959   9.763  1.5412 -0.7335 -0.2331
   60SAPC   H4X 4660   7.067   2.052   9.753  0.8654 -0.2850 -0.1013
   60SAPC   H4Y 4661   6.913   1.960   9.704 -0.2286  0.5122  2.5235
   60SAPC   C35 4662   7.092   1.843   9.704 -0.2063  0.2915  0.0292
   60SAPC   H5X 4663   7.036   1.748   9.692 -0.8858  0.6449  0.3372
   60SAPC   H5Y 4664   7.172   1.825   9.779 -2.5451 -2.7544  1.9374
   60SAPC   C36 4665   7.170   1.888   9.576  0.4746 -0.3934  0.6801
   60SAPC   H6X 4666   7.236   1.801   9.552 -0.8297 -1.5690  1.3041
   60SAPC   H6Y 4667   7.242   1.968   9.602  1.8876 -1.4668  0.1878
   60SAPC   C37 4668   7.082   1.935   9.460  0.9414 -0.5292 -1.1409
   60SAPC   H7X 4669   7.037   2.032   9.490  1.9984  0.2522 -2.0418
   60SAPC   H7Y 4670   6.995   1.867   9.457  0.2822 -0.1388  4.0194
   60SAPC   C38 4671   7.146   1.933   9.323 -0.9916  0.1432 -0.6378
   60SAPC   H8X 4672   7.167   1.825   9.304 -0.4154  0.5165 -2.1938
   60SAPC   H8Y 4673   7.241   1.987   9.304  0.5613 -2.1542  0.4076
   60SAPC   C39 4674   7.043   1.985   9.223  0.6491  0.2853 -0.2055
   60SAPC   H9X 4675   7.015   2.092   9.235 -1.1924 -0.3295  1.3691
   60SAPC   H9Y 4676   6.950   1.926   9.243 -0.4051  1.8252 -0.4722
   60SAPC  C310 4677   7.089   1.954   9.080 -0.1863 -0.0090  0.5007
   60SAPC  H10X 4678   7.118   1.847   9.071  0.3818  0.3311 -2.0783
   60SAPC  H10Y 4679   7.186   2.004   9.060  0.3131 -1.5730 -1.0485
   60SAPC  C311 4680   6.987   1.994   8.966 -0.3146  0.0071  0.2715
   60SAPC  H11X 4681   7.007   2.101   8.942  1.2222 -0.6095 -1.3345
   60SAPC  H11Y 4682   6.885   1.980   9.008 -0.5263 -0.8638 -0.5124
   60SAPC  C312 4683   7.008   1.899   8.854 -0.1931 -0.4567 -0.6420
   60SAPC  H12X 4684   7.012   1.791   8.881 -0.1805 -0.9740 -2.6587
   60SAPC  H12Y 4685   7.112   1.907   8.817  0.3431 -2.7291  0.2917
   60SAPC  C313 4686   6.913   1.895   8.733  0.6321  0.4677 -1.1594
   60SAPC  H13X 4687   6.821   1.846   8.771 -0.2858  4.0666  1.5395
   60SAPC  H13Y 4688   6.959   1.835   8.652  1.0006  0.8048 -1.1995
   60SAPC  C314 4689   6.882   2.034   8.676 -0.5299 -0.5999 -0.5065
   60SAPC  H14X 4690   6.829   2.089   8.757  1.7213  2.2425 -0.8848
   60SAPC  H14Y 4691   6.806   2.018   8.597  0.8028  1.0900 -2.1744
   60SAPC  C315 4692   7.001   2.105   8.621 -0.2435 -0.2132 -0.0238
   60SAPC  H15X 4693   7.086   2.048   8.576  1.5238  2.4071 -0.1044
   60SAPC  H15Y 4694   7.047   2.166   8.701 -0.9902  1.8791 -1.1570
   60SAPC  C316 4695   6.953   2.200   8.511  0.3814  0.4052  0.4136
   60SAPC  H16X 4696   6.872   2.268   8.546  0.5861  1.2410 -0.6719
   60SAPC  H16Y 4697   6.920   2.139   8.424 -0.3101  0.5746  0.5575
   60SAPC  C317 4698   7.063   2.305   8.463 -0.1074  0.9974 -0.6301
   60SAPC  H17X 4699   7.115   2.350   8.550  1.8634 -2.4505  0.0635
   60SAPC  H17Y 4700   7.011   2.384   8.404 -0.9202 -0.6797 -2.2179
   60SAPC  C318 4701   7.161   2.240   8.367  0.6981  0.2433 -0.0543
   60SAPC  H18X 4702   7.132   2.279   8.267  1.2661 -0.6704 -0.5833
   60SAPC  H18Y 4703   7.151   2.130   8.365 -0.6707  0.2942  2.0648
   60SAPC  H18Z 4704   7.265   2.274   8.388  0.5178  0.8456 -0.1156
   61SAPC     N 4705   1.276   0.689  11.137 -0.2785  0.5098  0.0673
   61SAPC   C12 4706   1.400   0.755  11.089 -0.6632 -0.1036  0.9553
   61SAPC  H12A 4707   1.435   0.831  11.156  2.6561  1.4582 -2.4039
   61SAPC  H12B 4708   1.379   0.810  10.998  2.5088 -0.6161 -0.1322
   61SAPC   C13 4709   1.182   0.796  11.187 -0.0919 -0.4654 -0.0516
   61SAPC  H13A 4710   1.164   0.864  11.105 -0.2386 -0.6229 -0.1508
   61SAPC  H13B 4711   1.088   0.755  11.221 -1.2602 -0.3524 -2.9701
   61SAPC  H13C 4712   1.226   0.854  11.267 -0.2305  0.4492 -0.6234
   61SAPC   C14 4713   1.208   0.606  11.031 -0.1115  0.6682  0.3219
   61SAPC  H14A 4714   1.286   0.560  10.971  0.1832 -1.5738  2.4014
   61SAPC  H14B 4715   1.142   0.538  11.081 -1.8255  0.7018 -1.8152
   61SAPC  H14C 4716   1.144   0.662  10.964  0.6317 -0.5534 -1.4730
   61SAPC   C15 4717   1.300   0.593  11.253 -0.4280 -0.3512  0.7913
   61SAPC  H15A 4718   1.361   0.509  11.224  0.6050  0.6135  0.1611
   61SAPC  H15B 4719   1.370   0.644  11.317  1.3419  0.3137 -1.6332
   61SAPC  H15C 4720   1.211   0.560  11.306  1.1217 -0.9648  3.0780
   61SAPC   C11 4721   1.520   0.659  11.049 -0.1760  0.0089  0.1498
   61SAPC  H11A 4722   1.557   0.603  11.138 -0.6443  0.2415  0.4921
   61SAPC  H11B 4723   1.602   0.722  11.010 -0.2628 -0.3223 -0.5646
   61SAPC     P 4724   1.559   0.476  10.853  0.1621 -0.2867  0.2247
   61SAPC   O13 4725   1.704   0.479  10.886 -0.3409 -0.0796  0.1958
   61SAPC   O14 4726   1.495   0.347  10.858  0.3929 -0.3578  0.4564
   61SAPC   O12 4727   1.481   0.564  10.944  0.1893 -0.0439 -0.1281
   61SAPC   O11 4728   1.531   0.543  10.714  0.1937 -0.7726  0.2488
   61SAPC    C1 4729   1.559   0.679  10.688 -0.1840 -0.6928  0.1239
   61SAPC    HA 4730   1.615   0.740  10.762  0.5171 -1.9739  0.6725
   61SAPC    HB 4731   1.629   0.677  10.601  0.5056  3.4581  0.5136
   61SAPC    C2 4732   1.429   0.755  10.654  0.9281  0.0563  0.3492
   61SAPC    HS 4733   1.363   0.721  10.736  1.6107 -2.9712 -0.2744
   61SAPC   O21 4734   1.370   0.722  10.521 -0.0671 -0.1878  0.4312
   61SAPC   C21 4735   1.237   0.703  10.513 -0.4159  0.3046  0.0008
   61SAPC   O22 4736   1.164   0.723  10.605 -0.7797 -0.1540 -0.0608
   61SAPC   C22 4737   1.206   0.637  10.375 -0.1780  0.0464 -0.1589
   61SAPC   H2R 4738   1.245   0.709  10.300  2.9049 -2.6985 -1.2898
   61SAPC   H2S 4739   1.269   0.546  10.372  0.8279  0.7458 -0.3476
   61SAPC    C3 4740   1.437   0.907  10.655  0.1925 -0.5926 -0.1556
   61SAPC    HX 4741   1.523   0.931  10.590 -1.5982  2.5891 -1.4303
   61SAPC    HY 4742   1.456   0.936  10.761 -2.3971 -1.6933  0.6802
   61SAPC   O31 4743   1.320   0.975  10.609 -1.0378  0.2668  0.4914
   61SAPC   C31 4744   1.340   1.106  10.581 -0.2622  0.1928  0.2196
   61SAPC   O32 4745   1.440   1.162  10.617  0.0115  0.9595  0.4496
   61SAPC   C32 4746   1.218   1.167  10.515 -0.7779  0.2142  0.1161
   61SAPC   H2X 4747   1.206   1.274  10.541 -0.2150  0.2062  0.4125
   61SAPC   H2Y 4748   1.126   1.115  10.550 -0.5018 -0.8411 -0.6736
   61SAPC   C23 4749   1.056   0.619  10.339 -0.0309  0.1422  0.3714
   61SAPC   H3R 4750   1.011   0.720  10.327  0.5520  0.2635 -0.8236
   61SAPC   H3S 4751   0.997   0.562  10.414 -0.9764 -1.3841 -1.5007
   61SAPC   C24 4752   1.037   0.543  10.205 -0.4443 -0.3939  0.3491
   61SAPC   H4R 4753   1.088   0.448  10.228  1.5898  1.2428  2.9127
   61SAPC   H4S 4754   1.081   0.607  10.125 -2.3269  0.4774 -0.0302
   61SAPC   C25 4755   0.885   0.523  10.180  0.4791 -0.7442 -0.1728
   61SAPC   H5R 4756   0.829   0.461  10.251  1.1209 -0.6357  0.4328
   61SAPC   C26 4757   0.828   0.575  10.072  0.1296 -0.4250 -0.1231
   61SAPC   H6R 4758   0.719   0.572  10.065 -0.0380  4.4790 -1.4816
   61SAPC   C27 4759   0.900   0.663   9.966  0.0730  0.1072  0.5600
   61SAPC   H7R 4760   0.976   0.733  10.007 -1.4342  1.9814  0.2144
   61SAPC   H7S 4761   0.831   0.735   9.916  0.0725  0.1192  0.5771
   61SAPC   C28 4762   0.968   0.595   9.855  0.4334 -0.3020  0.0511
   61SAPC   H8R 4763   1.073   0.571   9.874  0.0275 -0.1420  2.6538
   61SAPC   C29 4764   0.912   0.529   9.747 -0.3743 -0.6882 -0.8352
   61SAPC   H9R 4765   0.981   0.491   9.670  1.0719  0.1135  0.0457
   61SAPC  C210 4766   0.767   0.526   9.714  0.0754  0.5713 -0.6479
   61SAPC  H10R 4767   0.746   0.604   9.638 -2.6523  1.6500  1.1326
   61SAPC  H10S 4768   0.696   0.533   9.799 -1.4832  0.9973 -1.9657
   61SAPC  C211 4769   0.735   0.393   9.639 -0.4197 -0.0280  0.6149
   61SAPC  H11R 4770   0.688   0.315   9.701  1.3820 -0.4448  1.4580
   61SAPC  C212 4771   0.749   0.363   9.509  0.3040 -0.0576  0.0324
   61SAPC  H12R 4772   0.721   0.260   9.482  0.8334  0.3283 -2.0895
   61SAPC  C213 4773   0.808   0.446   9.402  0.2205  0.1990 -0.8794
   61SAPC  H13R 4774   0.918   0.440   9.411  0.2600 -0.3533 -1.6925
   61SAPC  H13S 4775   0.774   0.552   9.409  1.6503  0.7552 -2.1439
   61SAPC  C214 4776   0.788   0.396   9.260  0.1039  0.1382 -0.4299
   61SAPC  H14R 4777   0.692   0.435   9.221 -0.4514  2.6942  3.2514
   61SAPC  C215 4778   0.864   0.309   9.193 -0.2298 -0.4889 -0.5803
   61SAPC  H15R 4779   0.846   0.290   9.086  0.1330  0.1692 -0.7597
   61SAPC  C216 4780   0.992   0.252   9.242 -0.5579 -0.5498 -0.4919
   61SAPC  H16R 4781   0.995   0.142   9.249  0.4837 -0.5753 -1.2645
   61SAPC  H16S 4782   1.013   0.277   9.349 -0.1006 -0.8672 -0.5054
   61SAPC  C217 4783   1.099   0.300   9.145 -0.7720  0.3750  0.4322
   61SAPC  H17R 4784   1.062   0.284   9.041  1.6605  1.7148 -0.6798
   61SAPC  H17S 4785   1.192   0.240   9.159 -0.0602  0.3515 -3.7347
   61SAPC  C218 4786   1.148   0.444   9.175  0.6072  0.6107 -0.1248
   61SAPC  H18R 4787   1.250   0.443   9.132  0.6367  0.4805 -0.0525
   61SAPC  H18S 4788   1.166   0.472   9.281  0.7799 -0.7519  0.2082
   61SAPC  C219 4789   1.066   0.555   9.101  0.6660 -0.7513 -0.0636
   61SAPC  H19R 4790   0.957   0.548   9.123  0.6518 -0.4319 -0.0242
   61SAPC  H19S 4791   1.086   0.542   8.993  1.3390  2.2667 -0.3443
   61SAPC  C220 4792   1.114   0.686   9.164 -0.7189 -0.7758  0.4451
   61SAPC  H20R 4793   1.117   0.674   9.275  0.1088 -0.6489  0.4430
   61SAPC  H20S 4794   1.056   0.780   9.148 -0.6499 -0.6872  0.7108
   61SAPC  H20T 4795   1.222   0.701   9.139 -1.1343 -0.9095 -1.4713
   61SAPC   C33 4796   1.231   1.170  10.359 -0.1910 -0.3762  0.0851
   61SAPC   H3X 4797   1.330   1.220  10.353  0.6136 -1.8896  0.4900
   61SAPC   H3Y 4798   1.153   1.237  10.317 -2.2405 -1.5887  1.8360
   61SAPC   C34 4799   1.224   1.024  10.291 -0.3007 -0.8989  0.0894
   61SAPC   H4X 4800   1.147   0.961  10.341 -1.0613  1.3556  1.8775
   61SAPC   H4Y 4801   1.315   0.964  10.311  0.1148 -0.4976 -0.5873
   61SAPC   C35 4802   1.204   1.034  10.137  0.1243  0.3033  0.1543
   61SAPC   H5X 4803   1.285   1.098  10.096  1.0386 -0.0987  1.2867
   61SAPC   H5Y 4804   1.109   1.091  10.128 -0.5675 -0.4741  2.0921
   61SAPC   C36 4805   1.203   0.897  10.065 -0.1468 -0.1879 -0.1751
   61SAPC   H6X 4806   1.112   0.847  10.104 -2.0278  1.3684 -2.4114
   61SAPC   H6Y 4807   1.292   0.842  10.101 -0.8121 -1.1176  0.0565
   61SAPC   C37 4808   1.194   0.916   9.908  0.4661 -0.1492 -0.2278
   61SAPC   H7X 4809   1.192   0.817   9.857  1.9296 -0.5971  0.5530
   61SAPC   H7Y 4810   1.269   0.986   9.865  0.7627  0.5321  1.3868
   61SAPC   C38 4811   1.072   0.995   9.869 -0.0172 -0.6009 -0.0454
   61SAPC   H8X 4812   1.072   1.104   9.891  1.1462 -0.1735 -2.0255
   61SAPC   H8Y 4813   0.986   0.952   9.925 -1.7796  4.2568  1.2429
   61SAPC   C39 4814   1.050   0.996   9.716  0.3847 -0.2011  0.1209
   61SAPC   H9X 4815   0.961   1.061   9.704  0.6264 -0.1790 -1.7304
   61SAPC   H9Y 4816   1.011   0.899   9.678 -3.3275  2.6715 -3.9619
   61SAPC  C310 4817   1.165   1.040   9.628 -0.2210 -0.1951  0.0689
   61SAPC  H10X 4818   1.245   0.963   9.627  0.7924  0.8192 -2.0293
   61SAPC  H10Y 4819   1.219   1.133   9.659  1.6388 -0.8511 -1.0982
   61SAPC  C311 4820   1.124   1.063   9.479 -0.2698 -0.0122  0.6760
   61SAPC  H11X 4821   1.053   1.146   9.455  0.9511  0.6631 -0.6134
   61SAPC  H11Y 4822   1.077   0.970   9.442 -1.4679  0.7276  0.2996
   61SAPC  C312 4823   1.248   1.089   9.378  0.3210  0.3815  0.9227
   61SAPC  H12X 4824   1.327   1.014   9.400  0.5581  0.3572  0.0032
   61SAPC  H12Y 4825   1.273   1.193   9.410 -0.2948  1.0396 -0.7066
   61SAPC  C313 4826   1.202   1.084   9.227 -0.2751 -0.0955  0.3352
   61SAPC  H13X 4827   1.135   1.171   9.209  0.6271  0.1745 -1.8217
   61SAPC  H13Y 4828   1.146   0.992   9.199  0.1226 -0.4042  0.5625
   61SAPC  C314 4829   1.322   1.097   9.139 -0.4081 -0.3734  0.5311
   61SAPC  H14X 4830   1.381   1.009   9.173  0.0516  0.1298  1.0469
   61SAPC  H14Y 4831   1.373   1.188   9.176 -1.0893  0.9187 -1.6038
   61SAPC  C315 4832   1.289   1.105   8.993  0.1002 -0.4479  0.6238
   61SAPC  H15X 4833   1.235   1.014   8.959  0.9246 -1.4658  1.9478
   61SAPC  H15Y 4834   1.390   1.094   8.949  0.5813  0.7300  1.4156
   61SAPC  C316 4835   1.208   1.229   8.941 -0.4976  0.1568  0.2345
   61SAPC  H16X 4836   1.257   1.320   8.980 -0.1336 -0.0952  0.3696
   61SAPC  H16Y 4837   1.109   1.231   8.992  0.3873  0.8203  1.9569
   61SAPC  C317 4838   1.186   1.236   8.790 -0.1561 -0.0362 -0.2944
   61SAPC  H17X 4839   1.281   1.225   8.734  1.1765 -0.3678  1.9655
   61SAPC  H17Y 4840   1.152   1.340   8.773 -1.2353 -0.3563 -0.1191
   61SAPC  C318 4841   1.083   1.134   8.743  0.2788  0.4515  0.1568
   61SAPC  H18X 4842   0.988   1.145   8.799  1.2763  0.0931  1.9512
   61SAPC  H18Y 4843   1.118   1.029   8.747 -1.9360 -0.3295 -0.2086
   61SAPC  H18Z 4844   1.065   1.156   8.635  1.3199 -0.6983 -0.2617
   62SAPC     N 4845   0.642   6.188  11.071  0.0545 -0.1675  0.2586
   62SAPC   C12 4846   0.543   6.270  10.992 -0.5559  0.2950  0.3320
   62SAPC  H12A 4847   0.516   6.354  11.055 -1.6835 -0.4298  0.8407
   62SAPC  H12B 4848   0.450   6.215  10.989 -1.3011  1.4926  1.4642
   62SAPC   C13 4849   0.678   6.065  10.998  0.2002  0.0177 -0.0370
   62SAPC  H13A 4850   0.588   6.005  10.991  1.1935 -1.8699  2.5189
   62SAPC  H13B 4851   0.709   6.093  10.899 -0.1116 -1.9016 -0.7034
   62SAPC  H13C 4852   0.755   6.011  11.050  0.9032  0.2506 -0.8316
   62SAPC   C14 4853   0.768   6.270  11.104 -0.5654  0.3544 -0.7600
   62SAPC  H14A 4854   0.744   6.359  11.161 -0.5888  0.4077 -0.8525
   62SAPC  H14B 4855   0.831   6.210  11.168 -1.4248  1.9704  1.7083
   62SAPC  H14C 4856   0.831   6.296  11.020 -1.3438 -2.1254 -2.1548
   62SAPC   C15 4857   0.576   6.152  11.201  0.6958  0.3555  0.1809
   62SAPC  H15A 4858   0.497   6.083  11.176 -0.8989  1.3714  2.3090
   62SAPC  H15B 4859   0.647   6.107  11.269 -0.0261  1.4742  1.6922
   62SAPC  H15C 4860   0.537   6.236  11.256  0.6555  0.8873 -0.6476
   62SAPC   C11 4861   0.583   6.312  10.846  0.3053  0.3417 -0.0057
   62SAPC  H11A 4862   0.681   6.365  10.852  0.5583 -0.0221 -0.8285
   62SAPC  H11B 4863   0.513   6.392  10.811  0.0848 -0.0892 -0.5619
   62SAPC     P 4864   0.451   6.162  10.680 -0.1126 -0.0884  0.4009
   62SAPC   O13 4865   0.478   6.034  10.612 -0.4667 -0.5338 -0.3036
   62SAPC   O14 4866   0.330   6.172  10.767  0.2600  0.2561 -0.4247
   62SAPC   O12 4867   0.580   6.206  10.751 -0.0413 -0.1617  0.4196
   62SAPC   O11 4868   0.450   6.282  10.571  0.0579 -0.0382  0.5439
   62SAPC    C1 4869   0.321   6.324  10.528  0.0439  0.5724  0.1505
   62SAPC    HA 4870   0.256   6.240  10.496 -0.6530  2.2899 -3.0854
   62SAPC    HB 4871   0.267   6.378  10.609 -0.6050 -0.8818  0.6864
   62SAPC    C2 4872   0.320   6.418  10.409  0.5118 -0.5890 -0.2702
   62SAPC    HS 4873   0.338   6.522  10.445 -2.3761  0.5715 -2.0145
   62SAPC   O21 4874   0.197   6.406  10.335 -0.0989 -0.0448  0.7098
   62SAPC   C21 4875   0.084   6.439  10.389  0.3700  0.4971  0.1855
   62SAPC   O22 4876   0.062   6.443  10.508  0.5425  0.1415 -0.3326
   62SAPC   C22 4877  -0.028   6.449  10.289 -0.0328 -0.0505  0.1708
   62SAPC   H2R 4878  -0.001   6.405  10.191  2.2537  0.6545  0.4480
   62SAPC   H2S 4879  -0.117   6.393  10.326 -0.0088 -0.2512 -0.0787
   62SAPC    C3 4880   0.440   6.394  10.314  0.1060 -0.3784 -0.2789
   62SAPC    HX 4881   0.452   6.285  10.296  0.9296 -0.1618 -1.0597
   62SAPC    HY 4882   0.537   6.419  10.362  0.8328  0.5540 -2.1728
   62SAPC   O31 4883   0.430   6.465  10.190  0.2905 -0.2896  0.2322
   62SAPC   C31 4884   0.380   6.402  10.079 -0.0313 -0.5417  0.4384
   62SAPC   O32 4885   0.357   6.285  10.079 -0.1991 -0.2974 -0.8076
   62SAPC   C32 4886   0.357   6.501   9.963  0.0227  0.1377  0.4919
   62SAPC   H2X 4887   0.436   6.484   9.887 -0.3519 -0.9191  0.3284
   62SAPC   H2Y 4888   0.358   6.607   9.996 -0.1827  0.4953 -0.6286
   62SAPC   C23 4889  -0.062   6.599  10.268 -0.5251 -0.6025 -0.2223
   62SAPC   H3R 4890  -0.070   6.647  10.368  2.6908  1.0620 -0.7061
   62SAPC   H3S 4891  -0.156   6.610  10.212 -0.6350 -0.0949  0.0648
   62SAPC   C24 4892   0.047   6.686  10.195  0.0265 -0.7357 -0.0789
   62SAPC   H4R 4893  -0.003   6.781  10.169  0.7155 -0.0426  1.0672
   62SAPC   H4S 4894   0.077   6.649  10.095 -0.7622 -1.0807 -0.1935
   62SAPC   C25 4895   0.174   6.720  10.267  0.4578  0.4956  0.0725
   62SAPC   H5R 4896   0.247   6.639  10.253 -1.9424 -1.3547 -2.0960
   62SAPC   C26 4897   0.194   6.818  10.359  0.2170 -0.7531 -0.3714
   62SAPC   H6R 4898   0.292   6.832  10.408  0.7256 -1.6081 -1.1371
   62SAPC   C27 4899   0.092   6.916  10.420 -0.2167 -0.1569  1.2344
   62SAPC   H7R 4900   0.072   6.896  10.527 -0.7235  0.4031  1.2510
   62SAPC   H7S 4901  -0.007   6.898  10.374 -0.6481  1.2969  1.5487
   62SAPC   C28 4902   0.136   7.063  10.392  0.5488 -0.1967 -0.3382
   62SAPC   H8R 4903   0.180   7.114  10.479  1.5586 -2.2848  0.4309
   62SAPC   C29 4904   0.136   7.129  10.276 -0.3932  0.6947  0.1937
   62SAPC   H9R 4905   0.156   7.237  10.277 -4.1175  1.4533 -0.1075
   62SAPC  C210 4906   0.088   7.076  10.145  0.6516  0.2397 -0.8445
   62SAPC  H10R 4907   0.057   7.170  10.095  1.5962  0.4509 -1.0457
   62SAPC  H10S 4908   0.005   7.002  10.152 -0.7641  1.7773 -1.3153
   62SAPC  C211 4909   0.190   7.008  10.059  0.0218  0.7538  0.8066
   62SAPC  H11R 4910   0.289   6.993  10.106  0.7584 -1.1786 -1.3075
   62SAPC  C212 4911   0.179   6.956   9.939 -0.0680 -0.7565  0.5675
   62SAPC  H12R 4912   0.271   6.913   9.897 -0.7262 -1.7529  0.1255
   62SAPC  C213 4913   0.055   6.965   9.856 -0.1579 -0.2740 -0.6024
   62SAPC  H13R 4914  -0.036   6.993   9.913 -0.9066 -1.3664 -1.2299
   62SAPC  H13S 4915   0.030   6.860   9.829 -0.3092 -0.3288 -0.2485
   62SAPC  C214 4916   0.094   7.050   9.738  0.7467  0.1308  0.0496
   62SAPC  H14R 4917   0.083   7.158   9.755  1.1757 -0.1759  2.4897
   62SAPC  C215 4918   0.158   7.013   9.624 -0.1354 -0.4083 -0.5023
   62SAPC  H15R 4919   0.189   7.096   9.559  0.6051 -0.3648 -0.0963
   62SAPC  C216 4920   0.195   6.877   9.586 -0.5052 -0.1647 -0.2506
   62SAPC  H16R 4921   0.111   6.806   9.607  0.2040 -0.6476  1.0275
   62SAPC  H16S 4922   0.282   6.844   9.647 -1.5109 -2.2389  0.1281
   62SAPC  C217 4923   0.251   6.857   9.438 -0.5217 -0.6009  0.5492
   62SAPC  H17R 4924   0.167   6.839   9.368 -0.7496  0.1442  0.6253
   62SAPC  H17S 4925   0.312   6.764   9.443 -2.3905 -1.9386 -0.9044
   62SAPC  C218 4926   0.324   6.984   9.394  0.4656  0.2683  0.0570
   62SAPC  H18R 4927   0.382   7.025   9.480 -0.1287 -1.8241  1.5098
   62SAPC  H18S 4928   0.247   7.058   9.365 -0.0063 -0.5255 -0.7131
   62SAPC  C219 4929   0.423   6.964   9.278 -0.4192 -0.7069 -0.7609
   62SAPC  H19R 4930   0.507   6.898   9.309  0.2796  0.8496  0.7146
   62SAPC  H19S 4931   0.472   7.058   9.245  0.1170 -0.3061  1.1446
   62SAPC  C220 4932   0.355   6.901   9.155  0.2810  0.0683  0.5269
   62SAPC  H20R 4933   0.307   6.802   9.169  1.7512 -1.0371 -1.8943
   62SAPC  H20S 4934   0.427   6.868   9.078 -1.7068 -1.4337 -0.7301
   62SAPC  H20T 4935   0.280   6.975   9.118 -0.5560 -1.1060 -0.1537
   62SAPC   C33 4936   0.215   6.470   9.891  0.3138 -0.1850  0.2250
   62SAPC   H3X 4937   0.189   6.557   9.828 -2.0424  0.0237  1.4235
   62SAPC   H3Y 4938   0.131   6.454   9.962 -1.5479 -1.6435 -2.2479
   62SAPC   C34 4939   0.218   6.355   9.796 -0.5218 -0.0433  0.7800
   62SAPC   H4X 4940   0.113   6.331   9.766 -0.1435 -1.5470  0.6524
   62SAPC   H4Y 4941   0.255   6.265   9.848 -0.5186 -0.8415 -0.5854
   62SAPC   C35 4942   0.298   6.389   9.663 -0.4036 -0.4426  0.1704
   62SAPC   H5X 4943   0.405   6.367   9.681 -0.2029 -0.0962 -0.5730
   62SAPC   H5Y 4944   0.285   6.497   9.642  1.0259 -0.3074 -0.0935
   62SAPC   C36 4945   0.247   6.312   9.537 -0.3915 -0.2895  0.3313
   62SAPC   H6X 4946   0.142   6.336   9.509 -0.1947 -2.4888 -2.4536
   62SAPC   H6Y 4947   0.247   6.204   9.564  2.6732 -0.2564  0.6257
   62SAPC   C37 4948   0.323   6.334   9.409  0.2838  0.1213 -0.1751
   62SAPC   H7X 4949   0.275   6.256   9.346  1.9092 -0.5702 -0.5765
   62SAPC   H7Y 4950   0.433   6.321   9.410  0.4080  0.8718  4.0814
   62SAPC   C38 4951   0.298   6.470   9.342  0.6086  0.2346 -0.2431
   62SAPC   H8X 4952   0.341   6.561   9.390 -0.7174  0.0736  1.2861
   62SAPC   H8Y 4953   0.194   6.498   9.316  1.1944  0.8438 -1.9911
   62SAPC   C39 4954   0.380   6.466   9.218  0.8308  0.1807  0.8200
   62SAPC   H9X 4955   0.485   6.444   9.246  0.6913 -0.6547  0.6818
   62SAPC   H9Y 4956   0.376   6.565   9.167  1.7150 -0.4495 -0.5246
   62SAPC  C310 4957   0.359   6.351   9.115  0.4742  0.3842  0.0322
   62SAPC  H10X 4958   0.253   6.357   9.082  0.2002 -0.0992  0.7988
   62SAPC  H10Y 4959   0.382   6.255   9.165 -0.2792  1.0039  1.6160
   62SAPC  C311 4960   0.440   6.365   8.989 -0.2340 -0.0043  0.3772
   62SAPC  H11X 4961   0.419   6.271   8.933 -1.0586  0.0468  0.5959
   62SAPC  H11Y 4962   0.549   6.357   9.009  0.0086  2.5750  0.2109
   62SAPC  C312 4963   0.412   6.490   8.902 -0.0785 -0.7020 -0.1879
   62SAPC  H12X 4964   0.432   6.583   8.960 -1.6372 -0.5539  0.1495
   62SAPC  H12Y 4965   0.303   6.484   8.882  0.0915 -1.0560 -1.0058
   62SAPC  C313 4966   0.492   6.483   8.769  0.0171  0.2374 -0.5403
   62SAPC  H13X 4967   0.479   6.375   8.746  0.2952  0.1401 -0.2381
   62SAPC  H13Y 4968   0.600   6.496   8.793 -0.1943 -1.3503  1.4347
   62SAPC  C314 4969   0.441   6.562   8.647  0.7526  0.5269 -0.1909
   62SAPC  H14X 4970   0.466   6.668   8.667  1.5142  0.5628 -1.2503
   62SAPC  H14Y 4971   0.331   6.557   8.633  0.7165  0.9297 -0.0444
   62SAPC  C315 4972   0.517   6.500   8.521 -0.0349  0.1529 -0.2302
   62SAPC  H15X 4973   0.477   6.398   8.501  1.3732 -0.3421 -0.5171
   62SAPC  H15Y 4974   0.622   6.478   8.550 -0.5989 -1.7000  0.5191
   62SAPC  C316 4975   0.522   6.589   8.400 -0.1477 -0.0434  0.0616
   62SAPC  H16X 4976   0.592   6.549   8.324 -0.5215 -0.9105  0.1700
   62SAPC  H16Y 4977   0.572   6.681   8.436 -0.8945  1.4902 -2.6292
   62SAPC  C317 4978   0.389   6.618   8.327 -0.0571 -0.4879  0.4881
   62SAPC  H17X 4979   0.337   6.675   8.407  1.8680  1.6618  0.2886
   62SAPC  H17Y 4980   0.340   6.525   8.292 -0.6480  0.6743 -1.8598
   62SAPC  C318 4981   0.419   6.709   8.210  0.2220 -0.9509  0.1413
   62SAPC  H18X 4982   0.477   6.662   8.128 -1.1321  0.0905 -1.4357
   62SAPC  H18Y 4983   0.477   6.796   8.246 -0.7054  0.3416 -1.4435
   62SAPC  H18Z 4984   0.322   6.748   8.174 -0.5020 -1.4005  1.5316
   63SAPC     N 4985   4.723   5.545   6.258  0.2610 -0.6946 -0.5480
   63SAPC   C12 4986   4.767   5.696   6.241 -0.2931  0.0626 -0.3155
   63SAPC  H12A 4987   4.746   5.755   6.329 -1.0734  1.4448 -1.3876
   63SAPC  H12B 4988   4.697   5.738   6.169 -0.5694  1.7768  0.9000
   63SAPC   C13 4989   4.749   5.456   6.145  0.1833 -0.6922 -0.0625
   63SAPC  H13A 4990   4.724   5.354   6.170 -0.3457 -1.1150 -2.2161
   63SAPC  H13B 4991   4.706   5.489   6.052  0.2459 -0.6515 -0.0772
   63SAPC  H13C 4992   4.853   5.453   6.116 -0.3596 -1.2205 -2.0400
   63SAPC   C14 4993   4.791   5.492   6.381  0.0971 -0.0856 -0.1022
   63SAPC  H14A 4994   4.892   5.529   6.389 -0.5801  2.1137 -1.1418
   63SAPC  H14B 4995   4.733   5.538   6.460 -0.9656  0.6204 -1.2666
   63SAPC  H14C 4996   4.789   5.384   6.379  0.2820 -0.0798 -1.4377
   63SAPC   C15 4997   4.574   5.540   6.282 -0.8081 -0.4370 -0.6501
   63SAPC  H15A 4998   4.540   5.438   6.297  1.3659 -1.4500 -2.1968
   63SAPC  H15B 4999   4.535   5.587   6.371 -1.3819 -1.5353 -0.3130
   63SAPC  H15C 5000   4.515   5.574   6.198 -2.4389 -0.8529  0.3156
   63SAPC   C11 5001   4.915   5.713   6.209 -1.1903 -0.3903  0.1324
   63SAPC  H11A 5002   4.931   5.822   6.196  0.1755 -0.4833  0.9985
   63SAPC  H11B 5003   4.925   5.665   6.109 -3.6982  2.4252 -1.5773
   63SAPC     P 5004   5.074   5.741   6.410 -0.0111  0.1046  0.0371
   63SAPC   O13 5005   5.125   5.656   6.518  0.4289  0.2836 -0.4979
   63SAPC   O14 5006   5.164   5.833   6.341 -0.5261  0.1783  0.2474
   63SAPC   O12 5007   5.001   5.653   6.302 -0.5280  0.1738  0.2269
   63SAPC   O11 5008   4.959   5.841   6.471  0.2709 -0.3474 -0.0196
   63SAPC    C1 5009   4.899   5.796   6.595  0.2848  0.1218  0.1677
   63SAPC    HA 5010   4.793   5.828   6.598 -0.1527 -1.4116  2.0955
   63SAPC    HB 5011   4.897   5.685   6.602 -2.3605  0.1923  1.2649
   63SAPC    C2 5012   4.947   5.860   6.735 -0.3047 -1.2259  0.4737
   63SAPC    HS 5013   5.044   5.819   6.770 -0.3705 -0.7070  1.2844
   63SAPC   O21 5014   4.852   5.865   6.844  0.2481 -0.4353 -0.2817
   63SAPC   C21 5015   4.827   5.746   6.879  0.3625  0.1579  0.7607
   63SAPC   O22 5016   4.885   5.644   6.850  0.1387 -0.0379 -0.1073
   63SAPC   C22 5017   4.713   5.755   6.980  0.2335 -0.1123  0.2801
   63SAPC   H2R 5018   4.736   5.685   7.063 -0.3227  1.1846  1.5410
   63SAPC   H2S 5019   4.694   5.859   7.014 -0.9506 -0.2116 -0.0550
   63SAPC    C3 5020   4.978   6.011   6.715 -0.3211 -0.3067  0.6416
   63SAPC    HX 5021   4.882   6.064   6.698  0.8284  1.2311 -1.2206
   63SAPC    HY 5022   5.031   6.023   6.618 -0.6901  1.2621  0.6312
   63SAPC   O31 5023   5.056   6.070   6.820 -0.1510 -0.1420 -0.0003
   63SAPC   C31 5024   5.193   6.057   6.806  0.4347 -0.6899  0.1182
   63SAPC   O32 5025   5.251   6.022   6.707  0.5411  0.5945  0.0164
   63SAPC   C32 5026   5.264   6.076   6.938  0.2832 -0.5047 -0.4338
   63SAPC   H2X 5027   5.225   6.003   7.012 -2.2569  1.6078  0.3938
   63SAPC   H2Y 5028   5.231   6.174   6.978 -1.8228 -0.1720 -2.8340
   63SAPC   C23 5029   4.586   5.700   6.918  0.0858 -0.1210  0.2497
   63SAPC   H3R 5030   4.601   5.592   6.897 -0.6992 -0.1725 -0.0537
   63SAPC   H3S 5031   4.566   5.747   6.819  2.3825  1.6001  0.5694
   63SAPC   C24 5032   4.464   5.731   7.009  0.0762 -1.5586 -0.2127
   63SAPC   H4R 5033   4.371   5.696   6.960  0.3237 -2.0346 -0.3480
   63SAPC   H4S 5034   4.468   5.842   7.010  0.2010 -1.5679  0.8685
   63SAPC   C25 5035   4.482   5.653   7.142  0.0446  0.1339 -0.2640
   63SAPC   H5R 5036   4.479   5.544   7.130  0.1113  0.1965 -0.8855
   63SAPC   C26 5037   4.507   5.705   7.266 -0.9930 -0.0913  0.9076
   63SAPC   H6R 5038   4.536   5.639   7.349  1.4428 -1.8421 -1.2616
   63SAPC   C27 5039   4.519   5.854   7.285  0.2479  0.7423  0.1140
   63SAPC   H7R 5040   4.508   5.918   7.195  1.9233  0.9517  0.0550
   63SAPC   H7S 5041   4.619   5.892   7.314  0.1581 -1.7486  3.9653
   63SAPC   C28 5042   4.424   5.898   7.400  0.0334 -0.2069  0.1081
   63SAPC   H8R 5043   4.318   5.910   7.375 -0.0937 -2.0810 -0.3109
   63SAPC   C29 5044   4.455   5.929   7.532 -0.6267  0.2842 -0.2026
   63SAPC   H9R 5045   4.376   5.959   7.602  0.6234  1.0317  0.9173
   63SAPC  C210 5046   4.587   5.916   7.606  0.1257 -0.1461 -0.5870
   63SAPC  H10R 5047   4.595   6.002   7.676  1.1451 -1.2823  0.7426
   63SAPC  H10S 5048   4.673   5.929   7.538  1.2938  3.2210  1.4138
   63SAPC  C211 5049   4.591   5.792   7.691 -0.2032 -0.4722  0.2249
   63SAPC  H11R 5050   4.496   5.739   7.708  1.3513 -2.5453  2.8893
   63SAPC  C212 5051   4.704   5.744   7.749  0.3775  0.4963 -0.5444
   63SAPC  H12R 5052   4.703   5.647   7.802  0.1185 -0.2151 -1.8169
   63SAPC  C213 5053   4.835   5.814   7.729  0.2941  0.6744  0.2708
   63SAPC  H13R 5054   4.840   5.898   7.801 -1.4623 -0.5422  1.8646
   63SAPC  H13S 5055   4.851   5.860   7.629  1.1590 -0.1748  0.0103
   63SAPC  C214 5056   4.945   5.716   7.757  0.1787 -1.0856 -0.5671
   63SAPC  H14R 5057   5.019   5.705   7.677  0.9067  0.9132 -0.1810
   63SAPC  C215 5058   4.992   5.668   7.878 -0.1275 -0.2664  0.3112
   63SAPC  H15R 5059   5.084   5.608   7.889  1.8920  2.3712 -1.3553
   63SAPC  C216 5060   4.929   5.713   8.003 -0.5778 -0.1909  0.1879
   63SAPC  H16R 5061   4.852   5.792   7.990 -1.5883 -1.0067  1.1413
   63SAPC  H16S 5062   4.990   5.762   8.082 -2.2818 -0.1106  1.4607
   63SAPC  C217 5063   4.866   5.603   8.084 -0.1303 -0.1718 -0.2642
   63SAPC  H17R 5064   4.942   5.527   8.111  1.0824  2.2423  3.5780
   63SAPC  H17S 5065   4.789   5.551   8.023  2.2337 -1.7955 -1.9542
   63SAPC  C218 5066   4.803   5.653   8.223 -0.2942 -0.8874  0.1128
   63SAPC  H18R 5067   4.742   5.566   8.257 -0.3398 -1.7274 -2.0742
   63SAPC  H18S 5068   4.734   5.736   8.197  0.2153 -0.8537 -1.1672
   63SAPC  C219 5069   4.902   5.685   8.338  0.5763  0.0948 -0.8042
   63SAPC  H19R 5070   4.934   5.791   8.325  3.1441 -0.7283 -1.4511
   63SAPC  H19S 5071   4.994   5.622   8.341  0.0798 -0.6052  0.6510
   63SAPC  C220 5072   4.824   5.675   8.471  0.2152  0.2058 -0.2825
   63SAPC  H20R 5073   4.780   5.575   8.488  0.5563  0.2335  0.7971
   63SAPC  H20S 5074   4.748   5.756   8.469  0.3495  0.3115 -1.4423
   63SAPC  H20T 5075   4.896   5.692   8.554  0.7661  0.9914 -0.9154
   63SAPC   C33 5076   5.419   6.081   6.929 -0.2486 -0.6243  0.2104
   63SAPC   H3X 5077   5.458   6.049   6.830  1.4161  1.1446  0.2566
   63SAPC   H3Y 5078   5.457   6.013   7.009 -1.5541 -1.5092  0.0877
   63SAPC   C34 5079   5.476   6.223   6.947  0.0969 -0.3786  0.2197
   63SAPC   H4X 5080   5.419   6.289   6.878  0.7505 -3.4393 -3.4774
   63SAPC   H4Y 5081   5.578   6.228   6.901 -0.4036  0.8761 -0.7665
   63SAPC   C35 5082   5.482   6.270   7.094  0.3758  0.1099 -0.7691
   63SAPC   H5X 5083   5.376   6.278   7.127  1.2075  0.4640  1.8671
   63SAPC   H5Y 5084   5.520   6.375   7.091  2.4056 -0.6296 -1.2247
   63SAPC   C36 5085   5.573   6.187   7.193  0.4754 -0.7566 -0.2180
   63SAPC   H6X 5086   5.678   6.218   7.175 -0.1116  0.9958 -0.7014
   63SAPC   H6Y 5087   5.544   6.080   7.185 -2.4976 -0.3189  3.0382
   63SAPC   C37 5088   5.547   6.214   7.346  0.9705  0.6158 -0.1247
   63SAPC   H7X 5089   5.436   6.214   7.355  1.0392 -0.0150  0.7871
   63SAPC   H7Y 5090   5.578   6.320   7.355 -0.2565  0.8767  1.2565
   63SAPC   C38 5091   5.621   6.116   7.439  0.2326 -0.4447  0.6458
   63SAPC   H8X 5092   5.728   6.105   7.411  0.0622  0.5391 -0.4563
   63SAPC   H8Y 5093   5.584   6.011   7.437  1.8805 -1.0430  0.9642
   63SAPC   C39 5094   5.610   6.165   7.582  0.3616 -0.2873  0.2488
   63SAPC   H9X 5095   5.657   6.097   7.656  0.9457 -0.9189 -0.6921
   63SAPC   H9Y 5096   5.503   6.165   7.613  0.1763  0.7692 -0.3723
   63SAPC  C310 5097   5.685   6.300   7.602 -0.7989  0.5463  0.8602
   63SAPC  H10X 5098   5.625   6.376   7.547  1.8921  2.1928  0.0653
   63SAPC  H10Y 5099   5.788   6.301   7.560 -1.0769 -2.5459 -0.0304
   63SAPC  C311 5100   5.692   6.330   7.750  0.8266  0.0058 -0.1222
   63SAPC  H11X 5101   5.690   6.232   7.803 -0.9223  0.7565  1.2177
   63SAPC  H11Y 5102   5.591   6.364   7.780  0.3013 -1.8415  0.2830
   63SAPC  C312 5103   5.808   6.420   7.780 -0.4960  0.7537 -0.8674
   63SAPC  H12X 5104   5.783   6.523   7.749  1.4177  1.7725  0.8385
   63SAPC  H12Y 5105   5.906   6.387   7.740  0.4493  0.5050  1.5162
   63SAPC  C313 5106   5.820   6.425   7.937  1.2795  0.1569  0.7000
   63SAPC  H13X 5107   5.858   6.324   7.961 -0.3948 -0.4335  0.9185
   63SAPC  H13Y 5108   5.719   6.443   7.981  0.2324  1.5744 -2.1901
   63SAPC  C314 5109   5.912   6.540   7.983  0.4962  0.0576  0.1125
   63SAPC  H14X 5110   5.911   6.546   8.094  0.0637  0.5492  0.0842
   63SAPC  H14Y 5111   5.866   6.635   7.947  0.8827 -0.0603 -0.7280
   63SAPC  C315 5112   6.058   6.520   7.930 -1.2178 -0.9417 -0.1914
   63SAPC  H15X 5113   6.063   6.549   7.823 -0.5059  1.1730  0.3891
   63SAPC  H15Y 5114   6.084   6.415   7.950 -1.3934 -0.9694 -0.1039
   63SAPC  C316 5115   6.148   6.609   8.012  0.0154  0.2327  0.0040
   63SAPC  H16X 5116   6.124   6.589   8.119  2.4666 -0.7531  0.3924
   63SAPC  H16Y 5117   6.121   6.713   7.985 -1.0813 -0.2383 -0.7526
   63SAPC  C317 5118   6.301   6.579   7.992  0.1252  0.2641  0.1706
   63SAPC  H17X 5119   6.333   6.590   7.886  0.4101  0.9853  0.3291
   63SAPC  H17Y 5120   6.309   6.476   8.033  2.3896  0.8039  1.1415
   63SAPC  C318 5121   6.398   6.660   8.073  0.0547  0.4891 -0.7329
   63SAPC  H18X 5122   6.502   6.623   8.066  0.1926  1.2344 -2.7771
   63SAPC  H18Y 5123   6.362   6.663   8.179  0.5434  1.5958 -0.5934
   63SAPC  H18Z 5124   6.403   6.769   8.053  0.4915  0.7629  0.8009
   64SAPC     N 5125   0.243   5.707   6.133 -0.0356 -0.3906  0.5125
   64SAPC   C12 5126   0.256   5.847   6.184 -0.0443  0.0658 -0.7546
   64SAPC  H12A 5127   0.355   5.888   6.171 -0.4208  1.3032  0.1373
   64SAPC  H12B 5128   0.245   5.847   6.292 -1.9795  4.5019 -0.8448
   64SAPC   C13 5129   0.286   5.703   5.988  0.8247  0.2853 -0.0292
   64SAPC  H13A 5130   0.240   5.787   5.939  1.2487  1.3209  1.3310
   64SAPC  H13B 5131   0.392   5.720   5.977  0.4751  2.3033 -0.4376
   64SAPC  H13C 5132   0.250   5.616   5.935 -1.2299  0.8113  0.4631
   64SAPC   C14 5133   0.328   5.615   6.206  0.0401 -0.4111  0.0943
   64SAPC  H14A 5134   0.431   5.629   6.175 -0.0028 -0.4510 -0.0674
   64SAPC  H14B 5135   0.314   5.628   6.312  0.8545 -1.8128  0.4024
   64SAPC  H14C 5136   0.304   5.511   6.188 -0.7971  0.1543 -2.2944
   64SAPC   C15 5137   0.102   5.653   6.147  0.4503  0.3491 -0.5117
   64SAPC  H15A 5138   0.070   5.648   6.250  0.8725 -1.8214 -0.4776
   64SAPC  H15B 5139   0.032   5.708   6.086 -1.5547 -2.3571 -0.7226
   64SAPC  H15C 5140   0.093   5.550   6.117  0.9565  0.3984 -0.8503
   64SAPC   C11 5141   0.161   5.956   6.129  0.2266  0.4720  0.1827
   64SAPC  H11A 5142   0.181   5.985   6.023 -2.2715 -0.6001 -0.6233
   64SAPC  H11B 5143   0.189   6.035   6.201  2.0828  0.6716 -0.7239
   64SAPC     P 5144  -0.083   6.040   6.100  0.0452  0.0354 -0.5522
   64SAPC   O13 5145  -0.016   6.138   6.017 -0.1404 -0.1027  0.4445
   64SAPC   O14 5146  -0.207   5.974   6.051 -0.3479 -0.4962 -0.2786
   64SAPC   O12 5147   0.018   5.923   6.138 -0.0774 -0.0606 -0.0944
   64SAPC   O11 5148  -0.100   6.115   6.240 -0.3278 -0.1286  0.0941
   64SAPC    C1 5149  -0.113   6.033   6.360 -0.4152  0.3611 -0.1184
   64SAPC    HA 5150  -0.178   6.089   6.432 -1.2012 -1.6170  0.7412
   64SAPC    HB 5151  -0.165   5.937   6.340  0.1115  0.7904 -3.8284
   64SAPC    C2 5152   0.017   6.018   6.440 -0.5188  0.3493 -0.4582
   64SAPC    HS 5153   0.087   5.960   6.376 -0.1257  0.2204  0.0944
   64SAPC   O21 5154   0.002   5.943   6.565 -0.8127  0.8829 -0.3132
   64SAPC   C21 5155  -0.019   5.812   6.536  0.1921 -1.0020  0.3916
   64SAPC   O22 5156  -0.025   5.763   6.431 -0.0480 -0.5727  0.3560
   64SAPC   C22 5157  -0.019   5.735   6.664 -0.5166 -0.1138  0.1716
   64SAPC   H2R 5158   0.088   5.705   6.670 -0.2147 -0.1314 -3.9070
   64SAPC   H2S 5159  -0.030   5.799   6.755 -1.0005 -1.8635  1.3615
   64SAPC    C3 5160   0.092   6.155   6.463 -0.5709  0.2825 -0.1884
   64SAPC    HX 5161   0.104   6.201   6.363  0.8685 -0.3426 -0.3193
   64SAPC    HY 5162   0.189   6.127   6.510 -0.1860 -0.2844 -1.3094
   64SAPC   O31 5163   0.013   6.234   6.549 -0.0957 -0.0294 -0.3510
   64SAPC   C31 5164   0.072   6.325   6.620 -0.4338 -0.2301  0.0707
   64SAPC   O32 5165   0.191   6.340   6.627 -0.3765  0.1825  0.0357
   64SAPC   C32 5166  -0.023   6.422   6.687  0.0381 -0.5979  0.2394
   64SAPC   H2X 5167  -0.103   6.362   6.736  0.6388 -0.2185  1.7168
   64SAPC   H2Y 5168  -0.091   6.478   6.619  0.3160  0.0089  0.4606
   64SAPC   C23 5169  -0.106   5.616   6.668  0.1650 -0.0084  0.0424
   64SAPC   H3R 5170  -0.078   5.548   6.750  1.0903  3.1713  2.4567
   64SAPC   H3S 5171  -0.097   5.557   6.574 -0.4618 -1.8853  1.1426
   64SAPC   C24 5172  -0.252   5.657   6.714  0.2752 -0.0237 -0.2237
   64SAPC   H4R 5173  -0.246   5.703   6.815  2.2053 -0.9448  0.1066
   64SAPC   H4S 5174  -0.308   5.562   6.725  1.5680 -0.9527 -1.4939
   64SAPC   C25 5175  -0.324   5.737   6.615  0.7461 -0.1039 -0.6258
   64SAPC   H5R 5176  -0.339   5.679   6.523  2.3417 -2.2710  0.4288
   64SAPC   C26 5177  -0.363   5.864   6.618 -0.7084  0.9196  0.5693
   64SAPC   H6R 5178  -0.391   5.901   6.519  0.7327 -1.3778 -0.7339
   64SAPC   C27 5179  -0.353   5.963   6.727  0.7663 -0.0307  0.3928
   64SAPC   H7R 5180  -0.280   6.042   6.702 -0.7061  1.2602  0.1242
   64SAPC   H7S 5181  -0.320   5.913   6.820  0.5704 -0.0954  0.4286
   64SAPC   C28 5182  -0.495   6.020   6.749 -0.8349 -0.3300  0.0462
   64SAPC   H8R 5183  -0.584   5.964   6.717 -0.9348  0.7974 -1.7333
   64SAPC   C29 5184  -0.515   6.125   6.838 -0.1365 -0.5475  0.0524
   64SAPC   H9R 5185  -0.617   6.164   6.843  0.8193  1.9903  0.2995
   64SAPC  C210 5186  -0.410   6.202   6.911 -0.3989 -0.1458 -0.0134
   64SAPC  H10R 5187  -0.314   6.185   6.858 -0.7860 -1.3255 -0.3673
   64SAPC  H10S 5188  -0.399   6.147   7.007 -1.0004 -1.7408 -0.8263
   64SAPC  C211 5189  -0.453   6.340   6.959 -0.4201  0.2968 -0.2735
   64SAPC  H11R 5190  -0.415   6.425   6.901  0.0107 -1.0959 -2.0948
   64SAPC  C212 5191  -0.537   6.365   7.062  0.7043 -0.1853  0.2412
   64SAPC  H12R 5192  -0.561   6.472   7.071 -1.8997 -0.6144 -0.9470
   64SAPC  C213 5193  -0.616   6.263   7.142 -0.2323  0.2048  0.6254
   64SAPC  H13R 5194  -0.540   6.216   7.209  1.3135  1.2271 -0.3966
   64SAPC  H13S 5195  -0.652   6.184   7.073  2.0741 -1.8217  1.6644
   64SAPC  C214 5196  -0.724   6.318   7.225  0.5689  0.0436 -0.1461
   64SAPC  H14R 5197  -0.823   6.292   7.185  0.8943  0.6285 -1.3644
   64SAPC  C215 5198  -0.719   6.403   7.330  0.4406 -0.5492 -0.5587
   64SAPC  H15R 5199  -0.816   6.414   7.380  2.1025  3.1607  2.0968
   64SAPC  C216 5200  -0.600   6.453   7.408  0.1847  0.3179  0.1721
   64SAPC  H16R 5201  -0.621   6.556   7.447  2.7891  0.8200  0.3963
   64SAPC  H16S 5202  -0.516   6.472   7.337 -1.6277  1.1425 -1.7903
   64SAPC  C217 5203  -0.557   6.368   7.532 -0.1695 -0.4319 -0.7722
   64SAPC  H17R 5204  -0.530   6.264   7.503  1.6904 -1.3226  3.6438
   64SAPC  H17S 5205  -0.634   6.363   7.612  1.3242 -2.5939  0.5710
   64SAPC  C218 5206  -0.437   6.434   7.600  0.4697  0.2320  0.7783
   64SAPC  H18R 5207  -0.475   6.528   7.644  0.6072  0.7880 -0.2905
   64SAPC  H18S 5208  -0.357   6.468   7.531  0.0352 -0.2552  0.0245
   64SAPC  C219 5209  -0.382   6.364   7.729  0.1823 -0.6506 -0.1785
   64SAPC  H19R 5210  -0.476   6.350   7.787  0.1374  1.2515  0.2495
   64SAPC  H19S 5211  -0.323   6.445   7.776 -1.4135 -0.0482  0.8183
   64SAPC  C220 5212  -0.292   6.254   7.697 -1.1535 -0.4950 -0.0380
   64SAPC  H20R 5213  -0.215   6.280   7.622 -3.7388  1.1846 -2.2150
   64SAPC  H20S 5214  -0.359   6.171   7.665 -0.2435 -0.7875 -1.2376
   64SAPC  H20T 5215  -0.237   6.204   7.779  0.8456  1.3116 -0.2574
   64SAPC   C33 5216   0.043   6.527   6.784  0.4607 -0.1506 -0.0999
   64SAPC   H3X 5217   0.087   6.608   6.722 -1.7160  0.6250 -0.6707
   64SAPC   H3Y 5218   0.096   6.470   6.863  0.7747  1.1400  0.6343
   64SAPC   C34 5219  -0.074   6.601   6.859 -0.2050 -0.1095 -0.0449
   64SAPC   H4X 5220  -0.143   6.644   6.783 -0.6201 -0.3927  0.1653
   64SAPC   H4Y 5221  -0.013   6.680   6.907 -0.7042  0.7339 -0.7768
   64SAPC   C35 5222  -0.149   6.511   6.961 -0.1928  0.0955 -0.0238
   64SAPC   H5X 5223  -0.073   6.459   7.023 -1.0727  1.0873  1.9155
   64SAPC   H5Y 5224  -0.198   6.426   6.910 -1.2414  1.0506 -0.6324
   64SAPC   C36 5225  -0.237   6.593   7.059  0.1646  0.2805  0.2677
   64SAPC   H6X 5226  -0.311   6.525   7.106 -0.5634 -0.2645 -1.6446
   64SAPC   H6Y 5227  -0.294   6.671   7.004  0.3589  0.6947  0.6465
   64SAPC   C37 5228  -0.153   6.669   7.163 -0.4485  0.2633 -0.6318
   64SAPC   H7X 5229  -0.057   6.697   7.115  1.0160 -0.5453  1.7550
   64SAPC   H7Y 5230  -0.112   6.592   7.233 -0.6704  1.1043  0.4245
   64SAPC   C38 5231  -0.213   6.790   7.236 -0.7095 -0.0576  0.6382
   64SAPC   H8X 5232  -0.251   6.872   7.171  0.3708 -0.2353 -0.2397
   64SAPC   H8Y 5233  -0.122   6.841   7.275 -1.2846  1.2094  0.3659
   64SAPC   C39 5234  -0.319   6.754   7.335 -0.2369 -0.4282 -0.6443
   64SAPC   H9X 5235  -0.279   6.690   7.416  0.0729  0.5602 -0.0034
   64SAPC   H9Y 5236  -0.410   6.710   7.289 -1.3699 -1.6533  2.6170
   64SAPC  C310 5237  -0.380   6.883   7.403  0.4273  0.0580 -0.2842
   64SAPC  H10X 5238  -0.440   6.945   7.333 -0.0833 -0.6027 -0.4384
   64SAPC  H10Y 5239  -0.286   6.934   7.435  0.0101  1.2984 -0.9845
   64SAPC  C311 5240  -0.450   6.848   7.533 -0.2494  1.1922 -0.1718
   64SAPC  H11X 5241  -0.366   6.816   7.598 -1.7779 -0.5108  1.0275
   64SAPC  H11Y 5242  -0.524   6.766   7.522  0.5868  0.5229 -0.9575
   64SAPC  C312 5243  -0.507   6.970   7.612  0.0249  0.6725  0.5703
   64SAPC  H12X 5244  -0.579   7.031   7.553  0.7032 -0.0725 -1.0844
   64SAPC  H12Y 5245  -0.423   7.036   7.641  1.1389  0.0237 -1.0923
   64SAPC  C313 5246  -0.584   6.925   7.734 -0.6177 -0.0215 -0.4064
   64SAPC  H13X 5247  -0.507   6.907   7.812 -1.7358 -0.3890  0.6420
   64SAPC  H13Y 5248  -0.648   6.835   7.725 -0.2098 -0.2473 -1.0239
   64SAPC  C314 5249  -0.658   7.040   7.802 -0.6849  0.2889 -0.2224
   64SAPC  H14X 5250  -0.745   7.043   7.733 -0.7847 -0.8336 -0.1548
   64SAPC  H14Y 5251  -0.600   7.134   7.817  0.3948 -0.1578 -1.5403
   64SAPC  C315 5252  -0.718   6.998   7.941  0.0831 -0.1461 -0.1887
   64SAPC  H15X 5253  -0.758   6.894   7.947 -0.9274  0.2231 -0.3579
   64SAPC  H15Y 5254  -0.809   7.059   7.962  0.2937  0.0309  0.2215
   64SAPC  C316 5255  -0.614   7.018   8.050  0.7459  1.0923 -0.0745
   64SAPC  H16X 5256  -0.589   7.125   8.063  1.0217  0.4669  6.4142
   64SAPC  H16Y 5257  -0.525   6.961   8.016  1.5495  2.1365  0.2489
   64SAPC  C317 5258  -0.651   6.963   8.188  0.0284  0.0344  0.5575
   64SAPC  H17X 5259  -0.657   6.852   8.183 -0.4758  0.0834  0.0182
   64SAPC  H17Y 5260  -0.749   7.003   8.223  0.0879 -1.4412  2.4663
   64SAPC  C318 5261  -0.549   7.005   8.291  0.4083  0.2822 -0.6050
   64SAPC  H18X 5262  -0.561   7.106   8.334  1.4383 -0.7863  2.3469
   64SAPC  H18Y 5263  -0.445   6.988   8.255  1.1138 -1.4395  2.1332
   64SAPC  H18Z 5264  -0.554   6.932   8.375  0.1935  1.2159  0.2012
   65SAPC     N 5265   5.699   0.893   5.642  0.1496  0.6257 -0.0606
   65SAPC   C12 5266   5.782   0.770   5.670  0.1259  0.6164  0.5590
   65SAPC  H12A 5267   5.807   0.717   5.579 -1.7233  0.2716  0.2199
   65SAPC  H12B 5268   5.715   0.703   5.722  0.7217  0.1086  0.6821
   65SAPC   C13 5269   5.576   0.864   5.556 -0.3721  0.0572 -0.8580
   65SAPC  H13A 5270   5.519   0.955   5.549  2.5645  1.9649 -0.7118
   65SAPC  H13B 5271   5.606   0.845   5.454 -0.4149 -0.3621 -0.7940
   65SAPC  H13C 5272   5.519   0.780   5.592 -2.5763  2.1913  0.8064
   65SAPC   C14 5273   5.665   0.943   5.782 -0.2236  0.6700  0.1621
   65SAPC  H14A 5274   5.616   0.865   5.838 -2.6067  1.3350 -0.9226
   65SAPC  H14B 5275   5.750   0.980   5.837 -0.0572  0.4762  0.0345
   65SAPC  H14C 5276   5.587   1.018   5.786  0.0540  0.8650  2.0839
   65SAPC   C15 5277   5.790   0.992   5.570 -0.0236  0.0812  0.0441
   65SAPC  H15A 5278   5.729   1.080   5.556 -2.3338 -1.4442  0.2807
   65SAPC  H15B 5279   5.867   1.026   5.637  1.1737 -1.9030 -0.2804
   65SAPC  H15C 5280   5.815   0.950   5.474  0.2999 -1.0132  0.5980
   65SAPC   C11 5281   5.920   0.788   5.745  0.2551  0.8409  0.3234
   65SAPC  H11A 5282   5.983   0.852   5.680 -2.2760  1.5806 -1.4951
   65SAPC  H11B 5283   5.974   0.691   5.747  0.2026  0.8268  1.5456
   65SAPC     P 5284   5.890   0.733   5.997 -0.4128  0.2607 -0.2297
   65SAPC   O13 5285   5.748   0.700   5.983 -0.4934 -0.0704  0.5101
   65SAPC   O14 5286   5.999   0.629   5.988 -0.0630  0.0950 -0.1797
   65SAPC   O12 5287   5.922   0.836   5.879  0.0867 -0.0449  0.1651
   65SAPC   O11 5288   5.917   0.811   6.129 -1.1976  0.5529  0.3190
   65SAPC    C1 5289   5.843   0.934   6.146 -0.2999 -0.2342 -0.6848
   65SAPC    HA 5290   5.899   1.007   6.084  0.1321  0.6177  0.6647
   65SAPC    HB 5291   5.740   0.930   6.107 -0.4616  0.9888 -0.3969
   65SAPC    C2 5292   5.844   0.975   6.293 -0.1324  0.0644 -0.1739
   65SAPC    HS 5293   5.952   0.988   6.314 -0.0269  1.0570 -1.2545
   65SAPC   O21 5294   5.783   0.864   6.361  0.3662 -1.0529 -0.7528
   65SAPC   C21 5295   5.825   0.842   6.488  0.6581 -0.8151  0.5309
   65SAPC   O22 5296   5.931   0.892   6.533 -0.4169 -0.1646  0.1184
   65SAPC   C22 5297   5.728   0.761   6.553  0.0382 -0.7600 -0.9988
   65SAPC   H2R 5298   5.700   0.818   6.644  4.3519  2.1665 -1.3384
   65SAPC   H2S 5299   5.637   0.747   6.491 -0.0939  0.3029 -1.0534
   65SAPC    C3 5300   5.769   1.108   6.318  0.5899  0.3140 -0.5647
   65SAPC    HX 5301   5.668   1.101   6.272  0.2452 -0.1203  0.2546
   65SAPC    HY 5302   5.821   1.191   6.264 -1.9258  1.8382 -0.7271
   65SAPC   O31 5303   5.740   1.143   6.460  0.3919  0.2819  0.1182
   65SAPC   C31 5304   5.852   1.190   6.522  0.5145 -0.0828  0.2555
   65SAPC   O32 5305   5.962   1.206   6.470  0.1732  0.7580  0.3237
   65SAPC   C32 5306   5.813   1.231   6.663 -0.9910  0.7991  0.6106
   65SAPC   H2X 5307   5.722   1.172   6.685 -1.1436 -0.6055 -3.4578
   65SAPC   H2Y 5308   5.784   1.338   6.655  1.0375  1.5449  2.5909
   65SAPC   C23 5309   5.772   0.616   6.592 -0.1262  0.2356  0.7399
   65SAPC   H3R 5310   5.817   0.566   6.503  1.7993  1.6796  0.8677
   65SAPC   H3S 5311   5.677   0.560   6.607  1.3343 -1.9995  1.9289
   65SAPC   C24 5312   5.852   0.611   6.721  0.4783  0.4200  0.1195
   65SAPC   H4R 5313   5.953   0.657   6.723  0.1575  1.1695 -0.6186
   65SAPC   H4S 5314   5.889   0.508   6.739  1.5383  0.7797  0.0334
   65SAPC   C25 5315   5.780   0.638   6.850 -0.2601 -0.3468 -0.0697
   65SAPC   H5R 5316   5.710   0.555   6.872 -0.2339 -0.3654 -0.0587
   65SAPC   C26 5317   5.806   0.729   6.949  0.5699  0.1005  0.5038
   65SAPC   H6R 5318   5.748   0.715   7.042  1.6525  0.0402  1.1848
   65SAPC   C27 5319   5.913   0.831   6.957  0.7645 -0.2457 -0.3591
   65SAPC   H7R 5320   5.877   0.927   7.000 -0.3659 -1.6775  1.9635
   65SAPC   H7S 5321   5.952   0.865   6.858  1.7066  2.2113  0.8219
   65SAPC   C28 5322   6.026   0.778   7.032  0.2258 -0.2617  0.0147
   65SAPC   H8R 5323   6.074   0.703   6.967  3.0003  1.7238 -0.3342
   65SAPC   C29 5324   6.061   0.802   7.154 -0.5698  0.5170  0.5425
   65SAPC   H9R 5325   6.141   0.743   7.201 -1.9966 -1.3032  0.7909
   65SAPC  C210 5326   5.998   0.897   7.251 -0.3592  0.1245 -0.1509
   65SAPC  H10R 5327   5.902   0.946   7.224  1.1709  1.8167 -2.7608
   65SAPC  H10S 5328   6.067   0.983   7.240  1.4345 -1.2477  0.1487
   65SAPC  C211 5329   5.996   0.851   7.394 -0.4198  0.3554 -0.1236
   65SAPC  H11R 5330   5.913   0.787   7.426 -1.3471  1.0867 -1.0519
   65SAPC  C212 5331   6.074   0.900   7.497  0.7554 -0.1752  0.8758
   65SAPC  H12R 5332   6.041   0.873   7.599  0.2324 -2.0794  0.2265
   65SAPC  C213 5333   6.178   1.002   7.486  0.0958  0.8029  0.1549
   65SAPC  H13R 5334   6.234   1.011   7.582 -1.8789 -0.4778  1.4587
   65SAPC  H13S 5335   6.144   1.105   7.460 -0.5251  0.9958  1.6888
   65SAPC  C214 5336   6.292   0.976   7.382 -0.3131  0.1315 -0.1929
   65SAPC  H14R 5337   6.321   0.871   7.364  0.0212  0.4036 -1.2653
   65SAPC  C215 5338   6.338   1.060   7.283  0.0118  0.1150 -0.2601
   65SAPC  H15R 5339   6.412   1.023   7.209 -0.1166 -1.8088  0.5590
   65SAPC  C216 5340   6.285   1.201   7.255  0.5885 -0.4416 -0.3204
   65SAPC  H16R 5341   6.362   1.279   7.272 -0.1972  0.2474  0.1321
   65SAPC  H16S 5342   6.200   1.233   7.319  0.0853 -0.6965 -0.8537
   65SAPC  C217 5343   6.253   1.223   7.109 -0.6950 -1.1132  0.3785
   65SAPC  H17R 5344   6.208   1.324   7.096 -0.7299 -1.2712 -0.7439
   65SAPC  H17S 5345   6.185   1.145   7.069 -1.3518 -1.0402  1.3484
   65SAPC  C218 5346   6.376   1.225   7.010 -0.9455  0.0371 -0.0812
   65SAPC  H18R 5347   6.443   1.138   7.025 -1.0862  0.2576  1.9083
   65SAPC  H18S 5348   6.428   1.323   7.013 -0.2058 -0.2629 -1.9902
   65SAPC  C219 5349   6.322   1.221   6.863  0.2403 -0.6548  1.0145
   65SAPC  H19R 5350   6.390   1.265   6.787 -0.4805  0.1337  0.8141
   65SAPC  H19S 5351   6.224   1.272   6.849  1.1228  1.0181  0.8272
   65SAPC  C220 5352   6.318   1.068   6.834  1.1389  0.4159  0.3196
   65SAPC  H20R 5353   6.410   1.011   6.857  0.5266 -0.5301  0.4640
   65SAPC  H20S 5354   6.293   1.054   6.726  5.7740  1.1717 -0.9369
   65SAPC  H20T 5355   6.237   1.018   6.891  1.3646  0.7753  0.9517
   65SAPC   C33 5356   5.919   1.186   6.763  1.0595 -0.4899 -0.3602
   65SAPC   H3X 5357   6.017   1.230   6.734  1.4785  0.6868  2.7080
   65SAPC   H3Y 5358   5.934   1.077   6.747  0.0017 -0.5747 -0.7627
   65SAPC   C34 5359   5.868   1.186   6.907 -0.4065  0.0997 -0.2664
   65SAPC   H4X 5360   5.941   1.132   6.971 -0.7076  0.4316  0.3642
   65SAPC   H4Y 5361   5.767   1.140   6.913 -0.1139 -0.5964 -0.6554
   65SAPC   C35 5362   5.851   1.326   6.965  0.0578  0.5464  0.3937
   65SAPC   H5X 5363   5.780   1.381   6.900  0.0533  0.7828  0.5992
   65SAPC   H5Y 5364   5.950   1.374   6.949  0.9278 -0.2766  3.1266
   65SAPC   C36 5365   5.783   1.326   7.101 -0.8551  0.3878  0.4709
   65SAPC   H6X 5366   5.728   1.232   7.120  0.5713 -1.1523 -2.6568
   65SAPC   H6Y 5367   5.710   1.409   7.097  0.4020  1.5231  0.6955
   65SAPC   C37 5368   5.886   1.342   7.211  0.2558  0.6324  0.2399
   65SAPC   H7X 5369   5.931   1.444   7.210  1.2035  0.2110 -1.6964
   65SAPC   H7Y 5370   5.972   1.274   7.194 -0.0463  0.4661 -0.6928
   65SAPC   C38 5371   5.828   1.328   7.349 -0.0408 -0.0391 -0.1229
   65SAPC   H8X 5372   5.796   1.225   7.376  1.2379 -0.1192  1.1137
   65SAPC   H8Y 5373   5.742   1.398   7.350 -0.2290 -0.2264 -2.1198
   65SAPC   C39 5374   5.927   1.369   7.453  0.3027 -0.1788 -0.7437
   65SAPC   H9X 5375   5.970   1.464   7.416 -1.5357  0.0940 -2.1961
   65SAPC   H9Y 5376   6.003   1.289   7.469  0.5466 -0.0535 -1.2836
   65SAPC  C310 5377   5.846   1.397   7.583  0.0821 -0.3759 -0.8389
   65SAPC  H10X 5378   5.737   1.390   7.562 -0.4883 -0.1614  1.8162
   65SAPC  H10Y 5379   5.862   1.500   7.622  2.0340 -0.6427 -0.8717
   65SAPC  C311 5380   5.855   1.291   7.698  0.2240 -0.4346  0.4867
   65SAPC  H11X 5381   5.824   1.194   7.654 -2.9548  0.2090  1.1521
   65SAPC  H11Y 5382   5.798   1.304   7.793  2.7595 -0.2928  2.0237
   65SAPC  C312 5383   5.994   1.262   7.754  0.1143  0.8740  0.6495
   65SAPC  H12X 5384   6.047   1.350   7.797 -0.0471  1.0445  0.4968
   65SAPC  H12Y 5385   6.047   1.210   7.671 -0.9513 -1.1342  1.2008
   65SAPC  C313 5386   5.987   1.162   7.868 -0.0019 -0.3067  0.3360
   65SAPC  H13X 5387   6.081   1.102   7.874  1.2868  1.5365 -0.8603
   65SAPC  H13Y 5388   5.904   1.088   7.863 -0.1583 -0.2782  2.1184
   65SAPC  C314 5389   5.985   1.235   8.008 -0.7199  0.3518 -0.4578
   65SAPC  H14X 5390   5.889   1.290   8.010 -0.9888 -0.1295  0.0739
   65SAPC  H14Y 5391   6.069   1.307   8.005  0.9928 -1.6379 -2.0472
   65SAPC  C315 5392   5.997   1.141   8.135  0.3649  0.7648 -0.3920
   65SAPC  H15X 5393   6.090   1.082   8.119 -0.3875 -0.8379  0.9810
   65SAPC  H15Y 5394   5.909   1.076   8.155 -0.1376  1.7028  0.5075
   65SAPC  C316 5395   6.025   1.231   8.264 -0.1269 -0.0328  0.7707
   65SAPC  H16X 5396   5.927   1.278   8.286 -1.0238 -1.7402  0.5156
   65SAPC  H16Y 5397   6.091   1.315   8.235 -0.2161 -0.3593 -0.4155
   65SAPC  C317 5398   6.089   1.162   8.382 -0.1872  0.0977  0.9080
   65SAPC  H17X 5399   6.105   1.235   8.464 -0.0326  0.8322  0.2245
   65SAPC  H17Y 5400   6.192   1.129   8.360 -0.4108 -0.4798  0.7136
   65SAPC  C318 5401   6.005   1.046   8.433 -0.6297  0.3279 -0.0369
   65SAPC  H18X 5402   6.009   0.953   8.373  1.0712  0.3168  0.0571
   65SAPC  H18Y 5403   5.900   1.075   8.454 -0.3820 -0.5706  2.5975
   65SAPC  H18Z 5404   6.058   1.020   8.527  0.6616 -2.1312 -1.3857
   66SAPC     N 5405   4.348   0.411   6.038 -0.4532  1.2516  0.1698
   66SAPC   C12 5406   4.209   0.417   6.098  0.4356  0.1434 -0.3388
   66SAPC  H12A 5407   4.139   0.416   6.015  0.1520 -0.8850 -0.0957
   66SAPC  H12B 5408   4.197   0.509   6.154 -0.5836  0.3439 -0.8618
   66SAPC   C13 5409   4.380   0.549   5.976  0.1387 -0.4556 -0.1310
   66SAPC  H13A 5410   4.464   0.552   5.908 -1.6989 -0.6322 -2.4599
   66SAPC  H13B 5411   4.291   0.580   5.924  0.3417  0.5627  0.1194
   66SAPC  H13C 5412   4.404   0.619   6.054 -0.4988  0.5427 -0.8169
   66SAPC   C14 5413   4.449   0.374   6.146 -0.1879  0.1073  0.4637
   66SAPC  H14A 5414   4.458   0.450   6.222 -2.0171  0.3596  0.4489
   66SAPC  H14B 5415   4.424   0.278   6.188  0.9992  0.4374  1.9564
   66SAPC  H14C 5416   4.545   0.357   6.099 -0.0778  1.7217  0.0753
   66SAPC   C15 5417   4.357   0.314   5.927  0.4621 -0.4313 -0.0655
   66SAPC  H15A 5418   4.332   0.215   5.960  1.9522 -0.8212 -0.0890
   66SAPC  H15B 5419   4.304   0.339   5.836  0.7494  2.6114  0.5502
   66SAPC  H15C 5420   4.457   0.313   5.887  1.3719 -1.4919  2.1900
   66SAPC   C11 5421   4.160   0.292   6.183  0.7595 -0.2169  0.3014
   66SAPC  H11A 5422   4.057   0.305   6.223  0.6279  1.9909 -0.7200
   66SAPC  H11B 5423   4.220   0.295   6.277 -0.2757 -0.5560  0.9788
   66SAPC     P 5424   4.226   0.040   6.203 -0.3175  0.2312 -0.3299
   66SAPC   O13 5425   4.164  -0.088   6.154 -0.4234 -0.0479  0.1446
   66SAPC   O14 5426   4.376   0.042   6.206  0.0108  0.3270 -0.0515
   66SAPC   O12 5427   4.170   0.162   6.117 -0.8959 -0.4334 -0.2102
   66SAPC   O11 5428   4.176   0.055   6.352 -0.3599  0.2940  0.9455
   66SAPC    C1 5429   4.040   0.032   6.385 -0.0475  0.3356  0.3503
   66SAPC    HA 5430   3.974   0.062   6.301 -1.7822  0.0516  1.5779
   66SAPC    HB 5431   4.033  -0.079   6.392  0.0864  0.2323 -1.0769
   66SAPC    C2 5432   4.010   0.085   6.528  0.4773 -1.1407 -0.3098
   66SAPC    HS 5433   3.903   0.074   6.554 -0.0388  1.4451 -1.2602
   66SAPC   O21 5434   4.055   0.219   6.547 -0.4526 -0.3968  0.4085
   66SAPC   C21 5435   3.980   0.316   6.488 -0.3217 -1.2405  0.2791
   66SAPC   O22 5436   3.878   0.295   6.422 -0.0811 -0.1152 -0.6294
   66SAPC   C22 5437   4.062   0.445   6.500  0.0995  0.2875  0.0571
   66SAPC   H2R 5438   4.168   0.442   6.469 -0.2871 -0.5857 -1.2262
   66SAPC   H2S 5439   4.004   0.518   6.440  0.3185 -0.1390 -0.6838
   66SAPC    C3 5440   4.084  -0.013   6.636  0.0001 -0.0167 -0.1309
   66SAPC    HX 5441   4.193  -0.024   6.620  0.2883  2.7339 -0.3982
   66SAPC    HY 5442   4.044  -0.113   6.611  1.7612 -0.8844  0.4657
   66SAPC   O31 5443   4.056   0.016   6.779 -0.5027 -0.5646  0.0990
   66SAPC   C31 5444   4.143   0.108   6.836  0.3984 -0.1194  0.7212
   66SAPC   O32 5445   4.239   0.155   6.779  0.4921  0.1219 -0.2011
   66SAPC   C32 5446   4.110   0.121   6.979  0.3964 -0.1159  0.0031
   66SAPC   H2X 5447   4.191   0.090   7.049  1.1461 -2.2744 -1.7875
   66SAPC   H2Y 5448   4.026   0.052   6.999  0.7117 -0.7899 -0.9482
   66SAPC   C23 5449   4.071   0.490   6.653  0.2431  0.2352  0.4887
   66SAPC   H3R 5450   4.154   0.564   6.655  0.6167 -0.2091  2.8067
   66SAPC   H3S 5451   4.107   0.401   6.709  0.8989 -0.2567 -0.7199
   66SAPC   C24 5452   3.940   0.538   6.712 -0.4609 -0.2892  0.0780
   66SAPC   H4R 5453   3.970   0.562   6.816 -1.1334  0.6006  0.0710
   66SAPC   H4S 5454   3.854   0.468   6.723 -0.3133 -0.6898 -1.2365
   66SAPC   C25 5455   3.885   0.656   6.637 -0.3052 -0.3672 -0.2446
   66SAPC   H5R 5456   3.814   0.617   6.563  1.9723 -2.7051 -1.2579
   66SAPC   C26 5457   3.899   0.785   6.661  0.8427  0.7958 -0.0575
   66SAPC   H6R 5458   3.842   0.856   6.600 -0.4007 -1.7999 -2.0043
   66SAPC   C27 5459   3.978   0.840   6.774  1.0698  0.2038  0.7452
   66SAPC   H7R 5460   4.044   0.914   6.723  0.1644  0.1175 -0.5434
   66SAPC   H7S 5461   4.043   0.762   6.819  0.8224  1.2585  3.0306
   66SAPC   C28 5462   3.895   0.899   6.874 -0.7871  0.0899 -0.0437
   66SAPC   H8R 5463   3.795   0.926   6.839 -1.1899 -0.6779  0.5154
   66SAPC   C29 5464   3.931   0.936   7.001 -0.2216  0.2444 -0.1367
   66SAPC   H9R 5465   3.859   0.985   7.069  0.7492  0.0455  1.0565
   66SAPC  C210 5466   4.074   0.930   7.047 -0.2228 -0.6902 -0.4776
   66SAPC  H10R 5467   4.117   1.031   7.067  0.9054 -1.4366  0.9898
   66SAPC  H10S 5468   4.141   0.892   6.967  0.6354  0.4720 -0.3347
   66SAPC  C211 5469   4.080   0.836   7.171  0.0216 -0.0816  0.3303
   66SAPC  H11R 5470   4.065   0.731   7.141  1.4409 -0.7903  2.0643
   66SAPC  C212 5471   4.080   0.877   7.303  0.7457  0.0494  0.6285
   66SAPC  H12R 5472   4.078   0.806   7.387  0.4276 -1.9504 -1.0198
   66SAPC  C213 5473   4.091   1.023   7.355  0.2696 -0.9510 -0.6058
   66SAPC  H13R 5474   4.043   1.084   7.276 -1.8948  0.6161  1.8274
   66SAPC  H13S 5475   4.198   1.049   7.352  0.2166 -0.8873 -2.1735
   66SAPC  C214 5476   4.022   1.055   7.486 -0.6054 -0.0261  0.1312
   66SAPC  H14R 5477   3.913   1.071   7.481 -0.7878 -0.2614  2.6578
   66SAPC  C215 5478   4.091   1.067   7.597 -0.3673 -0.4296 -0.7278
   66SAPC  H15R 5479   4.033   1.092   7.687 -0.5107  1.4373 -1.3230
   66SAPC  C216 5480   4.236   1.052   7.621 -0.3822 -0.5853  0.3076
   66SAPC  H16R 5481   4.269   1.151   7.660  0.9813 -0.7222 -0.4649
   66SAPC  H16S 5482   4.294   1.033   7.528  0.1324 -0.5823  0.6212
   66SAPC  C217 5483   4.278   0.953   7.724  0.2128  0.5189  0.0156
   66SAPC  H17R 5484   4.386   0.933   7.710  0.5025  1.8380  0.3384
   66SAPC  H17S 5485   4.236   0.853   7.700  2.7401 -0.2408 -1.4075
   66SAPC  C218 5486   4.228   0.974   7.861  0.4538 -0.9100  0.2293
   66SAPC  H18R 5487   4.118   0.989   7.868  0.3098  0.2778 -3.4539
   66SAPC  H18S 5488   4.279   1.071   7.882  2.3955 -2.1527  1.3723
   66SAPC  C219 5489   4.264   0.876   7.964  0.2637 -0.7733 -0.5930
   66SAPC  H19R 5490   4.227   0.902   8.066 -0.1796 -0.2185 -0.8929
   66SAPC  H19S 5491   4.375   0.870   7.966  0.3337  0.6143  1.5222
   66SAPC  C220 5492   4.227   0.726   7.939 -0.3818  0.2533  0.2889
   66SAPC  H20R 5493   4.291   0.682   7.860 -0.9740 -0.1508  0.0256
   66SAPC  H20S 5494   4.130   0.701   7.891  0.2408 -0.7217 -0.4966
   66SAPC  H20T 5495   4.222   0.665   8.032  1.0063 -0.9746 -0.4092
   66SAPC   C33 5496   4.070   0.266   7.011 -0.5665 -0.1112  0.1994
   66SAPC   H3X 5497   3.995   0.313   6.944 -0.1849  1.7708  1.0606
   66SAPC   H3Y 5498   4.157   0.331   6.990  0.1426 -0.7996  0.9764
   66SAPC   C34 5499   4.026   0.285   7.158  0.2636 -0.7626 -0.1538
   66SAPC   H4X 5500   3.964   0.199   7.190 -2.0511 -0.3486 -3.3392
   66SAPC   H4Y 5501   3.945   0.360   7.150 -0.9589 -2.2934 -2.5137
   66SAPC   C35 5502   4.139   0.337   7.250  0.3272  0.2201  0.0760
   66SAPC   H5X 5503   4.198   0.410   7.191  0.7177 -1.1934 -1.3058
   66SAPC   H5Y 5504   4.204   0.251   7.275 -0.6311 -0.1357  1.3952
   66SAPC   C36 5505   4.083   0.391   7.382 -0.3200  0.5819  0.0713
   66SAPC   H6X 5506   4.085   0.305   7.452 -0.1449  0.6800  0.1855
   66SAPC   H6Y 5507   3.977   0.422   7.369 -0.3202  0.1513 -0.9613
   66SAPC   C37 5508   4.170   0.498   7.455  0.2184  0.8847 -0.3306
   66SAPC   H7X 5509   4.173   0.587   7.389  0.4128  1.6930  0.7627
   66SAPC   H7Y 5510   4.276   0.463   7.457 -0.8006 -2.3222  2.1442
   66SAPC   C38 5511   4.119   0.549   7.574 -0.5733  0.4355  0.5242
   66SAPC   H8X 5512   4.012   0.574   7.560 -0.6112  0.7449  1.3581
   66SAPC   H8Y 5513   4.161   0.648   7.601  1.9992 -1.0848  2.4004
   66SAPC   C39 5514   4.134   0.457   7.702  0.2352  0.4160  0.4987
   66SAPC   H9X 5515   4.070   0.367   7.687 -0.5814  1.2874 -1.3767
   66SAPC   H9Y 5516   4.094   0.526   7.778  1.7664 -0.7596  2.4325
   66SAPC  C310 5517   4.282   0.409   7.736  0.3613 -0.3036  0.3431
   66SAPC  H10X 5518   4.351   0.495   7.722 -0.4713  0.6350  1.8470
   66SAPC  H10Y 5519   4.313   0.324   7.672 -1.4846 -1.0628  0.4057
   66SAPC  C311 5520   4.298   0.356   7.882  0.3454  0.9213  0.1037
   66SAPC  H11X 5521   4.275   0.440   7.951  0.4849  0.7478  0.3603
   66SAPC  H11Y 5522   4.402   0.323   7.901 -0.0714  0.4075  1.5685
   66SAPC  C312 5523   4.196   0.245   7.926  0.1578  0.1720  0.5884
   66SAPC  H12X 5524   4.210   0.157   7.860  1.5829 -0.8202  2.1704
   66SAPC  H12Y 5525   4.093   0.284   7.918 -0.4516 -1.4359  0.4752
   66SAPC  C313 5526   4.233   0.198   8.065 -0.0794  0.8142  0.4232
   66SAPC  H13X 5527   4.342   0.173   8.060 -0.4053 -0.2873 -4.2490
   66SAPC  H13Y 5528   4.175   0.104   8.077 -1.1288  1.1624 -1.6757
   66SAPC  C314 5529   4.216   0.296   8.187  0.3631  0.3086  0.8181
   66SAPC  H14X 5530   4.277   0.387   8.169 -0.0091 -0.4011 -4.6582
   66SAPC  H14Y 5531   4.269   0.254   8.276 -0.0256 -0.7823  0.5421
   66SAPC  C315 5532   4.070   0.332   8.212  0.6378 -0.1939  0.0828
   66SAPC  H15X 5533   4.012   0.238   8.213  0.6475 -0.1927  0.9287
   66SAPC  H15Y 5534   4.034   0.394   8.127  0.2748  0.4840  0.7250
   66SAPC  C316 5535   4.038   0.403   8.343  0.6886  0.0628 -0.0979
   66SAPC  H16X 5536   4.099   0.495   8.353  1.2761 -0.1867 -1.2020
   66SAPC  H16Y 5537   4.075   0.334   8.422  0.8830  0.6174  0.3016
   66SAPC  C317 5538   3.894   0.434   8.360  0.6467 -0.0469  0.5546
   66SAPC  H17X 5539   3.839   0.338   8.372  1.9587 -0.6285  2.1090
   66SAPC  H17Y 5540   3.852   0.486   8.271 -0.3768 -0.9086  0.5320
   66SAPC  C318 5541   3.858   0.516   8.486 -0.6845  0.0106 -0.7285
   66SAPC  H18X 5542   3.760   0.566   8.480 -0.3726  0.7312  0.1324
   66SAPC  H18Y 5543   3.931   0.599   8.494 -0.4507 -0.1068 -1.5837
   66SAPC  H18Z 5544   3.876   0.457   8.578  1.4831  2.0206  0.1763
   67SAPC     N 5545   6.200   2.270   6.088  0.3538  0.3276 -0.2852
   67SAPC   C12 5546   6.229   2.207   6.221  0.0797  0.2113  0.0434
   67SAPC  H12A 5547   6.271   2.108   6.205  2.0037  1.1766 -1.0616
   67SAPC  H12B 5548   6.139   2.193   6.278 -0.7590  1.2531 -1.0214
   67SAPC   C13 5549   6.136   2.400   6.110  0.5439 -0.8497 -0.2684
   67SAPC  H13A 5550   6.055   2.388   6.180  0.4412 -0.8081 -0.3798
   67SAPC  H13B 5551   6.215   2.466   6.144  1.8480 -1.9222 -1.1586
   67SAPC  H13C 5552   6.104   2.450   6.019  0.1919 -2.7887 -1.2390
   67SAPC   C14 5553   6.325   2.288   6.001 -0.1142  0.0507 -0.1842
   67SAPC  H14A 5554   6.384   2.368   6.043 -0.7152 -0.1783  1.1106
   67SAPC  H14B 5555   6.386   2.200   5.996  1.6091  1.1226  1.3995
   67SAPC  H14C 5556   6.291   2.306   5.900 -2.0249  2.0899  0.7752
   67SAPC   C15 5557   6.109   2.177   6.018 -0.1606  0.4102  0.1976
   67SAPC  H15A 5558   6.013   2.183   6.068  0.0582 -1.9836  0.9549
   67SAPC  H15B 5559   6.104   2.208   5.915 -1.8058  1.6318  0.6253
   67SAPC  H15C 5560   6.141   2.074   6.017 -2.1304 -0.2473 -3.6193
   67SAPC   C11 5561   6.333   2.283   6.319 -0.5161 -0.8100  0.3352
   67SAPC  H11A 5562   6.333   2.248   6.424 -1.8066  2.0283  1.3161
   67SAPC  H11B 5563   6.300   2.389   6.327 -1.3893 -1.0715  0.2427
   67SAPC     P 5564   6.540   2.133   6.289 -0.3519  0.1780 -0.0104
   67SAPC   O13 5565   6.591   2.082   6.156 -0.5683  0.5334  0.2262
   67SAPC   O14 5566   6.638   2.152   6.398 -0.1304 -0.3129  0.2615
   67SAPC   O12 5567   6.463   2.266   6.271  0.0650  0.0498  0.0888
   67SAPC   O11 5568   6.432   2.024   6.342  0.5988 -0.2486  0.2273
   67SAPC    C1 5569   6.467   1.931   6.443 -0.0411  0.1286 -0.0356
   67SAPC    HA 5570   6.405   1.843   6.419 -1.0654  1.1907 -1.3357
   67SAPC    HB 5571   6.570   1.892   6.427 -0.2477 -0.8883  1.0663
   67SAPC    C2 5572   6.447   1.988   6.589  0.0026  0.1414  0.1839
   67SAPC    HS 5573   6.500   2.085   6.599 -1.9740  1.1871  0.9391
   67SAPC   O21 5574   6.489   1.888   6.688 -0.2751  0.1397  0.9873
   67SAPC   C21 5575   6.523   1.939   6.804 -0.2223  0.5344 -0.8670
   67SAPC   O22 5576   6.529   2.056   6.828 -0.2787  0.1953 -0.1342
   67SAPC   C22 5577   6.576   1.826   6.900  0.8184 -0.5827  0.4689
   67SAPC   H2R 5578   6.492   1.757   6.924  0.9625 -0.2132  2.0646
   67SAPC   H2S 5579   6.657   1.780   6.840 -0.1878 -2.3914  0.4687
   67SAPC    C3 5580   6.295   2.010   6.607 -0.1408  0.4075 -0.7733
   67SAPC    HX 5581   6.243   1.915   6.581  1.3401 -1.2020  1.9996
   67SAPC    HY 5582   6.264   2.085   6.531  0.8289 -0.4594 -2.0389
   67SAPC   O31 5583   6.251   2.053   6.738  0.2268 -0.6341 -0.0854
   67SAPC   C31 5584   6.236   2.179   6.760 -0.2760 -0.1896 -0.2013
   67SAPC   O32 5585   6.282   2.269   6.698  0.0747 -0.4278 -0.1640
   67SAPC   C32 5586   6.167   2.198   6.894 -0.0402 -0.0633 -0.3095
   67SAPC   H2X 5587   6.073   2.257   6.882 -2.3837 -4.0275 -2.5102
   67SAPC   H2Y 5588   6.236   2.265   6.949  0.5580 -1.1749  0.3028
   67SAPC   C23 5589   6.643   1.876   7.029 -0.1202 -0.0472 -0.1157
   67SAPC   H3R 5590   6.726   1.948   7.015  0.0484  0.3546  2.6436
   67SAPC   H3S 5591   6.679   1.788   7.088  0.0338  0.3780  0.4273
   67SAPC   C24 5592   6.536   1.948   7.123  0.6254 -0.4958  0.0288
   67SAPC   H4R 5593   6.458   1.871   7.144 -1.1391  1.6578  1.5144
   67SAPC   H4S 5594   6.504   2.039   7.068  0.5547 -0.2610  0.4626
   67SAPC   C25 5595   6.597   1.995   7.251 -0.3861  0.2169 -0.4389
   67SAPC   H5R 5596   6.604   2.104   7.268 -3.3900  0.5673 -1.0194
   67SAPC   C26 5597   6.644   1.916   7.347  0.1653 -0.4649 -0.8780
   67SAPC   H6R 5598   6.686   1.960   7.439 -1.9095  1.5541 -0.8609
   67SAPC   C27 5599   6.660   1.769   7.352 -0.2152  0.3051 -0.0002
   67SAPC   H7R 5600   6.748   1.741   7.290 -0.7027 -1.4347  0.0724
   67SAPC   H7S 5601   6.577   1.727   7.292 -1.0588  1.5901  0.2285
   67SAPC   C28 5602   6.666   1.714   7.493 -0.0091  0.2238  0.7044
   67SAPC   H8R 5603   6.572   1.681   7.541 -0.5057  0.5215 -0.0594
   67SAPC   C29 5604   6.781   1.692   7.565 -0.1289 -0.5535 -1.0255
   67SAPC   H9R 5605   6.768   1.646   7.664 -3.0090  2.4186  0.0711
   67SAPC  C210 5606   6.926   1.724   7.525  0.1602  0.2821 -0.8636
   67SAPC  H10R 5607   6.943   1.829   7.558 -3.2593 -0.5246  3.7572
   67SAPC  H10S 5608   6.921   1.718   7.414  0.4132 -2.2701 -0.7756
   67SAPC  C211 5609   7.018   1.616   7.572  0.4131 -0.2999  0.8331
   67SAPC  H11R 5610   7.049   1.549   7.491 -0.9614  1.3381 -1.1147
   67SAPC  C212 5611   7.066   1.616   7.693  0.3056  0.3765  0.2512
   67SAPC  H12R 5612   7.145   1.545   7.724 -0.3252 -0.3795  0.1492
   67SAPC  C213 5613   7.038   1.720   7.802 -0.6153  0.3871 -0.2953
   67SAPC  H13R 5614   6.963   1.684   7.876 -1.7291  1.0873 -1.0505
   67SAPC  H13S 5615   6.977   1.802   7.758  0.2910  0.1957 -1.9139
   67SAPC  C214 5616   7.157   1.777   7.863 -0.9871 -0.0496  0.0302
   67SAPC  H14R 5617   7.194   1.869   7.813 -1.7314  1.0664  1.4979
   67SAPC  C215 5618   7.210   1.742   7.978  0.1610 -0.7186  0.2713
   67SAPC  H15R 5619   7.296   1.793   8.024 -0.6536  0.6685  0.2813
   67SAPC  C216 5620   7.140   1.661   8.083 -0.1439  0.3590  0.5260
   67SAPC  H16R 5621   7.211   1.611   8.153 -1.4340 -3.1084 -0.5496
   67SAPC  H16S 5622   7.088   1.579   8.029  0.1686  0.1802  0.4940
   67SAPC  C217 5623   7.042   1.752   8.159  0.0259 -0.1136  0.1569
   67SAPC  H17R 5624   6.968   1.788   8.084  0.0336  0.6600  0.5263
   67SAPC  H17S 5625   7.089   1.841   8.205 -2.9167  2.3096 -1.3144
   67SAPC  C218 5626   6.972   1.678   8.273  0.1013 -0.4123  0.1549
   67SAPC  H18R 5627   7.052   1.638   8.339  0.2437  1.5923  1.2343
   67SAPC  H18S 5628   6.914   1.595   8.229 -1.5871 -0.6813  2.7695
   67SAPC  C219 5629   6.877   1.764   8.357  0.0254 -0.1599  0.2519
   67SAPC  H19R 5630   6.805   1.821   8.294 -0.3584 -1.8066 -0.8200
   67SAPC  H19S 5631   6.941   1.837   8.411 -2.9859  0.6361  2.8886
   67SAPC  C220 5632   6.798   1.681   8.461  0.1130 -0.2381  0.2124
   67SAPC  H20R 5633   6.717   1.628   8.407 -2.3727  1.3468  2.2692
   67SAPC  H20S 5634   6.760   1.737   8.549 -1.2670  0.4872 -0.8349
   67SAPC  H20T 5635   6.853   1.596   8.508  1.2210 -0.3897 -1.3129
   67SAPC   C33 5636   6.136   2.074   6.974 -0.4293  0.7657  0.2804
   67SAPC   H3X 5637   6.231   2.018   6.991 -2.5173 -2.3561  2.0938
   67SAPC   H3Y 5638   6.062   2.006   6.927  1.5390 -0.8076 -0.6184
   67SAPC   C34 5639   6.081   2.115   7.110 -0.0973  0.5983  0.3771
   67SAPC   H4X 5640   6.025   2.026   7.146  1.5365 -1.4101 -1.8834
   67SAPC   H4Y 5641   6.016   2.204   7.100  1.9435  2.3372  2.2709
   67SAPC   C35 5642   6.186   2.150   7.217 -0.1990  0.2955 -0.1337
   67SAPC   H5X 5643   6.214   2.255   7.199 -1.2975  0.6883  0.3617
   67SAPC   H5Y 5644   6.278   2.088   7.211  0.9411  2.0170 -0.5956
   67SAPC   C36 5645   6.131   2.135   7.359  0.0386 -0.9246  0.1366
   67SAPC   H6X 5646   6.216   2.168   7.424  0.8986 -0.6599 -1.1010
   67SAPC   H6Y 5647   6.098   2.032   7.385 -0.8478  0.2038  3.7551
   67SAPC   C37 5648   6.006   2.228   7.387 -0.0569 -0.1474 -0.4016
   67SAPC   H7X 5649   5.949   2.191   7.475 -0.9860 -0.1462 -0.9924
   67SAPC   H7Y 5650   5.934   2.217   7.303 -1.1230 -0.3680  0.5269
   67SAPC   C38 5651   6.041   2.373   7.399  0.8206  0.3864  0.8329
   67SAPC   H8X 5652   5.944   2.427   7.392 -0.2951 -1.9366 -2.4261
   67SAPC   H8Y 5653   6.095   2.409   7.309 -0.3926  3.7203  1.3388
   67SAPC   C39 5654   6.120   2.421   7.523 -0.7820  0.1741 -0.4250
   67SAPC   H9X 5655   6.103   2.531   7.529  2.8287  0.7583  0.3388
   67SAPC   H9Y 5656   6.228   2.402   7.507 -1.0108 -0.5067 -1.1630
   67SAPC  C310 5657   6.070   2.340   7.647  0.4347  0.5222  0.0553
   67SAPC  H10X 5658   6.086   2.232   7.630  2.5546  0.8904 -0.4824
   67SAPC  H10Y 5659   5.961   2.362   7.645  0.5069  0.8941  0.2414
   67SAPC  C311 5660   6.128   2.388   7.778  0.6684 -0.1165  0.2883
   67SAPC  H11X 5661   6.133   2.498   7.771 -0.0884 -0.0754  0.3614
   67SAPC  H11Y 5662   6.237   2.365   7.777  0.7799  0.3763  0.9829
   67SAPC  C312 5663   6.065   2.354   7.914  0.5653 -0.0567  0.3110
   67SAPC  H12X 5664   6.054   2.244   7.921 -2.2754  0.1185 -0.7119
   67SAPC  H12Y 5665   5.965   2.403   7.915 -1.3933 -3.5157 -4.7373
   67SAPC  C313 5666   6.140   2.420   8.032 -0.3029 -0.1520  0.7004
   67SAPC  H13X 5667   6.146   2.527   8.001  1.0053 -0.5549 -0.4682
   67SAPC  H13Y 5668   6.245   2.390   8.052 -0.2615 -0.2892  0.2922
   67SAPC  C314 5669   6.062   2.381   8.153 -0.7216 -0.0238 -0.1468
   67SAPC  H14X 5670   6.037   2.274   8.166  1.7769 -0.4989  1.0102
   67SAPC  H14Y 5671   5.968   2.440   8.146 -1.8397 -1.6958  0.5009
   67SAPC  C315 5672   6.137   2.429   8.279 -0.4210 -0.1178 -0.1040
   67SAPC  H15X 5673   6.173   2.533   8.260 -2.2955  0.5553 -0.0085
   67SAPC  H15Y 5674   6.227   2.364   8.290  0.2091  1.0403  1.7437
   67SAPC  C316 5675   6.054   2.424   8.402 -0.0495  0.1411  0.3254
   67SAPC  H16X 5676   5.958   2.476   8.378 -0.9488 -1.9908 -0.8707
   67SAPC  H16Y 5677   6.095   2.497   8.475  1.7545  1.0399 -1.5287
   67SAPC  C317 5678   6.034   2.285   8.460 -0.5426  0.1613 -0.3032
   67SAPC  H17X 5679   6.127   2.262   8.516 -0.9453  0.5655  0.5390
   67SAPC  H17Y 5680   6.034   2.214   8.375  4.1533  0.9631 -1.1203
   67SAPC  C318 5681   5.908   2.277   8.545 -0.0250 -0.5440  0.2392
   67SAPC  H18X 5682   5.819   2.299   8.481  0.4788 -1.5218 -0.8284
   67SAPC  H18Y 5683   5.918   2.353   8.625 -2.0909 -0.7227  0.6952
   67SAPC  H18Z 5684   5.902   2.182   8.603  2.1621 -0.5097  0.5541
   68SAPC     N 5685   4.298   2.168   6.126  0.2898  0.9163 -0.0359
   68SAPC   C12 5686   4.305   2.025   6.073 -0.0487  0.5330  0.0545
   68SAPC  H12A 5687   4.396   2.016   6.015  0.0105  1.6231 -0.0400
   68SAPC  H12B 5688   4.226   1.998   6.004  1.2036 -3.0862 -0.0855
   68SAPC   C13 5689   4.408   2.193   6.218  0.2359  0.1494  0.0167
   68SAPC  H13A 5690   4.396   2.285   6.273  0.0090  0.0496  0.1327
   68SAPC  H13B 5691   4.416   2.111   6.287  0.0720 -1.0385 -1.3422
   68SAPC  H13C 5692   4.499   2.200   6.159  0.2290 -0.0711 -0.0187
   68SAPC   C14 5693   4.303   2.274   6.012  0.2869 -0.3582  0.3129
   68SAPC  H14A 5694   4.207   2.256   5.965  0.0760 -0.8864  0.9435
   68SAPC  H14B 5695   4.302   2.375   6.050 -0.7352  0.0837 -0.8460
   68SAPC  H14C 5696   4.388   2.260   5.946  0.9326  0.6538  0.9180
   68SAPC   C15 5697   4.168   2.187   6.191  0.1426  0.2908 -0.5989
   68SAPC  H15A 5698   4.087   2.152   6.129  0.0365 -2.1184  0.8765
   68SAPC  H15B 5699   4.165   2.113   6.269 -0.2764  2.1236  1.1662
   68SAPC  H15C 5700   4.160   2.284   6.238  3.3713 -0.4703  1.6673
   68SAPC   C11 5701   4.304   1.910   6.172 -0.7767  0.7678 -0.3106
   68SAPC  H11A 5702   4.391   1.940   6.234 -0.5127  1.4414 -0.9982
   68SAPC  H11B 5703   4.338   1.820   6.116 -0.7385  1.0320 -0.7182
   68SAPC     P 5704   4.058   1.825   6.196  0.2888 -0.2989 -0.3428
   68SAPC   O13 5705   3.955   1.930   6.156 -0.3406 -0.8563 -0.3115
   68SAPC   O14 5706   4.099   1.733   6.085 -0.2810  0.1849 -0.4382
   68SAPC   O12 5707   4.189   1.903   6.254 -0.7669  1.0818  0.7869
   68SAPC   O11 5708   3.990   1.746   6.318 -0.0748  0.0505  0.1534
   68SAPC    C1 5709   4.020   1.783   6.452 -0.5533 -0.0716 -0.4674
   68SAPC    HA 5710   4.026   1.893   6.467  1.5633 -0.0513 -1.2431
   68SAPC    HB 5711   3.941   1.749   6.522  0.3743 -1.4376 -0.0620
   68SAPC    C2 5712   4.142   1.711   6.515 -1.2619 -0.4316  0.4161
   68SAPC    HS 5713   4.224   1.773   6.472 -1.0244 -1.7855 -1.1090
   68SAPC   O21 5714   4.146   1.575   6.469 -0.0275 -0.6084  0.5641
   68SAPC   C21 5715   4.264   1.531   6.428  0.5486  0.0541  0.1351
   68SAPC   O22 5716   4.367   1.593   6.427 -0.4855  0.5798  0.8141
   68SAPC   C22 5717   4.239   1.390   6.370  0.3170  0.9521  0.1369
   68SAPC   H2R 5718   4.135   1.356   6.391  0.2381  0.3217 -1.2170
   68SAPC   H2S 5719   4.249   1.402   6.260  1.1681  1.7562  0.3013
   68SAPC    C3 5720   4.139   1.718   6.672  0.1093 -0.7456 -0.5783
   68SAPC    HX 5721   4.046   1.665   6.705  1.0237 -0.5602  2.5015
   68SAPC    HY 5722   4.133   1.820   6.715 -0.8396 -0.0378 -2.3638
   68SAPC   O31 5723   4.246   1.643   6.730 -0.1842 -0.7214  0.8234
   68SAPC   C31 5724   4.360   1.712   6.714 -0.3779  0.5440  0.3867
   68SAPC   O32 5725   4.374   1.824   6.662  0.7592 -0.1990 -0.3552
   68SAPC   C32 5726   4.480   1.633   6.777 -0.5650 -0.2709  0.0962
   68SAPC   H2X 5727   4.567   1.702   6.782  0.9521 -2.1288  0.2002
   68SAPC   H2Y 5728   4.492   1.549   6.705 -0.9556  1.3407 -1.9108
   68SAPC   C23 5729   4.348   1.292   6.420  0.2048 -1.1742 -0.0472
   68SAPC   H3R 5730   4.454   1.327   6.423  0.1042 -0.7764 -1.0171
   68SAPC   H3S 5731   4.346   1.206   6.349 -0.0868 -1.3951  0.2270
   68SAPC   C24 5732   4.315   1.259   6.565 -0.2316  0.9344  0.1885
   68SAPC   H4R 5733   4.206   1.240   6.575  0.1626  0.5802  5.6046
   68SAPC   H4S 5734   4.330   1.335   6.645 -1.8044  1.1128  0.3205
   68SAPC   C25 5735   4.392   1.133   6.601  0.2621 -0.0089 -0.2169
   68SAPC   H5R 5736   4.388   1.053   6.526 -2.2546 -1.8231  1.7770
   68SAPC   C26 5737   4.444   1.105   6.721 -0.2641 -0.1479  0.7585
   68SAPC   H6R 5738   4.504   1.014   6.737  0.8562  0.0927 -1.7438
   68SAPC   C27 5739   4.431   1.184   6.849  0.8746 -0.1288 -0.6622
   68SAPC   H7R 5740   4.346   1.256   6.846  0.4423 -0.5648  0.6174
   68SAPC   H7S 5741   4.523   1.246   6.853  0.5251  0.4705 -1.7602
   68SAPC   C28 5742   4.414   1.089   6.970  0.2051 -0.1527  0.1355
   68SAPC   H8R 5743   4.348   1.002   6.958 -3.0693  2.0408  1.3497
   68SAPC   C29 5744   4.481   1.102   7.087  0.4616 -0.6358  0.2667
   68SAPC   H9R 5745   4.450   1.039   7.171 -0.7571 -0.9553 -0.4033
   68SAPC  C210 5746   4.577   1.209   7.120 -0.0179 -0.3239  0.1782
   68SAPC  H10R 5747   4.529   1.305   7.147  1.7793  0.4732  0.5954
   68SAPC  H10S 5748   4.638   1.236   7.031 -0.5082  2.1812  0.5862
   68SAPC  C211 5749   4.670   1.171   7.235  0.3078  1.0245  0.6797
   68SAPC  H11R 5750   4.767   1.126   7.213 -0.6796 -2.0577  2.3539
   68SAPC  C212 5751   4.651   1.192   7.369 -0.1818 -0.2595  0.1454
   68SAPC  H12R 5752   4.733   1.172   7.439  1.8002  3.0132 -1.1774
   68SAPC  C213 5753   4.534   1.246   7.448  0.0890  0.1544  0.2534
   68SAPC  H13R 5754   4.488   1.158   7.499  0.8130  0.1687  0.9397
   68SAPC  H13S 5755   4.452   1.282   7.382 -0.4233 -2.1150 -0.4026
   68SAPC  C214 5756   4.590   1.352   7.543  0.3498 -0.3431  0.4021
   68SAPC  H14R 5757   4.582   1.457   7.509  2.8751  0.0409  0.8957
   68SAPC  C215 5758   4.651   1.336   7.663  0.1118  0.0978 -0.2316
   68SAPC  H15R 5759   4.690   1.427   7.712 -0.2221  0.0749  0.0828
   68SAPC  C216 5760   4.678   1.202   7.723  0.8775  0.0251 -1.4153
   68SAPC  H16R 5761   4.784   1.169   7.713  0.4732 -1.6670 -0.4049
   68SAPC  H16S 5762   4.617   1.116   7.688  0.2443 -0.0700 -0.0790
   68SAPC  C217 5763   4.664   1.215   7.878  0.3593  0.1938 -0.4490
   68SAPC  H17R 5764   4.580   1.285   7.902  0.6404  0.4866 -0.3119
   68SAPC  H17S 5765   4.753   1.274   7.910  0.2435  0.1605 -0.0612
   68SAPC  C218 5766   4.673   1.085   7.954  0.3053  0.8907  0.8458
   68SAPC  H18R 5767   4.766   1.028   7.936 -0.1886  0.6170 -0.9586
   68SAPC  H18S 5768   4.593   1.021   7.911 -0.0057 -0.0419  2.7395
   68SAPC  C219 5769   4.625   1.101   8.095 -0.6833  0.0070  0.7229
   68SAPC  H19R 5770   4.525   1.147   8.105 -1.4845 -1.4592 -0.2624
   68SAPC  H19S 5771   4.697   1.173   8.139 -0.7756  1.0902 -0.8453
   68SAPC  C220 5772   4.621   0.968   8.164 -0.2907  0.1402 -0.1637
   68SAPC  H20R 5773   4.706   0.902   8.137  0.4324 -0.3143  2.9911
   68SAPC  H20S 5774   4.530   0.917   8.127  0.0725 -2.6869  2.6893
   68SAPC  H20T 5775   4.609   0.977   8.274 -0.6133 -1.2135 -0.0874
   68SAPC   C33 5776   4.465   1.576   6.919  0.5287 -0.5740 -0.5297
   68SAPC   H3X 5777   4.545   1.499   6.922  0.2958 -0.7588  2.0833
   68SAPC   H3Y 5778   4.368   1.524   6.929 -0.3868  0.7985 -2.0754
   68SAPC   C34 5779   4.505   1.678   7.021 -0.2130  0.4960 -0.0039
   68SAPC   H4X 5780   4.439   1.766   7.006  0.0003  0.4865 -1.0121
   68SAPC   H4Y 5781   4.602   1.729   7.003 -0.2454  0.2290 -0.9650
   68SAPC   C35 5782   4.496   1.644   7.171 -0.3060  0.3991  0.4326
   68SAPC   H5X 5783   4.579   1.575   7.197 -0.0558  0.2099 -0.8291
   68SAPC   H5Y 5784   4.404   1.583   7.179  1.1176 -1.9672 -0.7838
   68SAPC   C36 5785   4.488   1.765   7.263  0.8526 -0.6585  0.1664
   68SAPC   H6X 5786   4.381   1.794   7.269  0.4761 -1.8963 -0.4780
   68SAPC   H6Y 5787   4.541   1.849   7.215 -0.2739 -1.0344 -1.7675
   68SAPC   C37 5788   4.554   1.749   7.401 -0.0163  0.0075  0.1578
   68SAPC   H7X 5789   4.664   1.742   7.405  0.1300  2.1645  0.7061
   68SAPC   H7Y 5790   4.521   1.659   7.458 -1.2131 -1.3372 -2.5648
   68SAPC   C38 5791   4.521   1.869   7.496  0.1570 -0.1860 -0.0634
   68SAPC   H8X 5792   4.425   1.837   7.542 -1.4019  0.2877 -2.8482
   68SAPC   H8Y 5793   4.504   1.960   7.435 -1.4051 -0.4279 -0.0015
   68SAPC   C39 5794   4.630   1.904   7.608  0.3529  0.0337 -0.1310
   68SAPC   H9X 5795   4.586   1.987   7.667  0.3266 -0.4245  0.4980
   68SAPC   H9Y 5796   4.711   1.958   7.554 -1.1547  2.0145 -0.4501
   68SAPC  C310 5797   4.681   1.775   7.675 -0.9017 -0.7289 -0.1830
   68SAPC  H10X 5798   4.749   1.716   7.611 -1.9191 -1.8915 -0.2119
   68SAPC  H10Y 5799   4.593   1.715   7.705 -2.0938  1.1231  0.1345
   68SAPC  C311 5800   4.751   1.814   7.806  0.6674  0.6125  0.1300
   68SAPC  H11X 5801   4.808   1.907   7.784  0.2070  1.0902  0.9225
   68SAPC  H11Y 5802   4.823   1.733   7.833 -1.9655 -0.7831  3.2275
   68SAPC  C312 5803   4.660   1.831   7.930  0.7795 -0.0533 -0.2546
   68SAPC  H12X 5804   4.575   1.881   7.879  1.1881 -0.3565 -1.2551
   68SAPC  H12Y 5805   4.711   1.909   7.991  0.2310  0.4821 -0.4759
   68SAPC  C313 5806   4.619   1.704   7.998  0.7188  0.0449 -0.6602
   68SAPC  H13X 5807   4.701   1.664   8.061 -1.2714  1.2775  2.8615
   68SAPC  H13Y 5808   4.578   1.630   7.925 -3.3338  1.4138  0.0693
   68SAPC  C314 5809   4.505   1.729   8.100  0.4300  0.5116 -0.6048
   68SAPC  H14X 5810   4.423   1.774   8.040  1.6724 -1.2214 -3.7621
   68SAPC  H14Y 5811   4.538   1.811   8.167 -1.2936 -1.2149  2.4027
   68SAPC  C315 5812   4.468   1.599   8.177 -0.2216 -0.1216 -0.0874
   68SAPC  H15X 5813   4.425   1.529   8.102  1.6390 -0.7763 -0.5665
   68SAPC  H15Y 5814   4.390   1.632   8.249 -0.7574 -1.1792 -0.1728
   68SAPC  C316 5815   4.586   1.530   8.258  0.3744  0.3647 -0.2037
   68SAPC  H16X 5816   4.614   1.611   8.329  1.0179  1.7938 -2.0274
   68SAPC  H16Y 5817   4.672   1.515   8.189 -0.1997 -0.8268 -0.6723
   68SAPC  C317 5818   4.545   1.403   8.333  0.3247 -0.0788 -0.3457
   68SAPC  H17X 5819   4.500   1.320   8.273 -1.8099  1.2783 -0.6428
   68SAPC  H17Y 5820   4.473   1.431   8.413  0.1461  1.8966 -1.1801
   68SAPC  C318 5821   4.661   1.332   8.397  0.5937 -0.2285  0.6824
   68SAPC  H18X 5822   4.634   1.257   8.474  0.3176  1.3790  2.1894
   68SAPC  H18Y 5823   4.720   1.405   8.456 -0.2089  0.6214  0.4530
   68SAPC  H18Z 5824   4.723   1.279   8.322  0.3972  0.4185  0.0512
   69SLPC     N 5825   1.882   5.679  11.069  0.0023 -0.2863 -0.4980
   69SLPC   C13 5826   1.899   5.556  10.997  0.1664  0.0389 -0.2852
   69SLPC  H13A 5827   1.833   5.545  10.912 -0.0372  1.5381 -0.3400
   69SLPC  H13B 5828   2.000   5.546  10.960 -0.0229 -0.4166 -0.6751
   69SLPC  H13C 5829   1.875   5.477  11.067  0.9970 -0.3669 -0.4524
   69SLPC   C14 5830   1.967   5.692  11.190  0.4063  0.1493 -0.2920
   69SLPC  H14A 5831   1.941   5.620  11.266 -0.9815  1.5833  0.6167
   69SLPC  H14B 5832   2.068   5.671  11.160  0.6561 -1.5957  1.7200
   69SLPC  H14C 5833   1.966   5.791  11.232  1.8531 -0.7934  2.0240
   69SLPC   C15 5834   1.738   5.686  11.109  0.1398  0.4398 -0.2121
   69SLPC  H15A 5835   1.725   5.746  11.198 -1.1535 -1.8216  1.1857
   69SLPC  H15B 5836   1.676   5.740  11.041  0.2417  1.4308  0.4729
   69SLPC  H15C 5837   1.694   5.588  11.124 -1.3188  1.3455  1.5560
   69SLPC   C12 5838   1.904   5.789  10.968  0.1556 -0.6834  0.3508
   69SLPC  H12A 5839   1.879   5.886  11.008  1.2308 -0.6418  0.9390
   69SLPC  H12B 5840   1.837   5.773  10.885  0.1527  2.7987 -0.3985
   69SLPC   C11 5841   2.041   5.789  10.888  0.0515  0.6154 -0.6256
   69SLPC  H11A 5842   2.038   5.869  10.812 -0.4615  1.2452  0.0444
   69SLPC  H11B 5843   2.058   5.696  10.831  0.5692  1.1532 -1.3530
   69SLPC     P 5844   2.193   5.952  11.038 -0.1981  0.1943 -0.2811
   69SLPC   O13 5845   2.102   5.998  11.149 -0.4974 -0.0719  0.2019
   69SLPC   O14 5846   2.337   5.946  11.057 -0.5389  0.4735 -0.0636
   69SLPC   O12 5847   2.152   5.809  10.985 -1.2608  0.0865  0.3923
   69SLPC   O11 5848   2.179   6.051  10.910 -0.2824  0.6839 -0.3386
   69SLPC    C1 5849   2.263   6.036  10.798  0.7011 -0.1248 -0.0138
   69SLPC    HA 5850   2.352   5.970  10.807  1.8269  1.6388  2.3906
   69SLPC    HB 5851   2.198   6.005  10.714 -0.0016 -0.2006  0.5525
   69SLPC    C2 5852   2.327   6.178  10.765  0.0530  0.5440 -0.8809
   69SLPC    HS 5853   2.384   6.210  10.855  0.1355 -2.4587  0.1668
   69SLPC   O21 5854   2.220   6.274  10.751 -0.5473  0.3974  0.2159
   69SLPC   C21 5855   2.254   6.400  10.726  0.2424 -0.5772  0.0732
   69SLPC   O22 5856   2.366   6.449  10.744 -0.2757 -0.5649 -0.0593
   69SLPC   C22 5857   2.137   6.478  10.680  0.4055 -0.0406  0.4806
   69SLPC   H2R 5858   2.059   6.411  10.637 -0.7657  0.0481  2.4273
   69SLPC   H2S 5859   2.091   6.527  10.768 -2.0620 -1.4920  0.0448
   69SLPC    C3 5860   2.414   6.170  10.641 -0.3274 -0.3782 -0.2733
   69SLPC    HX 5861   2.494   6.094  10.656  2.5010  1.9555 -2.7131
   69SLPC    HY 5862   2.465   6.268  10.633  0.6610 -0.8184  0.5509
   69SLPC   O31 5863   2.345   6.138  10.520 -1.0963 -0.3861 -0.1106
   69SLPC   C31 5864   2.408   6.073  10.431  0.1838 -0.3956  0.7055
   69SLPC   O32 5865   2.524   6.038  10.429 -0.0533 -0.0873  0.5084
   69SLPC   C32 5866   2.305   6.043  10.321  0.1363  0.4897  0.2081
   69SLPC   H2X 5867   2.221   6.110  10.350 -0.2470  0.1087 -0.0145
   69SLPC   H2Y 5868   2.273   5.937  10.327 -0.3552  0.6013 -0.3638
   69SLPC   C23 5869   2.163   6.595  10.583 -1.1462 -0.4990 -0.2381
   69SLPC   H3R 5870   2.224   6.672  10.635  4.3815 -2.9904 -2.6519
   69SLPC   H3S 5871   2.062   6.639  10.567 -1.4343 -1.0471  0.0498
   69SLPC   C24 5872   2.223   6.545  10.453 -0.1496  0.0942  0.6913
   69SLPC   H4R 5873   2.310   6.483  10.484 -0.2368  0.0817  0.9052
   69SLPC   H4S 5874   2.269   6.630  10.398 -1.6333  2.6041  3.2289
   69SLPC   C25 5875   2.135   6.462  10.361 -0.4476 -0.4413 -0.1488
   69SLPC   H5R 5876   2.029   6.498  10.367 -0.3799 -0.4784  1.4489
   69SLPC   H5S 5877   2.126   6.358  10.398 -0.9697 -0.8948 -1.5252
   69SLPC   C26 5878   2.170   6.467  10.211  0.3591  0.5271  0.1011
   69SLPC   H6R 5879   2.267   6.415  10.195  0.2064 -0.4125  1.9746
   69SLPC   H6S 5880   2.188   6.576  10.203  1.4536  0.2824 -0.9636
   69SLPC   C27 5881   2.071   6.410  10.115 -0.1826 -0.1849  0.6892
   69SLPC   H7R 5882   1.971   6.457  10.128 -0.1759 -0.0007  0.0556
   69SLPC   H7S 5883   2.044   6.311  10.158 -1.7545 -0.1080 -0.0965
   69SLPC   C28 5884   2.111   6.408   9.971 -0.0875  0.2413 -0.6573
   69SLPC   H8R 5885   2.042   6.336   9.922  0.3822  0.4651 -1.6741
   69SLPC   H8S 5886   2.208   6.355   9.979 -0.6539 -0.8371 -0.8219
   69SLPC   C29 5887   2.127   6.541   9.906 -0.3069 -0.6019  0.1954
   69SLPC   H9R 5888   2.189   6.615   9.958  2.1483 -3.7129  1.8464
   69SLPC  C210 5889   2.056   6.578   9.795 -0.5202 -0.2264  0.8879
   69SLPC  H10R 5890   2.060   6.681   9.755 -3.4281 -1.1012 -1.8302
   69SLPC  C211 5891   1.947   6.495   9.737 -0.0089 -0.0521 -0.0276
   69SLPC  H11R 5892   1.881   6.466   9.821 -0.4121  1.8292  0.3285
   69SLPC  H11S 5893   1.980   6.393   9.709  1.0261  0.3494 -0.3039
   69SLPC  C212 5894   1.872   6.545   9.616 -0.0290  0.0828 -0.7541
   69SLPC  H12R 5895   1.784   6.607   9.641  0.6122  0.7068 -0.0075
   69SLPC  C213 5896   1.900   6.529   9.488  0.0729 -0.5811  0.0474
   69SLPC  H13R 5897   1.821   6.561   9.418 -0.4485  0.3486  1.0510
   69SLPC  C214 5898   2.009   6.449   9.427 -0.5175 -0.6268  0.2846
   69SLPC  H14R 5899   2.087   6.429   9.504 -0.6352 -0.7178  0.3835
   69SLPC  H14S 5900   2.057   6.513   9.350 -2.7047  0.9160  0.1392
   69SLPC  C215 5901   1.936   6.322   9.366  0.1419  0.0712  0.0434
   69SLPC  H15R 5902   1.842   6.356   9.318 -0.3760  0.0857  1.0496
   69SLPC  H15S 5903   1.923   6.250   9.450  0.9447 -0.5444 -0.3525
   69SLPC  C216 5904   2.020   6.253   9.253  0.6893 -0.3648  0.3267
   69SLPC  H16R 5905   1.987   6.147   9.244 -1.0728  0.2816 -1.2077
   69SLPC  H16S 5906   2.124   6.260   9.291  1.0104  1.5178 -0.8575
   69SLPC  C217 5907   2.001   6.311   9.116 -0.1093 -0.3074  0.3463
   69SLPC  H17R 5908   1.969   6.417   9.118  0.2964 -0.1937  1.7665
   69SLPC  H17S 5909   1.921   6.255   9.063 -0.2245 -1.5381  1.7771
   69SLPC  C218 5910   2.122   6.287   9.027 -0.2875  0.2001 -0.2336
   69SLPC  H18R 5911   2.111   6.351   8.937 -1.4576  0.1128 -0.1493
   69SLPC  H18S 5912   2.136   6.183   8.991  0.9289  0.3928 -0.3631
   69SLPC  H18T 5913   2.211   6.331   9.078  2.3986 -1.5823 -3.1906
   69SLPC   C33 5914   2.372   6.057  10.183 -0.4844  0.2387  0.2406
   69SLPC   H3X 5915   2.448   5.976  10.178 -1.8383 -1.2061  2.2117
   69SLPC   H3Y 5916   2.418   6.157  10.167 -0.3356  0.1365  0.0342
   69SLPC   C34 5917   2.279   6.035  10.066  0.1705 -0.0626 -0.0034
   69SLPC   H4X 5918   2.192   6.098  10.094  0.8767  2.2085 -2.6659
   69SLPC   H4Y 5919   2.239   5.932  10.052  0.8625 -0.7167  2.6101
   69SLPC   C35 5920   2.332   6.083   9.934 -0.1252  0.2957  0.4877
   69SLPC   H5X 5921   2.420   6.024   9.900 -0.8815 -1.0328  0.8228
   69SLPC   H5Y 5922   2.365   6.189   9.938  0.4956  0.0544  2.1237
   69SLPC   C36 5923   2.221   6.073   9.824 -1.0191 -0.0895  0.3188
   69SLPC   H6X 5924   2.136   6.141   9.844 -1.8697 -1.6760  2.2571
   69SLPC   H6Y 5925   2.191   5.966   9.817 -0.8437 -0.0860 -0.5683
   69SLPC   C37 5926   2.275   6.101   9.682 -0.8847  0.5018 -0.4849
   69SLPC   H7X 5927   2.347   6.185   9.671  1.3706 -0.5636  4.4487
   69SLPC   H7Y 5928   2.178   6.126   9.635 -1.7982  1.8011  1.9994
   69SLPC   C38 5929   2.337   5.980   9.624  0.2122  0.6063  0.1099
   69SLPC   H8X 5930   2.267   5.893   9.628  2.8643 -1.5821 -0.0570
   69SLPC   H8Y 5931   2.433   5.949   9.670  0.1961  0.4323  0.0273
   69SLPC   C39 5932   2.372   5.985   9.477  0.1889  0.4743 -0.0524
   69SLPC   H9X 5933   2.444   5.904   9.458 -1.9486 -0.9464 -2.4556
   69SLPC   H9Y 5934   2.421   6.077   9.439  2.4836 -0.4044  0.7248
   69SLPC  C310 5935   2.257   5.953   9.373 -0.4095  0.3884  0.1834
   69SLPC  H10X 5936   2.183   6.036   9.367  1.4460  2.0115 -1.0857
   69SLPC  H10Y 5937   2.214   5.855   9.400  3.2810 -1.4855 -0.4519
   69SLPC  C311 5938   2.308   5.940   9.229 -0.0427 -0.1700  1.2048
   69SLPC  H11X 5939   2.383   5.858   9.229  0.3712  0.1997 -0.5702
   69SLPC  H11Y 5940   2.350   6.039   9.200 -1.4801 -0.1815 -1.0033
   69SLPC  C312 5941   2.200   5.900   9.131 -0.2379 -0.2204  0.2893
   69SLPC  H12X 5942   2.107   5.961   9.132 -0.2770 -0.2800  0.7389
   69SLPC  H12Y 5943   2.169   5.794   9.143 -0.3440 -0.4352 -1.7182
   69SLPC  C313 5944   2.267   5.891   8.990  0.2778  0.4142 -0.0804
   69SLPC  H13X 5945   2.364   5.837   8.985  0.9719  1.7410 -1.2687
   69SLPC  H13Y 5946   2.287   5.995   8.955  0.8505  0.5394  0.6032
   69SLPC  C314 5947   2.176   5.828   8.885 -0.3598 -0.3577 -0.8373
   69SLPC  H14X 5948   2.080   5.883   8.875 -0.2053 -0.2783 -2.0040
   69SLPC  H14Y 5949   2.141   5.729   8.922 -3.9221  1.4331  0.8138
   69SLPC  C315 5950   2.235   5.810   8.747 -0.1848  0.2599 -0.9902
   69SLPC  H15X 5951   2.268   5.906   8.701  0.1678  1.1486  1.0312
   69SLPC  H15Y 5952   2.160   5.783   8.670  1.3316  1.4636 -2.9387
   69SLPC  C316 5953   2.356   5.716   8.743 -0.8168 -0.1582  0.8169
   69SLPC  H16X 5954   2.438   5.750   8.809  0.5532 -0.4317 -0.7024
   69SLPC  H16Y 5955   2.403   5.712   8.642  0.3875  0.8258  1.3295
   69SLPC  C317 5956   2.334   5.571   8.790  1.1111  0.2008 -0.0801
   69SLPC  H17X 5957   2.261   5.533   8.716  1.4740 -0.9871  0.1603
   69SLPC  H17Y 5958   2.284   5.575   8.889  0.7381 -2.8275 -0.0993
   69SLPC  C318 5959   2.457   5.482   8.801 -0.4129 -0.1707  0.4517
   69SLPC  H18X 5960   2.528   5.530   8.872 -2.3599  0.9002  1.7270
   69SLPC  H18Y 5961   2.507   5.468   8.703 -0.0788  0.9732  0.4489
   69SLPC  H18Z 5962   2.434   5.379   8.835 -0.9375  0.0132  0.6666
   70SLPC     N 5963   3.469   4.527  10.839 -0.2590  0.5902 -0.0732
   70SLPC   C13 5964   3.480   4.480  10.980 -0.1375  0.1981 -0.4546
   70SLPC  H13A 5965   3.414   4.395  10.986  1.1512 -0.8165 -0.4788
   70SLPC  H13B 5966   3.578   4.443  11.006 -0.5040 -1.7691 -1.8304
   70SLPC  H13C 5967   3.440   4.554  11.048 -2.0594 -1.0034 -0.2232
   70SLPC   C14 5968   3.563   4.644  10.821  0.0725 -0.7180  0.0605
   70SLPC  H14A 5969   3.522   4.736  10.860 -0.6659 -1.7077  1.6771
   70SLPC  H14B 5970   3.659   4.626  10.867  0.0549 -0.7784  0.0732
   70SLPC  H14C 5971   3.573   4.666  10.716 -1.2695 -2.6072 -0.4965
   70SLPC   C15 5972   3.331   4.570  10.809  1.3444  0.0979  1.1401
   70SLPC  H15A 5973   3.292   4.638  10.883 -0.7450  0.1300  0.0485
   70SLPC  H15B 5974   3.319   4.634  10.723 -0.7967  1.5676  2.4766
   70SLPC  H15C 5975   3.265   4.486  10.798  0.5072  1.0864 -1.6870
   70SLPC   C12 5976   3.512   4.414  10.746 -0.3131  1.0213  0.5213
   70SLPC  H12A 5977   3.607   4.368  10.770 -1.0582  0.0165  1.5902
   70SLPC  H12B 5978   3.532   4.458  10.649  0.6978  0.5121  0.4864
   70SLPC   C11 5979   3.427   4.289  10.719  0.6587 -0.1830  0.0793
   70SLPC  H11A 5980   3.471   4.238  10.630 -2.5735 -1.0409 -1.0837
   70SLPC  H11B 5981   3.325   4.319  10.686  0.7124  1.5465  1.4357
   70SLPC     P 5982   3.430   4.052  10.818  0.0283 -0.2371 -0.3509
   70SLPC   O13 5983   3.570   4.020  10.810 -0.0034  0.7282  0.1715
   70SLPC   O14 5984   3.348   3.978  10.921  0.2104 -0.4233  0.2805
   70SLPC   O12 5985   3.415   4.209  10.832  0.2592 -0.0059  0.0325
   70SLPC   O11 5986   3.366   4.020  10.675  0.5685  0.3422  0.3192
   70SLPC    C1 5987   3.226   4.042  10.645 -0.5057 -0.7095 -0.1452
   70SLPC    HA 5988   3.172   4.079  10.735 -0.7109 -1.6191  0.1046
   70SLPC    HB 5989   3.218   4.115  10.561  1.1304  0.0726  0.3667
   70SLPC    C2 5990   3.149   3.913  10.612 -0.4520 -0.1436  0.2852
   70SLPC    HS 5991   3.165   3.843  10.697 -0.9645 -1.9946 -1.1078
   70SLPC   O21 5992   3.206   3.872  10.487 -0.5188 -0.2407  0.2006
   70SLPC   C21 5993   3.293   3.771  10.488  0.7695 -0.2005  0.1768
   70SLPC   O22 5994   3.342   3.712  10.585  0.0470  0.3175 -0.0222
   70SLPC   C22 5995   3.348   3.751  10.344  0.3731 -0.0506  0.1946
   70SLPC   H2R 5996   3.333   3.836  10.274  1.4396 -0.3133 -0.3658
   70SLPC   H2S 5997   3.456   3.744  10.369  0.6674  0.5334 -0.8633
   70SLPC    C3 5998   3.007   3.956  10.590  0.6294 -0.4623  0.0093
   70SLPC    HX 5999   2.968   3.998  10.685 -0.5665  0.6475 -0.9574
   70SLPC    HY 6000   2.949   3.861  10.582 -2.5935  1.4296  0.0443
   70SLPC   O31 6001   2.982   4.046  10.486 -0.6761  0.4819  0.1297
   70SLPC   C31 6002   2.948   3.981  10.373 -0.2675  0.0655  0.0021
   70SLPC   O32 6003   2.971   3.867  10.347 -0.3258  0.0279 -0.0008
   70SLPC   C32 6004   2.885   4.085  10.273  0.1600 -0.1630  0.9524
   70SLPC   H2X 6005   2.956   4.169  10.255  0.7396 -1.4968 -3.6836
   70SLPC   H2Y 6006   2.794   4.128  10.320 -0.5715  1.8680 -2.1514
   70SLPC   C23 6007   3.286   3.618  10.283 -0.0302 -0.4305 -0.2133
   70SLPC   H3R 6008   3.183   3.631  10.246 -0.0292 -3.8506 -1.6601
   70SLPC   H3S 6009   3.280   3.549  10.371  1.6452  0.7356  0.8299
   70SLPC   C24 6010   3.391   3.554  10.189 -0.0379 -0.1368  0.4779
   70SLPC   H4R 6011   3.342   3.460  10.157 -1.8778  0.7296  0.6893
   70SLPC   H4S 6012   3.479   3.535  10.255 -0.0650 -0.3866  0.4411
   70SLPC   C25 6013   3.418   3.653  10.082 -0.7037 -1.1553 -0.2740
   70SLPC   H5R 6014   3.498   3.726  10.105 -0.3820 -1.1871 -1.2561
   70SLPC   H5S 6015   3.328   3.709  10.051 -0.4704 -0.3251  0.5299
   70SLPC   C26 6016   3.462   3.583   9.948 -0.2608  0.2071 -0.1159
   70SLPC   H6R 6017   3.540   3.508   9.974 -0.6767 -0.1058  0.2409
   70SLPC   H6S 6018   3.516   3.664   9.894  0.2470  0.0867  0.2054
   70SLPC   C27 6019   3.353   3.523   9.875 -0.1652  0.3801 -0.1987
   70SLPC   H7R 6020   3.273   3.598   9.859  0.0534  1.2756  2.7672
   70SLPC   H7S 6021   3.303   3.449   9.942  0.0627 -0.9221 -1.4351
   70SLPC   C28 6022   3.403   3.475   9.740 -0.3161 -0.2429 -0.1398
   70SLPC   H8R 6023   3.317   3.414   9.705 -0.7979 -0.3719  1.2523
   70SLPC   H8S 6024   3.491   3.407   9.738  1.0219  1.4227  0.5908
   70SLPC   C29 6025   3.420   3.590   9.639 -0.1046  0.8785 -0.1795
   70SLPC   H9R 6026   3.491   3.670   9.664 -0.1658  1.3288 -1.4570
   70SLPC  C210 6027   3.355   3.606   9.525 -0.2805  0.7846 -0.5288
   70SLPC  H10R 6028   3.377   3.698   9.469 -3.5791  1.2619 -1.1829
   70SLPC  C211 6029   3.238   3.524   9.470  0.2698  0.4002 -0.3854
   70SLPC  H11R 6030   3.188   3.462   9.548 -2.5656  3.5075  0.4086
   70SLPC  H11S 6031   3.276   3.460   9.387 -0.5641 -0.0444 -0.4398
   70SLPC  C212 6032   3.141   3.621   9.408 -0.4683  0.3351 -0.5738
   70SLPC  H12R 6033   3.073   3.674   9.477 -0.3512  0.6863 -0.7251
   70SLPC  C213 6034   3.110   3.642   9.278 -0.0434 -0.1129  0.7266
   70SLPC  H13R 6035   3.037   3.723   9.262 -0.9703 -0.9819  0.5221
   70SLPC  C214 6036   3.169   3.587   9.153  0.6478  0.5491 -0.2775
   70SLPC  H14R 6037   3.188   3.477   9.150 -0.1335  0.4096 -0.4279
   70SLPC  H14S 6038   3.263   3.641   9.132  0.4985  0.5185 -1.0781
   70SLPC  C215 6039   3.059   3.596   9.040  0.0127 -0.4418  0.2623
   70SLPC  H15R 6040   3.023   3.701   9.046 -2.3786 -1.3519  2.8859
   70SLPC  H15S 6041   2.971   3.530   9.057 -1.0878  1.2373  1.2053
   70SLPC  C216 6042   3.106   3.564   8.898 -0.2004 -0.3429  0.1382
   70SLPC  H16R 6043   3.181   3.482   8.907 -0.9279 -1.1446 -1.0341
   70SLPC  H16S 6044   3.165   3.652   8.863 -0.8397 -0.3998 -1.1286
   70SLPC  C217 6045   2.998   3.544   8.785  0.1891  0.3374 -0.3896
   70SLPC  H17R 6046   2.936   3.457   8.815  0.5508  0.5368  1.0039
   70SLPC  H17S 6047   3.054   3.525   8.692  1.7173  0.9126  0.3984
   70SLPC  C218 6048   2.910   3.665   8.764 -0.2499  0.6161  0.0161
   70SLPC  H18R 6049   2.850   3.708   8.848  2.3142  3.4627  0.4985
   70SLPC  H18S 6050   2.843   3.638   8.680 -0.1880  0.1474  0.1153
   70SLPC  H18T 6051   2.968   3.750   8.721 -0.0348  0.8829  0.8083
   70SLPC   C33 6052   2.818   4.021  10.147  0.4414 -0.7342 -0.2106
   70SLPC   H3X 6053   2.727   3.963  10.174  0.4234 -0.1275  1.0407
   70SLPC   H3Y 6054   2.888   3.941  10.112  1.3917 -0.9689  2.1323
   70SLPC   C34 6055   2.782   4.117  10.030 -0.4624  0.3111 -0.2838
   70SLPC   H4X 6056   2.876   4.175  10.017 -0.3895  0.1675 -0.3983
   70SLPC   H4Y 6057   2.703   4.191  10.055  0.5254  0.7097  1.7642
   70SLPC   C35 6058   2.757   4.048   9.895  0.9754  0.0835  0.4344
   70SLPC   H5X 6059   2.677   3.971   9.907  1.9056 -1.2461 -1.6394
   70SLPC   H5Y 6060   2.847   4.000   9.850  1.6554  1.1756  0.6078
   70SLPC   C36 6061   2.687   4.143   9.803 -0.8544  0.0135  0.7146
   70SLPC   H6X 6062   2.749   4.231   9.775 -0.4511  0.1414  1.9469
   70SLPC   H6Y 6063   2.596   4.167   9.861  0.4237 -1.5162  3.4978
   70SLPC   C37 6064   2.648   4.077   9.670  0.8654  0.1688  0.0120
   70SLPC   H7X 6065   2.586   3.988   9.693  1.5630 -0.8198 -1.7623
   70SLPC   H7Y 6066   2.736   4.036   9.616  0.9555  1.6611 -1.0264
   70SLPC   C38 6067   2.580   4.167   9.568 -0.1639 -0.1297 -0.6240
   70SLPC   H8X 6068   2.636   4.261   9.556 -0.0615 -0.0413  0.4957
   70SLPC   H8Y 6069   2.479   4.190   9.608 -0.3338  0.6762 -1.5032
   70SLPC   C39 6070   2.568   4.096   9.431  0.3380  0.1146 -0.5130
   70SLPC   H9X 6071   2.518   3.998   9.444 -1.6491  1.3401  1.4397
   70SLPC   H9Y 6072   2.668   4.072   9.388 -0.3476 -0.0597 -2.0366
   70SLPC  C310 6073   2.492   4.171   9.312 -0.0939 -0.3553 -0.5551
   70SLPC  H10X 6074   2.542   4.265   9.279 -0.0389 -0.1701  0.0382
   70SLPC  H10Y 6075   2.400   4.216   9.356  0.0057 -0.5144 -0.1861
   70SLPC  C311 6076   2.450   4.085   9.195 -0.1310 -0.0775  0.1150
   70SLPC  H11X 6077   2.404   3.990   9.230  1.7136 -1.5724 -1.3850
   70SLPC  H11Y 6078   2.540   4.049   9.140 -0.1099 -0.3040  0.3003
   70SLPC  C312 6079   2.346   4.156   9.114  0.1008 -0.3834 -0.1332
   70SLPC  H12X 6080   2.378   4.261   9.094 -1.3175  0.4184  1.7268
   70SLPC  H12Y 6081   2.262   4.179   9.183  0.9516  1.7764  0.2243
   70SLPC  C313 6082   2.291   4.078   8.994 -0.3739  0.0799 -0.2143
   70SLPC  H13X 6083   2.270   3.976   9.034  2.3438 -1.9485 -3.7369
   70SLPC  H13Y 6084   2.374   4.065   8.922  0.1938 -0.1214  0.4653
   70SLPC  C314 6085   2.162   4.148   8.934 -0.3965  0.1150  0.0365
   70SLPC  H14X 6086   2.183   4.253   8.904 -0.7854  0.8006  2.0462
   70SLPC  H14Y 6087   2.088   4.154   9.017 -1.1079 -0.4422 -0.5478
   70SLPC  C315 6088   2.096   4.065   8.824 -0.2242  0.0898 -0.1621
   70SLPC  H15X 6089   2.155   4.066   8.731  1.1482 -2.8958  0.6305
   70SLPC  H15Y 6090   1.994   4.108   8.813 -0.6839 -0.2433  2.3952
   70SLPC  C316 6091   2.081   3.917   8.845  0.4447  0.6077  0.0573
   70SLPC  H16X 6092   2.022   3.892   8.937  2.1878  0.4647  1.1499
   70SLPC  H16Y 6093   2.182   3.875   8.864  0.2078  0.3551  0.8121
   70SLPC  C317 6094   2.009   3.845   8.728  0.5320  0.8405 -0.3227
   70SLPC  H17X 6095   1.991   3.743   8.766  1.1108  1.9160  2.9511
   70SLPC  H17Y 6096   2.076   3.849   8.639  0.6170  1.8798 -0.2217
   70SLPC  C318 6097   1.873   3.910   8.689 -0.2969 -0.3268 -0.1035
   70SLPC  H18X 6098   1.810   3.923   8.780  0.7774  1.4662  0.4225
   70SLPC  H18Y 6099   1.833   3.841   8.612  1.1281  0.7955 -1.9057
   70SLPC  H18Z 6100   1.894   4.015   8.661  0.5262 -0.7552 -1.0925
   71SLPC     N 6101   2.818   2.654  11.234  0.2343 -0.2081 -0.1580
   71SLPC   C13 6102   2.829   2.511  11.204 -0.0527  0.4973 -0.1637
   71SLPC  H13A 6103   2.919   2.468  11.247  1.7542  1.7207 -2.6049
   71SLPC  H13B 6104   2.754   2.449  11.251  0.8777 -0.4811  0.0469
   71SLPC  H13C 6105   2.834   2.491  11.098  1.2719 -0.7106  0.1090
   71SLPC   C14 6106   2.859   2.683  11.375  0.0475  0.3142 -0.4704
   71SLPC  H14A 6107   2.786   2.630  11.433  1.5562 -0.7878  0.4475
   71SLPC  H14B 6108   2.957   2.645  11.399 -0.1216  0.4473  0.4524
   71SLPC  H14C 6109   2.861   2.789  11.394 -0.5372 -0.2240  2.8125
   71SLPC   C15 6110   2.670   2.690  11.220  0.0276 -0.2744 -0.0528
   71SLPC  H15A 6111   2.650   2.796  11.226  1.1972 -0.0541 -0.0495
   71SLPC  H15B 6112   2.641   2.663  11.119 -1.5223 -0.7045  0.4852
   71SLPC  H15C 6113   2.615   2.639  11.298 -0.8359 -1.5658 -1.4753
   71SLPC   C12 6114   2.907   2.726  11.135 -0.4270 -0.7032 -0.3524
   71SLPC  H12A 6115   3.007   2.719  11.176 -0.2010  0.7053 -0.6381
   71SLPC  H12B 6116   2.879   2.831  11.137 -1.5812 -0.9986 -0.4158
   71SLPC   C11 6117   2.907   2.697  10.984 -0.0777  0.3774 -0.1283
   71SLPC  H11A 6118   2.942   2.592  10.986  0.9577  0.7387  0.7654
   71SLPC  H11B 6119   2.978   2.761  10.927  0.6313 -0.9988 -0.8085
   71SLPC     P 6120   2.709   2.609  10.842 -0.3617  0.0850 -0.1139
   71SLPC   O13 6121   2.720   2.477  10.905  0.2492 -0.5142  0.5432
   71SLPC   O14 6122   2.573   2.664  10.822  0.2151  0.2380 -0.2525
   71SLPC   O12 6123   2.775   2.719  10.936 -0.4059  0.2725  0.3256
   71SLPC   O11 6124   2.798   2.614  10.709  0.1845  0.1172 -0.1382
   71SLPC    C1 6125   2.782   2.722  10.611 -0.5288  0.1008  0.7463
   71SLPC    HA 6126   2.750   2.815  10.662  0.9535  0.8497  0.3223
   71SLPC    HB 6127   2.876   2.743  10.556 -2.2495  1.0486 -1.9714
   71SLPC    C2 6128   2.687   2.684  10.491 -0.7814 -0.3903  0.2222
   71SLPC    HS 6129   2.592   2.652  10.540 -0.6515 -0.9009  0.1364
   71SLPC   O21 6130   2.746   2.574  10.417  0.4268 -0.2864  0.0245
   71SLPC   C21 6131   2.657   2.516  10.335  0.3067  0.0088  0.0135
   71SLPC   O22 6132   2.536   2.541  10.336 -0.0305  0.1638  0.3670
   71SLPC   C22 6133   2.721   2.416  10.245  0.3876  0.0144  0.1499
   71SLPC   H2R 6134   2.819   2.455  10.212 -1.3806  3.2068 -1.5555
   71SLPC   H2S 6135   2.717   2.323  10.306 -2.5644  1.3135  2.0600
   71SLPC    C3 6136   2.677   2.813  10.396 -0.4396 -0.3891 -0.0968
   71SLPC    HX 6137   2.783   2.832  10.367 -1.3774  2.0009 -2.1750
   71SLPC    HY 6138   2.654   2.896  10.466 -1.1146  0.7081 -1.5966
   71SLPC   O31 6139   2.594   2.785  10.280  0.1619 -0.1753 -0.1533
   71SLPC   C31 6140   2.473   2.846  10.290 -0.0101 -0.2478 -0.0689
   71SLPC   O32 6141   2.447   2.944  10.358  0.3327  0.2066  0.1731
   71SLPC   C32 6142   2.369   2.785  10.194 -0.2629 -0.5937  0.1483
   71SLPC   H2X 6143   2.281   2.852  10.194 -1.7169 -2.4706  1.2593
   71SLPC   H2Y 6144   2.353   2.681  10.227  1.5444 -0.6483  0.9064
   71SLPC   C23 6145   2.644   2.416  10.109  0.1408 -0.2300 -0.7046
   71SLPC   H3R 6146   2.638   2.515  10.057  1.7047 -1.0712 -2.5717
   71SLPC   H3S 6147   2.540   2.381  10.128 -0.6450  1.8606 -1.0003
   71SLPC   C24 6148   2.692   2.331   9.996 -0.2110  0.4052  0.2114
   71SLPC   H4R 6149   2.715   2.225  10.021  0.9400  0.0756 -2.0854
   71SLPC   H4S 6150   2.792   2.372   9.970 -0.0549 -0.3755 -0.4382
   71SLPC   C25 6151   2.606   2.325   9.865 -0.1934 -0.6464 -0.0350
   71SLPC   H5R 6152   2.570   2.426   9.835  3.6746  1.0194  0.6066
   71SLPC   H5S 6153   2.512   2.268   9.881 -0.5226  0.3016  1.4562
   71SLPC   C26 6154   2.667   2.263   9.743  0.1038 -0.1554  0.1480
   71SLPC   H6R 6155   2.680   2.153   9.753  0.8220  0.0824  1.8216
   71SLPC   H6S 6156   2.769   2.298   9.718 -0.2091  0.0754 -0.8423
   71SLPC   C27 6157   2.570   2.281   9.625 -0.2942  0.4862  0.7455
   71SLPC   H7R 6158   2.559   2.389   9.599  0.6810  0.5718  0.6643
   71SLPC   H7S 6159   2.470   2.237   9.640  0.4264 -1.4542 -0.0292
   71SLPC   C28 6160   2.623   2.200   9.504 -0.0049  0.3370  0.3454
   71SLPC   H8R 6161   2.533   2.177   9.444 -1.4058 -1.8789  3.2034
   71SLPC   H8S 6162   2.658   2.100   9.538  0.1019  0.7355  1.4313
   71SLPC   C29 6163   2.727   2.277   9.424  0.4573  0.3019 -0.2876
   71SLPC   H9R 6164   2.819   2.308   9.476  0.3569  1.3622 -0.7140
   71SLPC  C210 6165   2.712   2.309   9.294  0.1995 -0.2004 -0.7302
   71SLPC  H10R 6166   2.787   2.363   9.234  2.0410 -1.0592  0.7164
   71SLPC  C211 6167   2.602   2.261   9.203 -0.5389  0.5005 -0.0270
   71SLPC  H11R 6168   2.510   2.320   9.221 -0.4920  0.2240  1.1554
   71SLPC  H11S 6169   2.594   2.152   9.224  0.4426 -0.0987 -2.6269
   71SLPC  C212 6170   2.635   2.289   9.054  0.8222 -0.5667 -0.4560
   71SLPC  H12R 6171   2.583   2.377   9.013 -2.4036 -1.0247  2.4192
   71SLPC  C213 6172   2.701   2.211   8.972 -0.5758 -0.0930  0.3444
   71SLPC  H13R 6173   2.716   2.247   8.869  1.0127 -0.4249  0.4554
   71SLPC  C214 6174   2.761   2.078   9.007  0.2825  0.0754 -0.1681
   71SLPC  H14R 6175   2.687   1.996   9.015 -0.1085  0.4337 -0.0860
   71SLPC  H14S 6176   2.811   2.079   9.106 -2.5728  0.2948  1.3150
   71SLPC  C215 6177   2.862   2.046   8.896  0.0384  0.1884  0.1139
   71SLPC  H15R 6178   2.802   2.042   8.803  0.1763  0.0324  0.0302
   71SLPC  H15S 6179   2.909   1.948   8.914 -0.6034  0.3905  3.1120
   71SLPC  C216 6180   2.969   2.158   8.876 -0.0761  0.4077  0.1375
   71SLPC  H16R 6181   2.916   2.247   8.834  0.0514  0.1710 -0.5324
   71SLPC  H16S 6182   3.033   2.118   8.794 -0.5230 -0.4354  0.1921
   71SLPC  C217 6183   3.045   2.181   9.001 -0.0334  0.1439  0.1117
   71SLPC  H17R 6184   3.081   2.088   9.051 -0.9291 -0.5109 -0.4489
   71SLPC  H17S 6185   2.972   2.229   9.069  0.9652 -0.6880  1.8153
   71SLPC  C218 6186   3.156   2.282   8.973  0.3399 -0.0616  0.0853
   71SLPC  H18R 6187   3.218   2.293   9.064  2.7738 -0.1385 -1.5139
   71SLPC  H18S 6188   3.117   2.383   8.949 -2.2427 -1.2967 -1.1086
   71SLPC  H18T 6189   3.231   2.250   8.898 -1.3179  0.2100 -1.7505
   71SLPC   C33 6190   2.420   2.791  10.049  0.0398 -0.3852 -0.3791
   71SLPC   H3X 6191   2.528   2.763  10.045  0.3481  0.5473  0.8923
   71SLPC   H3Y 6192   2.416   2.895  10.011  3.5156  0.8654  2.4129
   71SLPC   C34 6193   2.361   2.696   9.949 -0.3881  1.0200  0.9619
   71SLPC   H4X 6194   2.250   2.706   9.950 -0.4038  1.1081 -0.9514
   71SLPC   H4Y 6195   2.393   2.595   9.982  0.5658  0.6379 -1.0956
   71SLPC   C35 6196   2.422   2.725   9.813  0.3116 -0.7390 -0.3029
   71SLPC   H5X 6197   2.527   2.691   9.814  1.0670  1.5293  1.5940
   71SLPC   H5Y 6198   2.430   2.833   9.786 -1.6915 -0.9728 -2.0294
   71SLPC   C36 6199   2.366   2.640   9.701  0.4568  0.1656  0.4547
   71SLPC   H6X 6200   2.259   2.660   9.680  0.1428  0.3504  2.2038
   71SLPC   H6Y 6201   2.374   2.534   9.732  2.0676  0.5780  1.4960
   71SLPC   C37 6202   2.439   2.669   9.567 -0.4672 -0.1743  0.2664
   71SLPC   H7X 6203   2.547   2.642   9.566 -0.1442  0.9086  2.2942
   71SLPC   H7Y 6204   2.422   2.778   9.555  2.4352  0.1085 -1.7460
   71SLPC   C38 6205   2.364   2.621   9.445  0.0830 -0.0717 -0.2810
   71SLPC   H8X 6206   2.259   2.654   9.458 -0.2852 -1.3679  0.0716
   71SLPC   H8Y 6207   2.364   2.510   9.450  2.4062 -0.0662  0.4703
   71SLPC   C39 6208   2.422   2.659   9.308 -0.7375  0.1772  0.7992
   71SLPC   H9X 6209   2.532   2.644   9.301 -0.6904  1.6084 -2.6168
   71SLPC   H9Y 6210   2.411   2.768   9.288  0.8058 -0.0872 -1.7488
   71SLPC  C310 6211   2.360   2.577   9.200 -0.3802 -0.9123  0.4244
   71SLPC  H10X 6212   2.251   2.599   9.210 -0.5042 -1.0534 -0.5424
   71SLPC  H10Y 6213   2.368   2.467   9.203  1.6526 -0.7602  0.7977
   71SLPC  C311 6214   2.410   2.621   9.058 -0.2250  0.0865  0.0181
   71SLPC  H11X 6215   2.517   2.593   9.046 -0.0436  0.4729  0.7048
   71SLPC  H11Y 6216   2.403   2.732   9.052 -0.6589  0.0205 -0.8516
   71SLPC  C312 6217   2.332   2.552   8.947 -0.2255  0.2865  0.4702
   71SLPC  H12X 6218   2.225   2.577   8.960 -0.1563  0.4201  0.7986
   71SLPC  H12Y 6219   2.348   2.442   8.958  2.1770  0.5620  0.0267
   71SLPC  C313 6220   2.364   2.595   8.803 -0.4277 -0.7973  0.1676
   71SLPC  H13X 6221   2.472   2.576   8.787  0.1889  2.4761  0.0687
   71SLPC  H13Y 6222   2.359   2.705   8.789  0.3375 -0.9433 -1.3490
   71SLPC  C314 6223   2.283   2.524   8.687  0.5773  0.1110  0.3405
   71SLPC  H14X 6224   2.299   2.577   8.591  2.5441  0.0858  0.6288
   71SLPC  H14Y 6225   2.176   2.529   8.714 -0.1187  0.0704 -2.2722
   71SLPC  C315 6226   2.319   2.375   8.665 -0.3087  0.6258 -0.3860
   71SLPC  H15X 6227   2.326   2.313   8.758  3.5567  0.7016 -0.5427
   71SLPC  H15Y 6228   2.421   2.368   8.622  0.5666 -0.0995  1.7213
   71SLPC  C316 6229   2.222   2.302   8.570  0.5897  0.3419 -0.1434
   71SLPC  H16X 6230   2.208   2.355   8.474 -1.3494 -0.3914 -0.3035
   71SLPC  H16Y 6231   2.122   2.289   8.618  1.5311 -1.1202  1.4495
   71SLPC  C317 6232   2.274   2.157   8.532 -0.5831  0.0431  0.7083
   71SLPC  H17X 6233   2.366   2.166   8.471 -1.4260 -0.4151 -0.6681
   71SLPC  H17Y 6234   2.201   2.109   8.464  0.3037 -2.9400  1.7494
   71SLPC  C318 6235   2.295   2.057   8.641 -0.9347  0.2462  0.6574
   71SLPC  H18X 6236   2.220   1.976   8.641 -1.0068  0.3119 -0.4434
   71SLPC  H18Y 6237   2.291   2.086   8.748  1.1238  0.2533  0.7475
   71SLPC  H18Z 6238   2.393   2.008   8.625 -1.5878 -0.3342 -1.7740
   72SLPC     N 6239   3.863   1.429  10.859 -0.4622 -0.0927  0.5606
   72SLPC   C13 6240   3.988   1.335  10.862  0.9806  0.6380  0.3155
   72SLPC  H13A 6241   4.023   1.315  10.761 -1.1687 -0.2507 -0.2861
   72SLPC  H13B 6242   4.049   1.357  10.948  0.2381  2.2650  0.4380
   72SLPC  H13C 6243   3.950   1.236  10.881  0.7325  0.5832 -0.4736
   72SLPC   C14 6244   3.914   1.574  10.859 -0.2534 -0.5428  0.1216
   72SLPC  H14A 6245   3.835   1.642  10.886 -1.4426 -2.4524  1.6678
   72SLPC  H14B 6246   3.992   1.597  10.930 -1.0832 -1.6514  1.4282
   72SLPC  H14C 6247   3.947   1.599  10.759 -1.6084 -0.7186 -0.3790
   72SLPC   C15 6248   3.778   1.399  10.980 -0.0248  0.3780  1.1563
   72SLPC  H15A 6249   3.690   1.462  10.975 -0.4366 -0.2105  0.9941
   72SLPC  H15B 6250   3.743   1.297  10.974  1.6221 -0.1643  0.2884
   72SLPC  H15C 6251   3.833   1.418  11.072 -1.4577 -0.0888  2.1226
   72SLPC   C12 6252   3.797   1.393  10.727  0.0056 -0.1865  0.2997
   72SLPC  H12A 6253   3.867   1.403  10.646  0.2857 -1.7754  0.3370
   72SLPC  H12B 6254   3.728   1.473  10.703  1.6743  1.0861 -0.3798
   72SLPC   C11 6255   3.715   1.261  10.710 -0.0930  0.1901 -0.2256
   72SLPC  H11A 6256   3.670   1.256  10.609  2.2653 -1.0193 -1.2337
   72SLPC  H11B 6257   3.636   1.262  10.788 -1.0171  1.5117 -1.1559
   72SLPC     P 6258   3.892   1.084  10.617 -0.2461 -0.2772  0.0983
   72SLPC   O13 6259   3.986   1.193  10.574 -0.3676 -0.2826 -0.0582
   72SLPC   O14 6260   3.954   0.970  10.686  0.0482 -0.5564  0.2913
   72SLPC   O12 6261   3.790   1.142  10.728 -0.9593  0.0467 -0.0657
   72SLPC   O11 6262   3.790   1.043  10.500 -0.1304 -0.4679 -0.3766
   72SLPC    C1 6263   3.695   0.939  10.535 -0.0948 -0.4440 -0.3759
   72SLPC    HA 6264   3.714   0.884  10.630  1.5843  2.5538  1.1109
   72SLPC    HB 6265   3.592   0.980  10.542 -0.9883 -2.6216 -0.3661
   72SLPC    C2 6266   3.690   0.830  10.423 -0.2651  0.2881  0.5823
   72SLPC    HS 6267   3.783   0.769  10.424 -1.3718 -1.4215  0.9515
   72SLPC   O21 6268   3.678   0.901  10.298  0.1577 -0.3273  0.0465
   72SLPC   C21 6269   3.722   0.841  10.190  1.0223  0.1120  0.0389
   72SLPC   O22 6270   3.778   0.734  10.186 -0.0041 -0.1734  0.0613
   72SLPC   C22 6271   3.695   0.926  10.067  0.1687  0.1941 -0.3801
   72SLPC   H2R 6272   3.590   0.961  10.064  0.0094  0.0102  2.0679
   72SLPC   H2S 6273   3.754   1.020  10.081  1.0356 -0.5017  0.6526
   72SLPC    C3 6274   3.563   0.738  10.447 -0.6344 -0.5907 -0.5792
   72SLPC    HX 6275   3.470   0.794  10.469 -1.8287 -2.3952 -0.9706
   72SLPC    HY 6276   3.591   0.681  10.538 -2.1061  0.2498  0.4239
   72SLPC   O31 6277   3.535   0.648  10.330  0.5107 -0.2784  0.3070
   72SLPC   C31 6278   3.617   0.538  10.329  0.4045 -0.0426  0.5323
   72SLPC   O32 6279   3.708   0.516  10.411 -0.4162  0.3564 -0.2724
   72SLPC   C32 6280   3.563   0.444  10.223 -0.0685 -0.5771 -0.7295
   72SLPC   H2X 6281   3.623   0.351  10.228  1.1637  0.3049  1.6477
   72SLPC   H2Y 6282   3.589   0.497  10.128 -0.5228  2.9512  1.0475
   72SLPC   C23 6283   3.743   0.853   9.944 -0.3061  0.9405 -0.2642
   72SLPC   H3R 6284   3.708   0.748   9.937 -1.6715  1.3066  0.8326
   72SLPC   H3S 6285   3.854   0.857   9.944 -0.2667  0.4303  1.3362
   72SLPC   C24 6286   3.677   0.911   9.822  0.2644  0.6116  0.4158
   72SLPC   H4R 6287   3.712   1.014   9.798  0.9532 -0.2110 -2.2499
   72SLPC   H4S 6288   3.567   0.919   9.836  0.3845 -0.1544  1.8867
   72SLPC   C25 6289   3.705   0.832   9.697 -0.2304  0.5856 -0.1416
   72SLPC   H5R 6290   3.640   0.870   9.615  0.5951 -2.7586 -2.4717
   72SLPC   H5S 6291   3.688   0.722   9.705  1.1059  0.3775 -0.0985
   72SLPC   C26 6292   3.846   0.859   9.647 -0.1310  0.1042  0.6284
   72SLPC   H6R 6293   3.911   0.793   9.708 -0.0696  0.2089  0.6759
   72SLPC   H6S 6294   3.883   0.963   9.662  1.2025 -0.1455 -0.8545
   72SLPC   C27 6295   3.868   0.808   9.506  0.4373  0.4798  0.6638
   72SLPC   H7R 6296   3.971   0.827   9.469  0.8846  0.2627  1.7935
   72SLPC   H7S 6297   3.806   0.868   9.437 -2.5560 -1.3686  1.6272
   72SLPC   C28 6298   3.819   0.663   9.478 -0.0474  0.0870 -0.3328
   72SLPC   H8R 6299   3.709   0.666   9.497 -0.1380  2.8366 -1.0095
   72SLPC   H8S 6300   3.875   0.597   9.547 -1.0230 -0.2449  0.1485
   72SLPC   C29 6301   3.842   0.615   9.335  0.5000  0.3184 -0.2044
   72SLPC   H9R 6302   3.933   0.555   9.326  1.1292  1.0524  1.1062
   72SLPC  C210 6303   3.762   0.623   9.224 -0.2167 -0.0517 -0.9882
   72SLPC  H10R 6304   3.785   0.577   9.126  3.1135 -1.9027  0.5631
   72SLPC  C211 6305   3.633   0.703   9.224  0.6018  0.3950 -0.2813
   72SLPC  H11R 6306   3.642   0.776   9.141 -0.6424  0.9831  0.0940
   72SLPC  H11S 6307   3.626   0.751   9.324  0.0678 -2.0815  0.9098
   72SLPC  C212 6308   3.511   0.614   9.203 -0.4539  0.9049 -0.3185
   72SLPC  H12R 6309   3.439   0.611   9.286 -0.6949 -1.5233 -0.5746
   72SLPC  C213 6310   3.469   0.566   9.085 -0.3589 -0.6032  0.1591
   72SLPC  H13R 6311   3.372   0.516   9.069 -0.2683 -0.6904 -0.1303
   72SLPC  C214 6312   3.544   0.590   8.955  0.4200  0.0413 -0.0083
   72SLPC  H14R 6313   3.616   0.506   8.943 -1.2026 -1.5535  1.3065
   72SLPC  H14S 6314   3.609   0.680   8.947  0.6972 -0.0699  0.9660
   72SLPC  C215 6315   3.445   0.599   8.832  0.0202 -0.2037 -0.7759
   72SLPC  H15R 6316   3.386   0.506   8.813 -1.1617  0.1394  1.0889
   72SLPC  H15S 6317   3.521   0.603   8.751  0.0339 -0.4112 -0.7725
   72SLPC  C216 6318   3.363   0.728   8.827 -0.1134  0.0961  0.3007
   72SLPC  H16R 6319   3.439   0.808   8.822 -0.4185  0.3859  0.3129
   72SLPC  H16S 6320   3.307   0.737   8.923  0.5880 -1.1469  0.8361
   72SLPC  C217 6321   3.275   0.741   8.699  0.1149  0.2385  0.2897
   72SLPC  H17R 6322   3.246   0.845   8.674 -1.1262 -0.2731 -0.4165
   72SLPC  H17S 6323   3.187   0.674   8.711  0.3967 -0.1992 -0.0692
   72SLPC  C218 6324   3.352   0.686   8.578 -0.2032  0.0005 -0.6770
   72SLPC  H18R 6325   3.361   0.577   8.597  0.2690  0.5192  2.5317
   72SLPC  H18S 6326   3.449   0.740   8.588 -0.5509  0.4729  0.3336
   72SLPC  H18T 6327   3.290   0.703   8.488  0.7568  1.1386 -1.1337
   72SLPC   C33 6328   3.411   0.419  10.230  1.0666  0.3622  0.0012
   72SLPC   H3X 6329   3.353   0.514  10.233 -2.2559 -1.5621  5.7586
   72SLPC   H3Y 6330   3.378   0.359  10.318 -0.6730 -0.0537 -0.9164
   72SLPC   C34 6331   3.383   0.357  10.092 -0.9994  0.0101 -0.2682
   72SLPC   H4X 6332   3.452   0.271  10.093  0.1177  0.9097  0.9634
   72SLPC   H4Y 6333   3.411   0.433  10.016  1.2835  2.4700  2.8967
   72SLPC   C35 6334   3.240   0.296  10.083  0.6902  0.7306  0.3091
   72SLPC   H5X 6335   3.174   0.384  10.093  1.8761  1.7518 -0.7034
   72SLPC   H5Y 6336   3.215   0.251  10.181  1.3829  0.0318  0.1662
   72SLPC   C36 6337   3.218   0.201   9.967  0.1639  0.0020 -0.6807
   72SLPC   H6X 6338   3.116   0.158   9.955 -0.5432  0.7666  2.1801
   72SLPC   H6Y 6339   3.273   0.104   9.976 -0.2604 -0.1167  0.8877
   72SLPC   C37 6340   3.255   0.258   9.833 -0.8703  0.5266 -0.1235
   72SLPC   H7X 6341   3.365   0.266   9.816 -0.2395 -2.8358  1.9885
   72SLPC   H7Y 6342   3.211   0.359   9.818 -0.0135  0.7024 -1.6708
   72SLPC   C38 6343   3.196   0.173   9.719  0.4062  0.8049  0.3740
   72SLPC   H8X 6344   3.088   0.155   9.740  0.7663 -1.1234  0.6851
   72SLPC   H8Y 6345   3.231   0.068   9.714 -1.0244  0.3611 -0.7786
   72SLPC   C39 6346   3.223   0.237   9.584  0.1824 -0.2799 -0.0235
   72SLPC   H9X 6347   3.322   0.285   9.567 -0.4282  1.0166  0.1113
   72SLPC   H9Y 6348   3.148   0.318   9.571  1.4272  0.7144 -1.1671
   72SLPC  C310 6349   3.223   0.136   9.469 -0.0337 -0.0832 -0.3566
   72SLPC  H10X 6350   3.122   0.091   9.468  0.2209 -0.6732  0.2870
   72SLPC  H10Y 6351   3.306   0.064   9.485 -1.8008 -1.7382  1.5549
   72SLPC  C311 6352   3.252   0.201   9.324  0.0681  0.3322 -0.0562
   72SLPC  H11X 6353   3.325   0.130   9.281  0.9040  0.7650  0.6325
   72SLPC  H11Y 6354   3.302   0.299   9.338 -0.2732  0.7378 -1.6496
   72SLPC  C312 6355   3.134   0.212   9.224  0.3454  0.3246  0.1742
   72SLPC  H12X 6356   3.077   0.293   9.276  0.2360 -0.9000  2.0160
   72SLPC  H12Y 6357   3.074   0.119   9.224  0.6305  0.1388  0.3124
   72SLPC  C313 6358   3.172   0.255   9.084  0.1919  0.1905  0.2287
   72SLPC  H13X 6359   3.239   0.343   9.092  0.4398  0.0212  0.0004
   72SLPC  H13Y 6360   3.083   0.282   9.022  1.1625  0.9441 -0.8439
   72SLPC  C314 6361   3.255   0.150   9.004  0.2766 -0.4418 -0.3192
   72SLPC  H14X 6362   3.195   0.060   8.978 -1.0602  0.6698 -1.1426
   72SLPC  H14Y 6363   3.342   0.122   9.068  0.4919  1.0102  0.0411
   72SLPC  C315 6364   3.314   0.210   8.877  0.1146 -0.2095  0.9769
   72SLPC  H15X 6365   3.376   0.298   8.902 -0.9503  0.5822  0.8796
   72SLPC  H15Y 6366   3.230   0.247   8.814  1.3357 -0.1946 -0.6632
   72SLPC  C316 6367   3.402   0.115   8.792 -0.0113  0.2188  0.2436
   72SLPC  H16X 6368   3.353   0.019   8.767  0.3088 -0.2573  1.3872
   72SLPC  H16Y 6369   3.494   0.091   8.850 -0.9509  0.1039  1.7217
   72SLPC  C317 6370   3.448   0.169   8.651 -0.5390 -0.1908  0.6235
   72SLPC  H17X 6371   3.511   0.256   8.679  2.0698 -1.6948 -0.3900
   72SLPC  H17Y 6372   3.363   0.205   8.588  0.9408  1.1897 -0.6451
   72SLPC  C318 6373   3.528   0.071   8.576  0.5877 -0.4414 -0.7577
   72SLPC  H18X 6374   3.462  -0.014   8.548 -2.0023  1.2683  0.0432
   72SLPC  H18Y 6375   3.616   0.034   8.634  0.3125  1.5827  1.0365
   72SLPC  H18Z 6376   3.574   0.113   8.484 -2.1409  0.2701 -1.8313
   73SLPC     N 6377   3.747   6.579  11.073 -1.0196  0.0721  0.9156
   73SLPC   C13 6378   3.878   6.645  11.100  0.0073 -0.0681 -0.1683
   73SLPC  H13A 6379   3.953   6.568  11.103  1.7843  1.5844 -1.0833
   73SLPC  H13B 6380   3.919   6.720  11.034  1.2010  0.7113  1.4360
   73SLPC  H13C 6381   3.879   6.692  11.198 -0.2199 -1.4342  0.4997
   73SLPC   C14 6382   3.647   6.682  11.091  0.7522 -0.5011 -0.3442
   73SLPC  H14A 6383   3.554   6.644  11.053  1.2324 -0.0626 -2.0288
   73SLPC  H14B 6384   3.634   6.718  11.192 -0.7077  1.1708 -1.1148
   73SLPC  H14C 6385   3.662   6.764  11.022  0.8508  0.3540  0.6820
   73SLPC   C15 6386   3.725   6.476  11.174  0.5177  0.1152 -0.1254
   73SLPC  H15A 6387   3.722   6.520  11.272 -2.2840  1.2368 -0.6788
   73SLPC  H15B 6388   3.629   6.429  11.162 -1.0079  2.4916  2.3166
   73SLPC  H15C 6389   3.812   6.412  11.173  3.3162  3.7341 -2.5364
   73SLPC   C12 6390   3.746   6.527  10.934  0.0490  0.0076 -0.4325
   73SLPC  H12A 6391   3.781   6.609  10.874  1.2698  1.0894  1.7157
   73SLPC  H12B 6392   3.647   6.500  10.899  1.2430 -1.6628 -2.6743
   73SLPC   C11 6393   3.831   6.397  10.910  0.3610  0.9637 -0.1828
   73SLPC  H11A 6394   3.840   6.383  10.800 -0.1687 -1.5881  0.0751
   73SLPC  H11B 6395   3.767   6.320  10.959 -2.8970  3.3586 -0.4616
   73SLPC     P 6396   4.097   6.432  10.892  0.2702 -0.2476 -0.4565
   73SLPC   O13 6397   4.088   6.576  10.851  0.6257  0.1663 -0.1698
   73SLPC   O14 6398   4.211   6.394  10.973  0.5612  0.0280  0.4614
   73SLPC   O12 6399   3.964   6.402  10.973 -0.7096  0.2164  0.6085
   73SLPC   O11 6400   4.074   6.345  10.765  0.1381  0.0928  0.0705
   73SLPC    C1 6401   4.065   6.202  10.766  0.1152  0.8120  0.3319
   73SLPC    HA 6402   4.154   6.148  10.806 -0.0322 -1.3610 -2.0804
   73SLPC    HB 6403   3.977   6.166  10.823 -0.2733 -1.8426 -1.8280
   73SLPC    C2 6404   4.042   6.158  10.615 -0.2445 -0.0527 -0.1281
   73SLPC    HS 6405   4.134   6.191  10.562 -0.3546 -0.2110 -0.4217
   73SLPC   O21 6406   3.920   6.218  10.576 -0.3516  0.2510  0.1481
   73SLPC   C21 6407   3.911   6.238  10.445 -0.3665  0.4573  0.5163
   73SLPC   O22 6408   4.002   6.211  10.367  0.0915  0.1751  0.2045
   73SLPC   C22 6409   3.773   6.286  10.409 -0.1254  0.3698 -0.0363
   73SLPC   H2R 6410   3.710   6.194  10.410 -0.0406  0.2873 -1.8747
   73SLPC   H2S 6411   3.721   6.358  10.476 -0.7913  1.1450 -1.3753
   73SLPC    C3 6412   4.039   6.003  10.601  0.6687  0.0182  0.3091
   73SLPC    HX 6413   3.957   5.973  10.669  0.8973 -0.0357  0.5608
   73SLPC    HY 6414   4.131   5.963  10.648 -0.2526 -1.1168  1.1830
   73SLPC   O31 6415   4.009   5.954  10.469 -0.5778 -0.4836  0.2166
   73SLPC   C31 6416   4.101   5.927  10.381 -0.3264  0.9113  0.0845
   73SLPC   O32 6417   4.222   5.938  10.391 -0.0846 -0.2990  0.3779
   73SLPC   C32 6418   4.030   5.871  10.260 -0.1455  0.1944 -0.5432
   73SLPC   H2X 6419   3.937   5.932  10.259 -0.4663 -0.2780  0.0458
   73SLPC   H2Y 6420   3.991   5.769  10.281 -2.0049  0.4075 -2.7525
   73SLPC   C23 6421   3.768   6.355  10.271  0.3544  0.3146 -0.5416
   73SLPC   H3R 6422   3.837   6.443  10.267  1.0196 -0.2682 -2.1367
   73SLPC   H3S 6423   3.668   6.403  10.266 -0.0588 -0.3803  0.8469
   73SLPC   C24 6424   3.791   6.264  10.144  0.4083  0.0313 -0.3013
   73SLPC   H4R 6425   3.726   6.174  10.149  2.7168 -1.6722  0.3340
   73SLPC   H4S 6426   3.895   6.225  10.139 -0.2497 -1.6863 -0.9122
   73SLPC   C25 6427   3.758   6.324  10.008  0.1664  0.6435  0.4368
   73SLPC   H5R 6428   3.834   6.402   9.986  1.6069 -1.3059 -1.7584
   73SLPC   H5S 6429   3.666   6.386  10.014  0.6304  1.4725 -0.8251
   73SLPC   C26 6430   3.745   6.211   9.894  0.3657 -0.3144  0.1893
   73SLPC   H6R 6431   3.657   6.149   9.922 -0.3709  0.1602 -1.0447
   73SLPC   H6S 6432   3.836   6.148   9.879  0.9845  1.1685 -2.5320
   73SLPC   C27 6433   3.712   6.269   9.757  0.1168  0.3749  0.7867
   73SLPC   H7R 6434   3.614   6.320   9.766 -0.8228 -1.6112  2.0781
   73SLPC   H7S 6435   3.694   6.186   9.685 -0.9535  0.7073  0.6661
   73SLPC   C28 6436   3.824   6.368   9.690  0.1812 -0.3341 -0.7669
   73SLPC   H8R 6437   3.915   6.304   9.683  1.0696  0.7433  0.5648
   73SLPC   H8S 6438   3.838   6.443   9.771  0.4469 -1.6910  0.4486
   73SLPC   C29 6439   3.798   6.435   9.550 -1.4675  0.2237  0.1315
   73SLPC   H9R 6440   3.801   6.370   9.462  1.3009  0.2827  0.1208
   73SLPC  C210 6441   3.755   6.564   9.530  0.8619  0.3751  0.3889
   73SLPC  H10R 6442   3.741   6.598   9.426 -0.1540 -2.2025 -0.3490
   73SLPC  C211 6443   3.734   6.663   9.647 -0.0093  0.4191 -0.4520
   73SLPC  H11R 6444   3.814   6.740   9.649  0.4075  0.0022 -0.9426
   73SLPC  H11S 6445   3.749   6.615   9.746  0.1621 -0.1583 -0.7537
   73SLPC  C212 6446   3.606   6.735   9.642  1.4280  0.2214 -0.9684
   73SLPC  H12R 6447   3.513   6.687   9.674  1.2838  0.2763 -1.3111
   73SLPC  C213 6448   3.606   6.867   9.604 -1.0015  0.1525 -1.3942
   73SLPC  H13R 6449   3.506   6.913   9.612 -0.4768  1.1020 -0.0422
   73SLPC  C214 6450   3.719   6.960   9.560 -0.2808 -0.0049  0.9340
   73SLPC  H14R 6451   3.802   6.966   9.633  0.5759 -2.5315  0.2122
   73SLPC  H14S 6452   3.669   7.056   9.535 -1.5458 -0.6130  1.0761
   73SLPC  C215 6453   3.792   6.934   9.427  0.2650  1.0712 -1.0768
   73SLPC  H15R 6454   3.857   6.844   9.441 -2.1656 -0.2245  2.8213
   73SLPC  H15S 6455   3.868   7.015   9.418  0.3693  0.9868 -0.9615
   73SLPC  C216 6456   3.707   6.928   9.298  0.6622  0.3490 -0.5421
   73SLPC  H16R 6457   3.639   7.017   9.303 -0.0744 -0.3480  3.7940
   73SLPC  H16S 6458   3.636   6.843   9.289  1.9218 -0.6896 -0.7134
   73SLPC  C217 6459   3.779   6.966   9.179 -0.8303  0.8070 -0.4170
   73SLPC  H17R 6460   3.835   6.881   9.136 -3.0097 -1.1209  0.4702
   73SLPC  H17S 6461   3.852   7.045   9.206  0.8237 -0.6314 -0.5890
   73SLPC  C218 6462   3.678   7.009   9.071  0.4129 -0.4313 -0.2202
   73SLPC  H18R 6463   3.709   7.030   8.966 -2.4284  0.8416 -0.8560
   73SLPC  H18S 6464   3.630   7.100   9.112  0.8290 -1.5044  2.7340
   73SLPC  H18T 6465   3.590   6.941   9.069 -0.7946  1.1204 -0.8259
   73SLPC   C33 6466   4.114   5.896  10.135 -0.3757 -0.2747 -0.2803
   73SLPC   H3X 6467   4.198   5.823  10.142  0.3826  0.5384 -0.8655
   73SLPC   H3Y 6468   4.151   6.000  10.139 -1.1832  0.0226 -0.4474
   73SLPC   C34 6469   4.031   5.884  10.002 -0.3982  0.2598 -0.2923
   73SLPC   H4X 6470   3.961   5.970  10.006  0.6071  1.3555 -4.1313
   73SLPC   H4Y 6471   3.975   5.788  10.000 -0.1092  0.0954 -0.5082
   73SLPC   C35 6472   4.109   5.908   9.869  0.5570  0.2707 -0.3018
   73SLPC   H5X 6473   4.189   5.832   9.857  1.2620  1.0220 -0.3732
   73SLPC   H5Y 6474   4.161   6.005   9.862  0.2330  0.4516 -0.2001
   73SLPC   C36 6475   4.016   5.896   9.749 -0.4387 -0.7462  0.0118
   73SLPC   H6X 6476   3.914   5.922   9.785 -0.1119 -1.0827  1.2167
   73SLPC   H6Y 6477   3.999   5.787   9.736 -0.4703 -0.7983  0.4644
   73SLPC   C37 6478   4.062   5.979   9.619  0.4060 -0.0018  0.8285
   73SLPC   H7X 6479   4.143   5.917   9.576  1.3155  0.8443  1.2984
   73SLPC   H7Y 6480   4.121   6.066   9.655  0.0941 -0.1172  1.6273
   73SLPC   C38 6481   3.957   6.015   9.522  0.7795 -0.5692  0.6038
   73SLPC   H8X 6482   3.887   6.088   9.570 -0.7396 -1.9664  0.5640
   73SLPC   H8Y 6483   3.889   5.935   9.486 -0.9821  2.0817 -2.2674
   73SLPC   C39 6484   4.006   6.093   9.393 -0.1807  0.0231 -0.5482
   73SLPC   H9X 6485   4.105   6.064   9.353 -0.0198 -1.6600  1.0119
   73SLPC   H9Y 6486   4.033   6.194   9.432 -1.5613  0.0002  0.5088
   73SLPC  C310 6487   3.910   6.091   9.279  0.1072 -0.8952 -0.0468
   73SLPC  H10X 6488   3.819   6.150   9.303  0.4607  0.0444 -0.9695
   73SLPC  H10Y 6489   3.870   5.990   9.257 -0.9970 -0.7033  1.0280
   73SLPC  C311 6490   3.972   6.160   9.149  0.5591 -0.2072 -1.3445
   73SLPC  H11X 6491   4.069   6.211   9.167  0.8005 -1.1828  0.1972
   73SLPC  H11Y 6492   3.890   6.225   9.112  0.6880 -0.9484 -2.9733
   73SLPC  C312 6493   4.002   6.049   9.041  0.8417 -0.4232 -0.0735
   73SLPC  H12X 6494   4.056   5.965   9.090  0.2801 -0.5572  0.3221
   73SLPC  H12Y 6495   4.074   6.096   8.971  0.6484  0.2633  0.1817
   73SLPC  C313 6496   3.888   5.984   8.975 -0.0125  0.1548 -0.3246
   73SLPC  H13X 6497   3.833   6.066   8.925  1.5557  0.7657 -1.0821
   73SLPC  H13Y 6498   3.821   5.919   9.036  0.6334  0.6331  0.9107
   73SLPC  C314 6499   3.949   5.905   8.857  0.0067  0.4896  0.2032
   73SLPC  H14X 6500   4.016   5.827   8.898  0.4955  0.8511  0.0942
   73SLPC  H14Y 6501   4.003   5.975   8.789  2.9236 -0.7052  1.1929
   73SLPC  C315 6502   3.841   5.847   8.766  0.3818 -0.4638 -0.5963
   73SLPC  H15X 6503   3.772   5.928   8.733 -0.1916 -0.6741  0.0723
   73SLPC  H15Y 6504   3.788   5.766   8.819 -0.5624  0.4136 -0.1813
   73SLPC  C316 6505   3.900   5.782   8.633  0.4418 -0.4456  0.4790
   73SLPC  H16X 6506   3.944   5.684   8.659  1.3542 -0.0831  0.2987
   73SLPC  H16Y 6507   3.989   5.840   8.603  1.1585 -1.5750  0.4080
   73SLPC  C317 6508   3.801   5.770   8.511  0.0125  0.0662  0.3486
   73SLPC  H17X 6509   3.755   5.871   8.504 -0.5794 -0.1257  1.4430
   73SLPC  H17Y 6510   3.719   5.702   8.542 -0.9093  0.6681 -0.7481
   73SLPC  C318 6511   3.868   5.730   8.377  0.1313  0.2565 -0.1318
   73SLPC  H18X 6512   3.974   5.765   8.379 -0.1168  1.0989 -1.1111
   73SLPC  H18Y 6513   3.815   5.772   8.289  0.9906  0.5613 -0.5157
   73SLPC  H18Z 6514   3.864   5.620   8.383 -0.0881  0.3281  1.2018
   74SLPC     N 6515   4.367   0.898  10.582 -0.1925 -0.5158 -0.2891
   74SLPC   C13 6516   4.345   0.767  10.520 -0.5246 -0.5530  0.1270
   74SLPC  H13A 6517   4.416   0.745  10.441  0.8678 -1.1491  1.5180
   74SLPC  H13B 6518   4.355   0.683  10.587 -0.9121 -0.5508  0.1895
   74SLPC  H13C 6519   4.246   0.754  10.478  0.9724  0.0035 -3.8660
   74SLPC   C14 6520   4.287   0.894  10.706  0.2164  0.8651 -1.0120
   74SLPC  H14A 6521   4.297   0.982  10.767  2.5792 -1.1749  1.7071
   74SLPC  H14B 6522   4.182   0.878  10.687  0.0323 -0.4948  1.0119
   74SLPC  H14C 6523   4.320   0.814  10.771 -0.7026 -0.2411 -1.8790
   74SLPC   C15 6524   4.319   0.998  10.487  0.8589  0.1169  0.3909
   74SLPC  H15A 6525   4.311   1.093  10.537  1.5061  0.1035  0.5238
   74SLPC  H15B 6526   4.389   1.018  10.408 -0.8781  0.5890 -1.0666
   74SLPC  H15C 6527   4.224   0.982  10.437  0.6950 -0.2531  0.8049
   74SLPC   C12 6528   4.517   0.915  10.612  0.0017  0.4626  0.5120
   74SLPC  H12A 6529   4.539   0.839  10.686  1.0651  1.8396  1.6258
   74SLPC  H12B 6530   4.544   1.009  10.658 -0.1880  0.9685 -0.3985
   74SLPC   C11 6531   4.614   0.900  10.490  0.0689  1.1189  0.5210
   74SLPC  H11A 6532   4.608   0.993  10.429 -1.1135  0.3994 -0.4782
   74SLPC  H11B 6533   4.581   0.819  10.422 -0.1627  1.3370  0.3733
   74SLPC     P 6534   4.877   0.860  10.459  0.0929  0.0332 -0.1253
   74SLPC   O13 6535   4.899   0.973  10.364 -0.5783 -0.0458  0.0584
   74SLPC   O14 6536   4.977   0.822  10.562  0.3860 -0.3299  0.0677
   74SLPC   O12 6537   4.747   0.885  10.541  0.4466 -0.3919  0.2382
   74SLPC   O11 6538   4.837   0.729  10.378 -0.0583  0.0985 -0.0466
   74SLPC    C1 6539   4.848   0.727  10.238 -0.2378  0.3750 -0.3128
   74SLPC    HA 6540   4.756   0.677  10.201 -0.5402 -0.7867  1.9507
   74SLPC    HB 6541   4.832   0.831  10.200 -2.6725  1.3782  3.2408
   74SLPC    C2 6542   4.980   0.668  10.174 -0.0544 -0.0268 -0.2859
   74SLPC    HS 6543   4.983   0.561  10.206 -0.0996 -0.6451 -2.2698
   74SLPC   O21 6544   5.092   0.745  10.231 -0.5922  0.6710  0.1656
   74SLPC   C21 6545   5.214   0.696  10.206 -0.0670  0.6144  0.2450
   74SLPC   O22 6546   5.237   0.586  10.160  0.3543 -0.5814  0.1590
   74SLPC   C22 6547   5.309   0.815  10.207  0.1892 -0.5601 -0.5374
   74SLPC   H2R 6548   5.316   0.857  10.310 -0.2911  0.4366 -0.9007
   74SLPC   H2S 6549   5.412   0.777  10.189  0.0782 -1.1978  0.1465
   74SLPC    C3 6550   4.976   0.668  10.022 -0.3072  0.2005  0.9043
   74SLPC    HX 6551   5.070   0.624   9.984 -0.5712  0.4741 -0.0634
   74SLPC    HY 6552   4.989   0.772   9.985  0.2666 -0.4827 -0.8539
   74SLPC   O31 6553   4.857   0.602   9.974  0.0401 -0.3674  0.2575
   74SLPC   C31 6554   4.876   0.503   9.893 -0.3421  0.5403  0.0770
   74SLPC   O32 6555   4.985   0.457   9.860  0.6977 -0.0924 -0.0705
   74SLPC   C32 6556   4.746   0.455   9.839  0.5591 -0.7004 -0.0397
   74SLPC   H2X 6557   4.736   0.517   9.747 -3.7323 -4.8924 -2.6558
   74SLPC   H2Y 6558   4.662   0.468   9.911  0.2358 -0.6034 -0.4310
   74SLPC   C23 6559   5.286   0.920  10.098 -0.1684 -0.3685  0.3067
   74SLPC   H3R 6560   5.338   1.011  10.134 -0.0342 -0.1827 -0.3506
   74SLPC   H3S 6561   5.180   0.953  10.091 -0.4543 -1.0015  1.4204
   74SLPC   C24 6562   5.335   0.870   9.963  0.0096 -0.5342  0.2350
   74SLPC   H4R 6563   5.305   0.764   9.946  0.3338 -0.2628 -2.3443
   74SLPC   H4S 6564   5.446   0.868   9.958 -0.0190  0.9111 -1.2955
   74SLPC   C25 6565   5.291   0.966   9.851 -0.1470 -0.0403 -0.1830
   74SLPC   H5R 6566   5.339   1.064   9.870  1.0430 -0.0072 -3.1262
   74SLPC   H5S 6567   5.180   0.965   9.859  0.0163 -0.5800  2.1655
   74SLPC   C26 6568   5.315   0.916   9.701 -0.0544 -0.5242 -1.0950
   74SLPC   H6R 6569   5.259   0.981   9.631 -2.7870 -0.5570  0.9847
   74SLPC   H6S 6570   5.270   0.815   9.689  0.9838 -1.0091 -1.0086
   74SLPC   C27 6571   5.466   0.919   9.664 -0.8343  0.7355 -0.2116
   74SLPC   H7R 6572   5.525   0.852   9.729 -2.3854  0.1409  0.6123
   74SLPC   H7S 6573   5.504   1.023   9.652 -0.3216  0.7515  1.4555
   74SLPC   C28 6574   5.486   0.857   9.523  0.2364 -0.5260 -0.2376
   74SLPC   H8R 6575   5.436   0.934   9.460  0.5856 -1.3371 -1.5202
   74SLPC   H8S 6576   5.424   0.765   9.518 -1.6636  0.6747  0.6517
   74SLPC   C29 6577   5.626   0.836   9.475  0.4752  0.3558 -0.0836
   74SLPC   H9R 6578   5.699   0.824   9.556  0.7596  0.5408 -0.3136
   74SLPC  C210 6579   5.663   0.833   9.346 -0.6500 -0.3643  0.1760
   74SLPC  H10R 6580   5.767   0.803   9.329 -0.9749 -2.5188  1.7084
   74SLPC  C211 6581   5.564   0.855   9.231  0.1602  0.2648 -0.1927
   74SLPC  H11R 6582   5.599   0.937   9.165  0.8524 -0.4987 -0.7911
   74SLPC  H11S 6583   5.462   0.884   9.263 -0.9444 -1.9396 -1.6323
   74SLPC  C212 6584   5.544   0.731   9.149 -0.2110  0.5738 -0.5127
   74SLPC  H12R 6585   5.455   0.678   9.187 -0.0664  1.0414  0.4907
   74SLPC  C213 6586   5.617   0.677   9.043 -0.0083 -0.6293  0.3423
   74SLPC  H13R 6587   5.598   0.574   9.011 -1.7000  0.1784 -1.3118
   74SLPC  C214 6588   5.737   0.742   8.978  0.5526 -0.1224 -0.2141
   74SLPC  H14R 6589   5.728   0.850   8.999 -1.6173 -0.7820  2.5671
   74SLPC  H14S 6590   5.722   0.726   8.869  0.5255 -0.7364 -0.1215
   74SLPC  C215 6591   5.874   0.687   9.027  0.1116 -0.0912 -0.2714
   74SLPC  H15R 6592   5.872   0.681   9.138  1.9665 -0.2394 -0.2199
   74SLPC  H15S 6593   5.955   0.749   8.984  0.7310  0.1589  1.2006
   74SLPC  C216 6594   5.905   0.536   8.983  0.1430  0.2924 -0.1830
   74SLPC  H16R 6595   5.826   0.472   9.028 -0.1606  2.1122  1.9686
   74SLPC  H16S 6596   6.004   0.509   9.027  1.6301  1.8157 -2.4513
   74SLPC  C217 6597   5.912   0.522   8.833 -0.0588  0.4044  0.2817
   74SLPC  H17R 6598   5.915   0.617   8.776 -1.5271  1.1012  1.3538
   74SLPC  H17S 6599   5.823   0.473   8.787 -0.1892  0.0915  0.8654
   74SLPC  C218 6600   6.033   0.439   8.777 -0.2133 -0.0552  0.5107
   74SLPC  H18R 6601   6.117   0.511   8.765 -2.1437  2.1138 -0.3214
   74SLPC  H18S 6602   6.009   0.401   8.675  0.4769  2.5194 -0.6639
   74SLPC  H18T 6603   6.065   0.354   8.842  1.5723 -0.5802 -0.9943
   74SLPC   C33 6604   4.747   0.306   9.797 -0.0634 -0.1810 -0.0500
   74SLPC   H3X 6605   4.755   0.250   9.893  0.0918 -0.7833 -0.4140
   74SLPC   H3Y 6606   4.831   0.286   9.727 -0.3131 -2.5757  0.3006
   74SLPC   C34 6607   4.614   0.258   9.739  0.0904 -1.0293 -0.2017
   74SLPC   H4X 6608   4.539   0.341   9.737 -0.9825 -1.9788 -0.1447
   74SLPC   H4Y 6609   4.563   0.186   9.807 -1.4661  0.1260 -0.0955
   74SLPC   C35 6610   4.619   0.220   9.588  0.3650 -0.0732  0.6098
   74SLPC   H5X 6611   4.534   0.174   9.533 -0.1840  0.0327  1.3505
   74SLPC   H5Y 6612   4.700   0.144   9.579 -1.1328 -1.5054 -0.9933
   74SLPC   C36 6613   4.662   0.339   9.502  0.6848 -0.0199  0.3327
   74SLPC   H6X 6614   4.738   0.399   9.557  2.5516 -2.5555  0.6573
   74SLPC   H6Y 6615   4.579   0.412   9.498 -0.1307 -0.7282  3.1130
   74SLPC   C37 6616   4.723   0.295   9.364  0.4418  0.6158 -0.3978
   74SLPC   H7X 6617   4.644   0.240   9.308  0.1904  3.0160 -2.5229
   74SLPC   H7Y 6618   4.797   0.217   9.391 -1.0592 -1.9544 -3.3381
   74SLPC   C38 6619   4.780   0.410   9.282 -0.4847  0.5720 -0.7484
   74SLPC   H8X 6620   4.836   0.369   9.195 -0.5523 -2.2118  0.4554
   74SLPC   H8Y 6621   4.863   0.463   9.333 -0.5940  1.3092 -1.3403
   74SLPC   C39 6622   4.677   0.497   9.216 -1.1153  0.2691 -1.5721
   74SLPC   H9X 6623   4.734   0.589   9.192 -0.1120  0.6602  1.9732
   74SLPC   H9Y 6624   4.597   0.533   9.285 -1.5331 -1.8515 -0.8945
   74SLPC  C310 6625   4.606   0.429   9.099 -0.4819  0.0768 -0.2722
   74SLPC  H10X 6626   4.547   0.342   9.135  1.9467 -0.7863  1.8112
   74SLPC  H10Y 6627   4.683   0.374   9.040 -0.9861 -0.3159 -0.5648
   74SLPC  C311 6628   4.508   0.514   9.015  0.3269  0.6223  0.1020
   74SLPC  H11X 6629   4.422   0.530   9.083 -1.8433 -1.2572 -2.0637
   74SLPC  H11Y 6630   4.463   0.464   8.926  0.1394  1.4845 -0.2956
   74SLPC  C312 6631   4.566   0.645   8.961 -0.4374  0.3419 -0.3914
   74SLPC  H12X 6632   4.655   0.612   8.903 -1.5812 -3.0225 -0.3377
   74SLPC  H12Y 6633   4.592   0.721   9.038 -1.1430 -1.3496  1.5607
   74SLPC  C313 6634   4.474   0.730   8.867 -0.5217  0.2050  0.0264
   74SLPC  H13X 6635   4.516   0.827   8.832 -0.1836 -0.1460 -0.5422
   74SLPC  H13Y 6636   4.380   0.755   8.921 -0.2573  1.4108 -0.0465
   74SLPC  C314 6637   4.447   0.660   8.732 -0.4298 -1.0800 -0.3686
   74SLPC  H14X 6638   4.397   0.561   8.743  0.0362 -1.2943 -0.1871
   74SLPC  H14Y 6639   4.538   0.638   8.673 -0.0608 -0.4513 -0.0425
   74SLPC  C315 6640   4.352   0.751   8.647 -0.8549  0.7752  0.4208
   74SLPC  H15X 6641   4.402   0.850   8.644  1.0794 -0.1538  0.7307
   74SLPC  H15Y 6642   4.253   0.769   8.693 -1.2214 -2.3400  1.0094
   74SLPC  C316 6643   4.339   0.679   8.509 -0.8029 -0.5248 -0.6208
   74SLPC  H16X 6644   4.275   0.589   8.523 -1.8004  0.5067  1.8465
   74SLPC  H16Y 6645   4.440   0.654   8.469 -0.7191  2.1427 -2.1909
   74SLPC  C317 6646   4.292   0.771   8.391  0.5186 -0.0861  1.2304
   74SLPC  H17X 6647   4.182   0.756   8.381  0.5431 -0.2561  1.2101
   74SLPC  H17Y 6648   4.340   0.729   8.299 -0.7293  1.6860 -0.2792
   74SLPC  C318 6649   4.340   0.917   8.393  0.1134  0.2093  0.0946
   74SLPC  H18X 6650   4.451   0.919   8.403  0.1607 -1.9090  0.2064
   74SLPC  H18Y 6651   4.302   0.961   8.487 -0.9340 -1.8014  0.6474
   74SLPC  H18Z 6652   4.301   0.965   8.301 -0.3636 -2.3865 -1.0909
   75SLPC     N 6653   2.974   4.509   6.617  0.2531 -0.3317  0.8132
   75SLPC   C13 6654   3.081   4.406   6.596  0.5654  0.5285  0.2105
   75SLPC  H13A 6655   3.095   4.335   6.676  1.0498  1.3920  0.9064
   75SLPC  H13B 6656   3.052   4.345   6.512  0.0919 -0.6546  1.2159
   75SLPC  H13C 6657   3.181   4.448   6.591  0.0087  1.8251 -0.1227
   75SLPC   C14 6658   3.002   4.628   6.528  0.3632  1.1694 -0.7015
   75SLPC  H14A 6659   2.915   4.690   6.515 -0.3413  0.2362 -0.4354
   75SLPC  H14B 6660   3.083   4.691   6.563 -0.6559  3.0758 -1.6602
   75SLPC  H14C 6661   3.040   4.592   6.433  0.8585  0.5289 -0.2638
   75SLPC   C15 6662   2.965   4.551   6.761  0.1443  0.0606  0.1370
   75SLPC  H15A 6663   2.871   4.597   6.785  0.2563  0.6218 -0.4962
   75SLPC  H15B 6664   2.968   4.458   6.816  0.2402  0.3820  0.6775
   75SLPC  H15C 6665   3.043   4.620   6.788  0.3425  0.3289 -1.0740
   75SLPC   C12 6666   2.837   4.449   6.588  0.0757  0.0003 -0.1881
   75SLPC  H12A 6667   2.777   4.534   6.616  1.6359  1.4778 -1.2226
   75SLPC  H12B 6668   2.821   4.370   6.660  0.1992  0.3103  0.1843
   75SLPC   C11 6669   2.805   4.413   6.449  0.2077 -0.1631  0.4978
   75SLPC  H11A 6670   2.880   4.339   6.413 -0.4032 -1.8265  2.5815
   75SLPC  H11B 6671   2.814   4.497   6.376  1.9659  0.0164  0.9012
   75SLPC     P 6672   2.633   4.210   6.470 -0.2868 -0.0268  0.2517
   75SLPC   O13 6673   2.494   4.193   6.525 -0.0211  0.4564  0.1208
   75SLPC   O14 6674   2.667   4.135   6.344  0.5276  0.2845  0.0419
   75SLPC   O12 6675   2.676   4.364   6.442  0.4146  0.2666 -0.0675
   75SLPC   O11 6676   2.735   4.171   6.590  0.4918 -0.0890 -0.4697
   75SLPC    C1 6677   2.767   4.038   6.628 -0.1909  0.6809  0.4524
   75SLPC    HA 6678   2.772   3.975   6.536 -0.5917  1.3720 -0.0420
   75SLPC    HB 6679   2.864   4.028   6.682  0.5772  1.6614 -0.6936
   75SLPC    C2 6680   2.655   3.982   6.719 -0.7354  0.0242  0.7852
   75SLPC    HS 6681   2.565   3.973   6.655  0.6030 -0.2642 -1.0935
   75SLPC   O21 6682   2.643   4.063   6.841 -0.4420  0.7105 -0.2534
   75SLPC   C21 6683   2.518   4.090   6.879 -0.1209  0.1373 -0.1013
   75SLPC   O22 6684   2.417   4.060   6.820 -0.2472  0.0506 -0.1476
   75SLPC   C22 6685   2.520   4.178   7.005 -0.0875 -0.2213  0.5102
   75SLPC   H2R 6686   2.612   4.239   6.993 -0.7794  0.6715 -0.2794
   75SLPC   H2S 6687   2.441   4.252   6.984 -0.4858 -1.1332 -1.2764
   75SLPC    C3 6688   2.693   3.835   6.767 -0.2056  0.1475  1.0648
   75SLPC    HX 6689   2.788   3.846   6.823  0.2996  0.5809  0.1332
   75SLPC    HY 6690   2.716   3.775   6.677 -0.4633  2.9452 -0.9067
   75SLPC   O31 6691   2.598   3.775   6.859  0.1444  0.0215 -0.0395
   75SLPC   C31 6692   2.522   3.684   6.804  0.2207 -0.5917  0.0090
   75SLPC   O32 6693   2.527   3.648   6.685  0.4565  0.1358 -0.3935
   75SLPC   C32 6694   2.404   3.650   6.892  0.1041 -0.2881  0.0545
   75SLPC   H2X 6695   2.319   3.610   6.833 -1.2352 -0.9019  2.3118
   75SLPC   H2Y 6696   2.374   3.747   6.939  0.0386  0.5331 -1.6342
   75SLPC   C23 6697   2.494   4.105   7.140 -0.1966 -0.5421 -1.1839
   75SLPC   H3R 6698   2.555   4.013   7.153  0.4584 -0.0367 -0.6449
   75SLPC   H3S 6699   2.388   4.075   7.151  0.3149 -1.6715  0.9401
   75SLPC   C24 6700   2.514   4.211   7.252 -0.6935  1.1646  0.4573
   75SLPC   H4R 6701   2.440   4.291   7.231 -1.7029  0.0491 -0.3001
   75SLPC   H4S 6702   2.619   4.238   7.225 -0.3767 -0.9040 -0.4457
   75SLPC   C25 6703   2.514   4.154   7.393  0.2724  0.4639  0.7326
   75SLPC   H5R 6704   2.568   4.061   7.417  0.5000  1.1112  2.7609
   75SLPC   H5S 6705   2.410   4.116   7.403 -0.1054  1.5180  0.9378
   75SLPC   C26 6706   2.569   4.261   7.487  0.2241 -0.8117 -0.8096
   75SLPC   H6R 6707   2.496   4.345   7.486 -0.3876 -1.3308 -2.6407
   75SLPC   H6S 6708   2.666   4.299   7.447  0.4399  0.2050  0.6421
   75SLPC   C27 6709   2.580   4.216   7.637  0.1473 -0.1711  0.3515
   75SLPC   H7R 6710   2.486   4.163   7.666  0.0707 -0.3545 -0.2344
   75SLPC   H7S 6711   2.599   4.308   7.696 -2.8185  2.8387 -3.1787
   75SLPC   C28 6712   2.691   4.110   7.658 -0.4073  0.2938  0.7996
   75SLPC   H8R 6713   2.656   4.010   7.623 -2.1164  0.9088  0.6942
   75SLPC   H8S 6714   2.701   4.089   7.767  0.1737 -0.1263  0.6710
   75SLPC   C29 6715   2.821   4.141   7.613  0.3300  0.1947 -0.1263
   75SLPC   H9R 6716   2.882   4.207   7.677  1.3996  0.0904 -1.0211
   75SLPC  C210 6717   2.885   4.079   7.512 -0.3257 -0.0026  0.2212
   75SLPC  H10R 6718   2.990   4.103   7.487 -0.9454  1.9370 -0.5723
   75SLPC  C211 6719   2.830   3.970   7.419 -0.7005 -0.7791 -0.2038
   75SLPC  H11R 6720   2.732   3.925   7.447  0.0365 -1.9148  0.5819
   75SLPC  H11S 6721   2.898   3.882   7.424  1.3045  0.7179 -0.3990
   75SLPC  C212 6722   2.819   4.007   7.273 -0.2408 -0.6869 -0.1751
   75SLPC  H12R 6723   2.769   4.103   7.251  2.2425  0.2241 -2.0575
   75SLPC  C213 6724   2.859   3.930   7.169 -0.5248  0.0389  0.5548
   75SLPC  H13R 6725   2.823   3.966   7.071  0.7405  0.5831  0.2741
   75SLPC  C214 6726   2.933   3.798   7.164 -0.3814  0.1984  0.6074
   75SLPC  H14R 6727   2.987   3.772   7.257 -1.6311 -1.1370  0.9730
   75SLPC  H14S 6728   3.012   3.809   7.087 -1.2580 -1.6651 -0.5944
   75SLPC  C215 6729   2.841   3.683   7.129 -0.3446  0.0685  0.0465
   75SLPC  H15R 6730   2.784   3.702   7.036 -0.8005 -0.4821  0.2146
   75SLPC  H15S 6731   2.762   3.671   7.206 -0.5181 -0.5440 -0.2262
   75SLPC  C216 6732   2.908   3.541   7.116  0.4999 -0.7539  0.0022
   75SLPC  H16R 6733   2.929   3.518   7.223  3.3525  2.6473  0.2544
   75SLPC  H16S 6734   3.002   3.540   7.058 -0.1667 -0.9649 -1.0825
   75SLPC  C217 6735   2.821   3.428   7.059  0.7128  0.7734 -0.0084
   75SLPC  H17R 6736   2.809   3.430   6.948  0.2555 -0.1776  0.0243
   75SLPC  H17S 6737   2.720   3.444   7.103  0.6870 -1.5438  0.8168
   75SLPC  C218 6738   2.872   3.290   7.110 -1.3055 -0.1789 -0.5769
   75SLPC  H18R 6739   2.783   3.236   7.071 -2.4192  1.3022 -0.1340
   75SLPC  H18S 6740   2.868   3.290   7.221  0.7667  1.8369 -0.4797
   75SLPC  H18T 6741   2.977   3.271   7.080  0.0386  0.4333  3.4252
   75SLPC   C33 6742   2.440   3.544   7.003 -0.1478 -0.3579  0.3770
   75SLPC   H3X 6743   2.342   3.493   7.007  0.0293 -1.0693 -2.6746
   75SLPC   H3Y 6744   2.517   3.470   6.971  1.0828  1.6014 -1.3145
   75SLPC   C34 6745   2.479   3.604   7.140 -0.8539  0.8581  0.3085
   75SLPC   H4X 6746   2.556   3.683   7.131 -0.5096  0.4354 -0.5474
   75SLPC   H4Y 6747   2.533   3.524   7.196 -2.1095 -1.4068 -1.6241
   75SLPC   C35 6748   2.375   3.686   7.220  1.0318  0.0886  0.4203
   75SLPC   H5X 6749   2.312   3.616   7.278 -0.2322  0.7515 -0.1182
   75SLPC   H5Y 6750   2.306   3.749   7.159 -1.4387 -2.3440  0.6048
   75SLPC   C36 6751   2.433   3.780   7.329 -0.2698  0.0994 -0.6227
   75SLPC   H6X 6752   2.377   3.874   7.309  0.1325  0.5464  0.3386
   75SLPC   H6Y 6753   2.542   3.800   7.326 -0.4440  1.0986 -0.1630
   75SLPC   C37 6754   2.393   3.718   7.468 -0.2552  0.3506  0.1165
   75SLPC   H7X 6755   2.436   3.617   7.484 -1.8710 -0.3606  0.0775
   75SLPC   H7Y 6756   2.282   3.711   7.476 -0.4302  2.1550 -0.3656
   75SLPC   C38 6757   2.450   3.813   7.583 -0.2809  0.6435  0.4573
   75SLPC   H8X 6758   2.400   3.912   7.570 -0.3530  0.8066  1.8860
   75SLPC   H8Y 6759   2.557   3.825   7.554 -0.7191  3.3470 -0.2125
   75SLPC   C39 6760   2.435   3.754   7.730 -0.0012  0.0732  0.6525
   75SLPC   H9X 6761   2.487   3.656   7.728  0.0118  0.1067 -1.2608
   75SLPC   H9Y 6762   2.329   3.740   7.759 -0.0238 -0.1374  0.4664
   75SLPC  C310 6763   2.496   3.848   7.835 -0.2671 -0.2074 -0.0831
   75SLPC  H10X 6764   2.464   3.950   7.806 -2.6679 -0.8087  0.3868
   75SLPC  H10Y 6765   2.606   3.837   7.819  0.2577  0.1335  3.0340
   75SLPC  C311 6766   2.478   3.814   7.984  0.4726 -0.4414  1.1340
   75SLPC  H11X 6767   2.536   3.883   8.049 -1.8875  0.2861  2.5607
   75SLPC  H11Y 6768   2.517   3.711   7.995  0.0980 -0.6177  0.8288
   75SLPC  C312 6769   2.332   3.821   8.028 -0.0173 -0.1289 -0.2882
   75SLPC  H12X 6770   2.277   3.751   7.961  0.3861 -0.0537 -0.7002
   75SLPC  H12Y 6771   2.284   3.918   8.002  2.4631  0.6403 -2.1729
   75SLPC  C313 6772   2.322   3.808   8.182 -0.3786 -0.4190 -0.5348
   75SLPC  H13X 6773   2.384   3.878   8.241  2.0398 -2.4210 -0.6356
   75SLPC  H13Y 6774   2.361   3.708   8.210 -2.2998 -0.7538  1.0915
   75SLPC  C314 6775   2.173   3.821   8.237 -0.2942 -1.1168 -0.1067
   75SLPC  H14X 6776   2.095   3.805   8.160 -0.9242  0.1549  0.2568
   75SLPC  H14Y 6777   2.163   3.930   8.259  1.6608 -1.0676  0.7128
   75SLPC  C315 6778   2.166   3.759   8.378  0.0764 -0.1368  0.4839
   75SLPC  H15X 6779   2.077   3.803   8.428 -0.9279  0.0271 -1.4351
   75SLPC  H15Y 6780   2.259   3.780   8.435  0.3224  0.4869 -0.1573
   75SLPC  C316 6781   2.149   3.604   8.376 -0.2803 -0.8926  0.4443
   75SLPC  H16X 6782   2.221   3.560   8.304  1.0467  0.4358  0.9127
   75SLPC  H16Y 6783   2.048   3.586   8.332 -0.5348  1.6008 -0.1257
   75SLPC  C317 6784   2.156   3.549   8.520  1.2570  0.9000 -1.0976
   75SLPC  H17X 6785   2.099   3.612   8.592  0.8043  1.0854 -1.6151
   75SLPC  H17Y 6786   2.264   3.554   8.545  0.7512  0.2130  1.4288
   75SLPC  C318 6787   2.104   3.406   8.536  0.3617  0.4844 -0.0917
   75SLPC  H18X 6788   1.996   3.412   8.510  0.1030 -0.7272  0.6794
   75SLPC  H18Y 6789   2.127   3.372   8.639 -0.0288  1.1394  0.2096
   75SLPC  H18Z 6790   2.152   3.336   8.464 -1.7052 -1.3318  0.2476
   76SLPC     N 6791   4.004   2.879   6.491  0.6538 -0.0191  0.4582
   76SLPC   C13 6792   3.948   2.858   6.631 -0.3997  0.1096  0.0043
   76SLPC  H13A 6793   3.972   2.754   6.649  1.9803  0.6835  0.2572
   76SLPC  H13B 6794   3.996   2.917   6.707  0.6084 -0.8737  0.1575
   76SLPC  H13C 6795   3.841   2.869   6.625 -0.1954  1.0609 -2.2922
   76SLPC   C14 6796   3.970   3.019   6.457 -0.1530 -0.1573 -0.4099
   76SLPC  H14A 6797   3.866   3.039   6.477  0.6627  1.4477  2.5192
   76SLPC  H14B 6798   4.026   3.096   6.509 -1.0548  0.5989 -0.5406
   76SLPC  H14C 6799   3.965   3.042   6.351 -2.0921 -0.5244 -0.4133
   76SLPC   C15 6800   3.944   2.780   6.391  0.1556 -0.1549  0.5499
   76SLPC  H15A 6801   3.979   2.784   6.289  2.3191 -0.6178  1.2421
   76SLPC  H15B 6802   3.978   2.682   6.421 -1.5772 -0.4479  1.6107
   76SLPC  H15C 6803   3.837   2.768   6.382  0.4094 -1.8456 -0.4982
   76SLPC   C12 6804   4.152   2.860   6.489  0.0508  0.2579  0.3642
   76SLPC  H12A 6805   4.215   2.939   6.526  0.7684  0.6083 -1.5468
   76SLPC  H12B 6806   4.176   2.865   6.383 -0.2501 -2.6531  0.1038
   76SLPC   C11 6807   4.206   2.723   6.550 -0.2195  0.4855  0.8580
   76SLPC  H11A 6808   4.171   2.704   6.653 -1.1102 -1.7903  0.1760
   76SLPC  H11B 6809   4.316   2.738   6.552  0.3191 -2.4713 -1.6597
   76SLPC     P 6810   4.252   2.559   6.356 -0.1492 -0.3954  0.1373
   76SLPC   O13 6811   4.144   2.495   6.271  0.8249  0.0357 -0.1871
   76SLPC   O14 6812   4.329   2.676   6.294  0.1391  0.7123  0.5301
   76SLPC   O12 6813   4.170   2.605   6.477  0.5793 -0.2129  0.0995
   76SLPC   O11 6814   4.356   2.444   6.402  0.2342 -0.1661  0.0788
   76SLPC    C1 6815   4.325   2.342   6.493 -0.0703  0.2478  0.0510
   76SLPC    HA 6816   4.219   2.310   6.490  0.3808 -1.2084 -2.5847
   76SLPC    HB 6817   4.390   2.254   6.472 -3.5037 -2.3034 -0.2786
   76SLPC    C2 6818   4.346   2.392   6.638 -0.3613  0.6834  0.1210
   76SLPC    HS 6819   4.281   2.482   6.649 -1.8673 -0.3650 -0.1795
   76SLPC   O21 6820   4.485   2.421   6.661  0.5551 -0.1450 -0.1983
   76SLPC   C21 6821   4.502   2.540   6.725  0.3009  0.1107 -0.2175
   76SLPC   O22 6822   4.416   2.615   6.763 -0.0085  0.1115  0.0122
   76SLPC   C22 6823   4.650   2.570   6.727  0.7752  0.1113  0.4406
   76SLPC   H2R 6824   4.707   2.475   6.734 -1.2065 -1.1610 -0.3309
   76SLPC   H2S 6825   4.668   2.616   6.628 -1.2414  0.4755  0.2130
   76SLPC    C3 6826   4.295   2.293   6.753 -0.3208  0.0103  0.2022
   76SLPC    HX 6827   4.340   2.197   6.719 -1.4740 -0.6646  0.5568
   76SLPC    HY 6828   4.185   2.281   6.745 -0.5289  2.4586 -0.9000
   76SLPC   O31 6829   4.348   2.328   6.884 -0.1601 -0.1834 -0.2193
   76SLPC   C31 6830   4.269   2.397   6.958 -0.3527 -0.1217  0.9188
   76SLPC   O32 6831   4.153   2.427   6.926  0.2271 -1.2211 -0.1754
   76SLPC   C32 6832   4.327   2.438   7.091  0.1343 -0.1684 -0.0618
   76SLPC   H2X 6833   4.399   2.522   7.081  2.2067 -1.5787  2.3801
   76SLPC   H2Y 6834   4.383   2.347   7.122  1.6614  0.5824 -0.5250
   76SLPC   C23 6835   4.686   2.680   6.836  0.2118 -0.6634  0.3356
   76SLPC   H3R 6836   4.615   2.765   6.832  2.4256  1.1164 -1.7351
   76SLPC   H3S 6837   4.788   2.710   6.806 -0.0487 -0.3520 -0.2292
   76SLPC   C24 6838   4.683   2.610   6.975 -0.6191  0.0761 -0.4663
   76SLPC   H4R 6839   4.767   2.543   7.004 -0.1695  0.0369 -1.8328
   76SLPC   H4S 6840   4.588   2.552   6.981  0.7379 -1.9917  1.9630
   76SLPC   C25 6841   4.675   2.724   7.074 -0.3613 -0.1241 -0.9786
   76SLPC   H5R 6842   4.597   2.799   7.050 -0.3322  0.5155  0.8594
   76SLPC   H5S 6843   4.771   2.780   7.082 -0.5630 -0.1401  1.9414
   76SLPC   C26 6844   4.645   2.680   7.220  0.1285 -0.0005 -0.6775
   76SLPC   H6R 6845   4.698   2.586   7.244 -0.0221 -0.3020 -1.4968
   76SLPC   H6S 6846   4.536   2.661   7.220  0.6602 -3.3139  1.8446
   76SLPC   C27 6847   4.664   2.788   7.329  0.0490 -1.2766 -0.6682
   76SLPC   H7R 6848   4.582   2.860   7.313  1.7356  1.1331  1.2100
   76SLPC   H7S 6849   4.764   2.834   7.311  0.2633 -0.2435  2.8804
   76SLPC   C28 6850   4.647   2.726   7.471  0.3051 -0.1339  0.1358
   76SLPC   H8R 6851   4.566   2.651   7.462  0.1590  0.0126  0.2352
   76SLPC   H8S 6852   4.737   2.665   7.496 -0.2832 -1.1646 -0.2594
   76SLPC   C29 6853   4.622   2.832   7.578 -0.1320  0.2441 -0.2794
   76SLPC   H9R 6854   4.563   2.915   7.537 -2.2766 -1.4895 -0.7541
   76SLPC  C210 6855   4.662   2.821   7.709  0.1479  0.1656 -0.2974
   76SLPC  H10R 6856   4.640   2.912   7.766 -1.7431 -0.8972  0.7009
   76SLPC  C211 6857   4.729   2.707   7.786  0.0620  0.3737  0.0102
   76SLPC  H11R 6858   4.733   2.615   7.725 -4.1863 -0.9435  1.5343
   76SLPC  H11S 6859   4.657   2.684   7.867 -0.3626 -1.0772 -0.7755
   76SLPC  C212 6860   4.869   2.735   7.840  0.5397  0.0288 -0.5710
   76SLPC  H12R 6861   4.950   2.733   7.766  1.4153  0.4852  0.3567
   76SLPC  C213 6862   4.907   2.762   7.968 -0.3762 -0.1926 -0.2082
   76SLPC  H13R 6863   5.015   2.772   7.984 -0.4194  0.5244 -0.3215
   76SLPC  C214 6864   4.824   2.780   8.094  0.3450 -0.5563  0.0410
   76SLPC  H14R 6865   4.717   2.803   8.072  0.7559  0.9528 -0.5019
   76SLPC  H14S 6866   4.863   2.860   8.161 -1.0143  0.4249 -0.3069
   76SLPC  C215 6867   4.837   2.653   8.176 -0.1373 -0.9370 -0.3873
   76SLPC  H15R 6868   4.941   2.660   8.213  0.1026  0.7065 -1.3074
   76SLPC  H15S 6869   4.821   2.567   8.107 -2.7126  0.5067 -1.6813
   76SLPC  C216 6870   4.744   2.652   8.304 -0.4568  1.0564  0.5867
   76SLPC  H16R 6871   4.636   2.648   8.280 -0.2297 -1.5713 -0.2016
   76SLPC  H16S 6872   4.760   2.745   8.362  2.2987  1.9038 -1.3801
   76SLPC  C217 6873   4.784   2.538   8.406 -0.2378 -0.9978  0.0245
   76SLPC  H17R 6874   4.895   2.536   8.413 -0.2086  0.6063  0.0649
   76SLPC  H17S 6875   4.748   2.439   8.371 -2.2360 -0.2680 -0.0017
   76SLPC  C218 6876   4.730   2.559   8.548 -0.0709 -0.7322  0.2089
   76SLPC  H18R 6877   4.750   2.471   8.613 -0.7086  0.2420  1.7593
   76SLPC  H18S 6878   4.619   2.553   8.546 -0.0822 -0.2615 -1.2262
   76SLPC  H18T 6879   4.778   2.650   8.589  2.6927 -2.2411  0.4916
   76SLPC   C33 6880   4.224   2.481   7.189 -0.1945 -0.0734  0.4453
   76SLPC   H3X 6881   4.146   2.405   7.212  0.2063 -0.3570  0.8727
   76SLPC   H3Y 6882   4.161   2.569   7.163 -1.7034 -0.8995  1.2240
   76SLPC   C34 6883   4.294   2.531   7.319 -0.6504  0.0619 -0.4044
   76SLPC   H4X 6884   4.343   2.626   7.287 -1.1773 -0.4167 -2.6709
   76SLPC   H4Y 6885   4.378   2.466   7.352  0.6325  1.7097 -0.3011
   76SLPC   C35 6886   4.200   2.557   7.437  0.1605 -0.3434 -0.2360
   76SLPC   H5X 6887   4.140   2.468   7.466  0.8126  0.1070  2.6966
   76SLPC   H5Y 6888   4.128   2.637   7.410  0.0796 -0.3623 -0.0759
   76SLPC   C36 6889   4.275   2.581   7.565 -0.1002 -0.2879  0.2228
   76SLPC   H6X 6890   4.340   2.671   7.562 -2.4161  1.4317 -0.0226
   76SLPC   H6Y 6891   4.348   2.500   7.586 -1.3614 -1.9790 -1.7384
   76SLPC   C37 6892   4.186   2.603   7.693  0.0770 -0.8236  0.6089
   76SLPC   H7X 6893   4.116   2.519   7.710 -0.3294 -0.5305  0.3842
   76SLPC   H7Y 6894   4.139   2.703   7.684 -0.7556 -1.3777 -1.7300
   76SLPC   C38 6895   4.274   2.593   7.818 -0.2964 -0.8609  0.3564
   76SLPC   H8X 6896   4.356   2.668   7.817 -0.9543 -0.1329 -0.3301
   76SLPC   H8Y 6897   4.306   2.488   7.832 -0.3034 -1.2074 -2.0340
   76SLPC   C39 6898   4.198   2.623   7.948  0.2402  0.3965 -0.4408
   76SLPC   H9X 6899   4.115   2.551   7.963 -0.2280  1.2580  1.2267
   76SLPC   H9Y 6900   4.152   2.723   7.927 -0.8854 -0.2176 -0.9480
   76SLPC  C310 6901   4.289   2.649   8.067 -0.2371 -0.0259 -0.3693
   76SLPC  H10X 6902   4.368   2.723   8.042  1.0676 -1.3953 -0.3636
   76SLPC  H10Y 6903   4.344   2.557   8.093  0.4436  0.5469  0.2320
   76SLPC  C311 6904   4.214   2.699   8.188 -0.5123 -0.5678 -0.4957
   76SLPC  H11X 6905   4.146   2.616   8.218 -1.7503  1.1015  1.3954
   76SLPC  H11Y 6906   4.147   2.787   8.174  0.4866  0.3230  0.2922
   76SLPC  C312 6907   4.303   2.714   8.319  0.3348  0.3907  0.2202
   76SLPC  H12X 6908   4.374   2.799   8.304  2.8104 -1.8150 -0.8634
   76SLPC  H12Y 6909   4.361   2.620   8.329 -0.5381 -0.1930 -0.2008
   76SLPC  C313 6910   4.216   2.742   8.453  1.0725  0.0813 -0.0429
   76SLPC  H13X 6911   4.260   2.706   8.548 -1.1696 -2.5310  0.0380
   76SLPC  H13Y 6912   4.121   2.685   8.443  0.0822  2.0432 -2.5701
   76SLPC  C314 6913   4.164   2.887   8.450  0.0543  0.6524  0.0344
   76SLPC  H14X 6914   4.121   2.908   8.349  1.1020 -1.1065 -0.7981
   76SLPC  H14Y 6915   4.240   2.963   8.479 -0.5688  1.6973 -0.9883
   76SLPC  C315 6916   4.066   2.930   8.569  0.0167 -0.0447 -0.6385
   76SLPC  H15X 6917   4.113   2.912   8.668  0.9898  2.6295 -0.5969
   76SLPC  H15Y 6918   3.966   2.884   8.556 -0.5204  1.7803 -3.2503
   76SLPC  C316 6919   4.033   3.079   8.566 -0.8416  0.3228  0.1645
   76SLPC  H16X 6920   4.022   3.116   8.462 -2.0334  2.1496  0.9123
   76SLPC  H16Y 6921   4.130   3.124   8.596 -0.9651 -1.8116  4.1342
   76SLPC  C317 6922   3.918   3.130   8.655 -0.6977  0.0464  0.4719
   76SLPC  H17X 6923   3.937   3.124   8.764 -1.2445 -1.7615  0.4720
   76SLPC  H17Y 6924   3.838   3.055   8.640 -1.3377  0.5418  1.3257
   76SLPC  C318 6925   3.873   3.274   8.619 -0.0904 -0.4301  0.3182
   76SLPC  H18X 6926   3.778   3.291   8.674 -1.5535 -0.3481 -2.1933
   76SLPC  H18Y 6927   3.851   3.270   8.511  0.2782  1.1238  0.1695
   76SLPC  H18Z 6928   3.947   3.355   8.639 -0.7132  0.1862  0.1555
   77SLPC     N 6929   0.153   2.115   5.975  0.0997 -0.0995 -0.6542
   77SLPC   C13 6930   0.254   2.061   5.878 -0.5196  0.1844  0.2603
   77SLPC  H13A 6931   0.305   1.969   5.906 -1.0407  0.3417  1.7971
   77SLPC  H13B 6932   0.197   2.038   5.789 -0.1165  0.4423 -0.0644
   77SLPC  H13C 6933   0.327   2.139   5.862 -0.6015  0.4538  1.1812
   77SLPC   C14 6934   0.064   2.003   6.033  0.0511 -0.3849 -0.6236
   77SLPC  H14A 6935   0.116   1.957   6.116 -1.5751 -3.5971 -1.3252
   77SLPC  H14B 6936  -0.027   2.036   6.080  1.0781 -0.0008  1.1439
   77SLPC  H14C 6937   0.038   1.932   5.956  0.9018 -0.3993 -0.9030
   77SLPC   C15 6938   0.074   2.219   5.899  0.0329 -0.8423  0.4726
   77SLPC  H15A 6939   0.025   2.287   5.967  3.4648  1.0186  1.2433
   77SLPC  H15B 6940   0.146   2.283   5.849 -0.5181  0.2805  1.0897
   77SLPC  H15C 6941   0.001   2.181   5.829  1.5806 -2.9502 -0.0370
   77SLPC   C12 6942   0.229   2.194   6.086 -0.3476  0.6247  0.1854
   77SLPC  H12A 6943   0.170   2.245   6.160  0.7732 -0.0935  1.6070
   77SLPC  H12B 6944   0.281   2.276   6.039 -3.2307  2.1883 -0.3850
   77SLPC   C11 6945   0.334   2.114   6.166  0.5296 -0.0196  0.1948
   77SLPC  H11A 6946   0.390   2.196   6.216 -0.2326 -0.5884  2.0420
   77SLPC  H11B 6947   0.406   2.051   6.110 -2.1279 -0.7704 -2.4576
   77SLPC     P 6948   0.301   1.891   6.296  0.0032  0.2614  0.0688
   77SLPC   O13 6949   0.209   1.806   6.214  0.0310  0.5471 -0.1205
   77SLPC   O14 6950   0.447   1.878   6.281 -0.5638 -0.1384  0.1278
   77SLPC   O12 6951   0.265   2.041   6.267  0.5811 -0.3019 -0.3388
   77SLPC   O11 6952   0.255   1.880   6.446  0.5979 -0.4303  0.2907
   77SLPC    C1 6953   0.123   1.924   6.489  0.8739 -0.6360 -0.8181
   77SLPC    HA 6954   0.125   2.014   6.555  0.2747  0.8301 -2.7631
   77SLPC    HB 6955   0.062   1.966   6.407  0.0337  0.6068  0.4036
   77SLPC    C2 6956   0.036   1.814   6.569 -0.5144  0.5058 -0.3142
   77SLPC    HS 6957  -0.059   1.864   6.597  0.4377  1.4453  1.3068
   77SLPC   O21 6958   0.100   1.779   6.701 -0.3406 -0.2911  0.2512
   77SLPC   C21 6959   0.115   1.873   6.785  1.2911 -0.4170 -0.4539
   77SLPC   O22 6960   0.072   1.986   6.791  0.3576 -0.1513  0.0403
   77SLPC   C22 6961   0.207   1.813   6.899  0.1611 -0.8352 -0.1833
   77SLPC   H2R 6962   0.153   1.734   6.956 -2.0149  0.3719 -0.5039
   77SLPC   H2S 6963   0.291   1.767   6.844  1.4856  0.1740  0.9566
   77SLPC    C3 6964   0.004   1.688   6.483  0.1271  1.1462 -0.3634
   77SLPC    HX 6965   0.103   1.644   6.459  0.1174  1.7000 -1.4436
   77SLPC    HY 6966  -0.047   1.712   6.387 -0.5583  0.8601 -0.0730
   77SLPC   O31 6967  -0.079   1.594   6.563  0.4990 -0.4563 -0.3857
   77SLPC   C31 6968  -0.020   1.485   6.607  0.0524  0.0179  0.2042
   77SLPC   O32 6969   0.087   1.438   6.568 -0.0086  0.3004 -1.1491
   77SLPC   C32 6970  -0.105   1.437   6.721 -0.2131  0.2403 -0.2450
   77SLPC   H2X 6971  -0.183   1.368   6.682 -3.4160  3.5587  0.0996
   77SLPC   H2Y 6972  -0.161   1.525   6.758 -0.7605 -0.1719 -0.0830
   77SLPC   C23 6973   0.241   1.930   6.998 -0.3101 -0.9659  0.2510
   77SLPC   H3R 6974   0.148   1.958   7.051 -1.0878 -2.9315 -0.0143
   77SLPC   H3S 6975   0.279   2.021   6.945  0.2839 -1.2259  0.2273
   77SLPC   C24 6976   0.345   1.900   7.113  0.0978  0.5560 -0.2525
   77SLPC   H4R 6977   0.303   1.941   7.207 -1.1360 -0.5890 -0.2792
   77SLPC   H4S 6978   0.440   1.953   7.093  1.2044 -1.2070  0.2797
   77SLPC   C25 6979   0.378   1.755   7.121 -0.3002 -0.1629  0.0324
   77SLPC   H5R 6980   0.410   1.717   7.022 -0.4120 -0.0695 -0.0384
   77SLPC   H5S 6981   0.301   1.695   7.174  0.9475 -1.1003  0.8222
   77SLPC   C26 6982   0.512   1.735   7.204  0.3533 -0.0073 -0.3344
   77SLPC   H6R 6983   0.494   1.766   7.309  0.8776 -1.5304  0.2132
   77SLPC   H6S 6984   0.578   1.812   7.157 -0.4899 -0.7624 -2.8182
   77SLPC   C27 6985   0.579   1.597   7.193 -0.4548 -0.1117  0.2132
   77SLPC   H7R 6986   0.604   1.582   7.086 -3.2888 -0.9772 -0.3819
   77SLPC   H7S 6987   0.508   1.514   7.216 -0.7238  0.4041  1.2428
   77SLPC   C28 6988   0.713   1.610   7.276 -0.0183 -0.6775  0.0628
   77SLPC   H8R 6989   0.757   1.700   7.227 -0.9796  0.2923  0.9557
   77SLPC   H8S 6990   0.784   1.529   7.249  1.0826 -0.5557  2.5354
   77SLPC   C29 6991   0.700   1.632   7.428 -0.3188  0.2284  0.4379
   77SLPC   H9R 6992   0.662   1.732   7.451 -1.6832  0.1832 -1.5606
   77SLPC  C210 6993   0.732   1.546   7.530 -0.1107 -0.5195  0.3743
   77SLPC  H10R 6994   0.700   1.586   7.628  1.3595 -0.2073  0.7342
   77SLPC  C211 6995   0.789   1.410   7.505 -0.2457  0.1016  0.3589
   77SLPC  H11R 6996   0.897   1.407   7.530 -1.0518  1.0800  4.2641
   77SLPC  H11S 6997   0.772   1.382   7.399 -2.4997  0.1414  0.6752
   77SLPC  C212 6998   0.708   1.317   7.590 -0.1957  0.1519 -0.6378
   77SLPC  H12R 6999   0.605   1.313   7.551 -0.0669 -1.6874 -0.8529
   77SLPC  C213 7000   0.752   1.246   7.693  0.7573 -0.0211 -0.3505
   77SLPC  H13R 7001   0.678   1.182   7.743  0.4409  0.7392  0.1686
   77SLPC  C214 7002   0.896   1.240   7.738 -0.6987 -0.1264  0.3777
   77SLPC  H14R 7003   0.970   1.266   7.659  2.0577 -2.3248  2.1111
   77SLPC  H14S 7004   0.909   1.130   7.747 -0.9646 -0.1705  0.2255
   77SLPC  C215 7005   0.920   1.322   7.868  0.1157  0.0175  0.6020
   77SLPC  H15R 7006   0.842   1.305   7.945 -0.0955 -2.2211 -0.0716
   77SLPC  H15S 7007   0.920   1.431   7.844 -1.3475  0.2592  1.6539
   77SLPC  C216 7008   1.059   1.285   7.918 -0.7783  0.6868  0.4195
   77SLPC  H16R 7009   1.069   1.353   8.005  0.0512  2.3029 -0.8968
   77SLPC  H16S 7010   1.144   1.322   7.857  0.0833  0.5673  1.5303
   77SLPC  C217 7011   1.079   1.143   7.968 -0.2592  0.1535 -0.4377
   77SLPC  H17R 7012   0.983   1.094   7.943 -0.9372  0.7496  0.9567
   77SLPC  H17S 7013   1.089   1.145   8.078 -2.8381 -0.1991 -0.1817
   77SLPC  C218 7014   1.178   1.057   7.897 -0.0004 -0.1961  0.5455
   77SLPC  H18R 7015   1.201   0.958   7.943 -0.7498 -0.4056  0.4790
   77SLPC  H18S 7016   1.267   1.124   7.901 -1.5281  2.1193 -2.6797
   77SLPC  H18T 7017   1.145   1.044   7.792 -1.7296  1.2550  0.8927
   77SLPC   C33 7018  -0.032   1.360   6.834  0.4525  0.5384  0.9124
   77SLPC   H3X 7019   0.036   1.295   6.775 -0.3849  0.5543 -0.0746
   77SLPC   H3Y 7020  -0.101   1.299   6.896 -0.1577  0.6074  0.3006
   77SLPC   C34 7021   0.048   1.457   6.928 -0.0735  0.9704 -0.0289
   77SLPC   H4X 7022  -0.005   1.552   6.948 -1.9361 -0.0666  0.0827
   77SLPC   H4Y 7023   0.147   1.468   6.879 -0.1377 -2.1452 -1.0005
   77SLPC   C35 7024   0.079   1.416   7.076 -0.4181 -0.2086 -0.4569
   77SLPC   H5X 7025   0.140   1.491   7.131 -1.9386  0.7013  0.0328
   77SLPC   H5Y 7026   0.144   1.327   7.079  0.8075  0.6570 -0.9338
   77SLPC   C36 7027  -0.055   1.379   7.151  0.1497  0.3097 -0.8177
   77SLPC   H6X 7028  -0.076   1.273   7.122 -0.5430  0.1912  0.1091
   77SLPC   H6Y 7029  -0.128   1.451   7.109 -1.9916 -1.0007  0.5846
   77SLPC   C37 7030  -0.048   1.398   7.304 -0.5517 -0.8993 -0.3040
   77SLPC   H7X 7031  -0.036   1.505   7.332  2.7983 -0.7283 -2.1116
   77SLPC   H7Y 7032   0.044   1.347   7.340  1.1200 -0.0123 -3.1033
   77SLPC   C38 7033  -0.167   1.335   7.378  0.1482  0.4225  0.4032
   77SLPC   H8X 7034  -0.177   1.228   7.347  2.0565  1.0078 -2.5355
   77SLPC   H8Y 7035  -0.262   1.384   7.347  0.7281  1.1201 -0.2867
   77SLPC   C39 7036  -0.151   1.328   7.531 -0.2070  0.6122 -0.7403
   77SLPC   H9X 7037  -0.138   1.432   7.568  1.3660  0.0780  0.2459
   77SLPC   H9Y 7038  -0.061   1.269   7.556 -1.6253 -0.2826  2.4582
   77SLPC  C310 7039  -0.282   1.276   7.602  0.2005 -0.3257  0.1675
   77SLPC  H10X 7040  -0.288   1.174   7.560 -0.0347  0.6110 -2.1255
   77SLPC  H10Y 7041  -0.376   1.328   7.576 -0.9365 -1.8466  1.2186
   77SLPC  C311 7042  -0.288   1.294   7.751  0.2146  0.2397 -0.0206
   77SLPC  H11X 7043  -0.302   1.402   7.773  0.2909  0.4883 -1.1380
   77SLPC  H11Y 7044  -0.190   1.268   7.795 -0.1337  0.3021  0.7959
   77SLPC  C312 7045  -0.395   1.207   7.817 -0.1545  0.5013 -0.0838
   77SLPC  H12X 7046  -0.357   1.103   7.820 -1.2436  0.1299  2.1561
   77SLPC  H12Y 7047  -0.480   1.213   7.747 -1.0645 -1.2526  0.8302
   77SLPC  C313 7048  -0.431   1.256   7.957 -0.1243 -0.0157  0.5806
   77SLPC  H13X 7049  -0.522   1.204   7.994 -1.8063  2.5393  0.1951
   77SLPC  H13Y 7050  -0.461   1.361   7.938  1.7111  0.2760 -0.8335
   77SLPC  C314 7051  -0.321   1.234   8.058 -0.0020  0.7189 -0.0116
   77SLPC  H14X 7052  -0.226   1.286   8.032  0.1228 -0.2241 -1.4948
   77SLPC  H14Y 7053  -0.296   1.126   8.063  0.5389  0.7844 -1.0716
   77SLPC  C315 7054  -0.357   1.293   8.196  0.6255  0.2833 -0.0824
   77SLPC  H15X 7055  -0.442   1.243   8.247  0.5209  2.0979  1.6141
   77SLPC  H15Y 7056  -0.394   1.396   8.176  1.7107  0.9229  1.1089
   77SLPC  C316 7057  -0.237   1.318   8.279  0.0659 -0.1041 -0.4083
   77SLPC  H16X 7058  -0.176   1.392   8.222 -0.0229 -0.8883 -1.5424
   77SLPC  H16Y 7059  -0.170   1.230   8.284  0.3647  0.1350 -0.2029
   77SLPC  C317 7060  -0.263   1.374   8.409 -0.5853  0.2118  0.1458
   77SLPC  H17X 7061  -0.170   1.387   8.468  0.1274 -1.7866 -0.4682
   77SLPC  H17Y 7062  -0.309   1.300   8.479 -1.3752 -0.6198 -1.2240
   77SLPC  C318 7063  -0.351   1.498   8.408  0.5777  0.1726  0.1820
   77SLPC  H18X 7064  -0.356   1.547   8.508 -0.8845 -0.5888  0.4888
   77SLPC  H18Y 7065  -0.455   1.463   8.396  0.3624 -0.1981  2.7140
   77SLPC  H18Z 7066  -0.309   1.571   8.335  0.6809  0.0178  0.0887
   78SLPC     N 7067   3.126   2.438   5.953  0.2755  0.0370 -0.5811
   78SLPC   C13 7068   3.086   2.311   5.893 -0.1230 -0.4262 -0.0285
   78SLPC  H13A 7069   2.998   2.269   5.939 -0.5080  0.9980  0.5516
   78SLPC  H13B 7070   3.057   2.320   5.790 -0.0059  0.3542  0.0061
   78SLPC  H13C 7071   3.164   2.236   5.896  0.0992 -0.1553  1.1722
   78SLPC   C14 7072   3.239   2.486   5.872 -0.1183 -0.6149 -0.4375
   78SLPC  H14A 7073   3.221   2.494   5.765 -0.7672 -1.5024 -0.3973
   78SLPC  H14B 7074   3.273   2.582   5.908  1.6956 -0.9826 -1.0641
   78SLPC  H14C 7075   3.318   2.414   5.886 -0.2809 -0.7732 -0.3475
   78SLPC   C15 7076   3.179   2.418   6.090 -0.9884 -0.2938  0.1538
   78SLPC  H15A 7077   3.266   2.353   6.092  0.5821  1.7308  4.0277
   78SLPC  H15B 7078   3.203   2.505   6.149  0.4327 -1.2748  1.0693
   78SLPC  H15C 7079   3.104   2.372   6.153 -1.4055 -3.3087 -2.4302
   78SLPC   C12 7080   3.013   2.542   5.958 -0.1075 -0.7376  0.0047
   78SLPC  H12A 7081   2.984   2.558   5.855  2.5243 -0.5558 -0.7313
   78SLPC  H12B 7082   3.054   2.635   5.995 -1.0873 -0.9106  1.5876
   78SLPC   C11 7083   2.879   2.505   6.033  0.1312  0.1022 -0.5470
   78SLPC  H11A 7084   2.837   2.411   5.991 -0.5964  0.4142 -0.5187
   78SLPC  H11B 7085   2.804   2.584   6.013  0.2689  0.6808  1.1856
   78SLPC     P 7086   2.940   2.616   6.259 -0.0652  0.0323 -0.3478
   78SLPC   O13 7087   3.023   2.714   6.195 -0.0113  0.6371 -0.3074
   78SLPC   O14 7088   2.809   2.652   6.318  0.0803 -0.6257  0.0544
   78SLPC   O12 7089   2.909   2.489   6.172 -0.2904  0.0401  0.3385
   78SLPC   O11 7090   3.015   2.544   6.378 -0.1816  0.2844  0.4912
   78SLPC    C1 7091   3.142   2.590   6.432 -0.5811 -0.2177 -0.8289
   78SLPC    HA 7092   3.226   2.526   6.395 -0.5802 -0.9090  0.3396
   78SLPC    HB 7093   3.160   2.699   6.419  2.3508 -0.4960  0.4048
   78SLPC    C2 7094   3.141   2.560   6.591 -0.2595  1.5032 -0.1814
   78SLPC    HS 7095   3.243   2.585   6.628  0.2313  0.3901 -0.7531
   78SLPC   O21 7096   3.110   2.421   6.608  0.5513  0.1093 -0.1876
   78SLPC   C21 7097   3.182   2.358   6.702 -0.4139 -1.2708  0.0744
   78SLPC   O22 7098   3.276   2.409   6.766  0.6138  0.5465  0.0901
   78SLPC   C22 7099   3.120   2.214   6.730  0.3805 -0.5807 -0.5289
   78SLPC   H2R 7100   3.011   2.222   6.708  0.6530  3.2871 -0.8903
   78SLPC   H2S 7101   3.179   2.154   6.658  2.8777  1.0350  0.1139
   78SLPC    C3 7102   3.028   2.635   6.670 -0.2394  0.7005 -0.4725
   78SLPC    HX 7103   2.927   2.591   6.653 -1.1850  1.3470  3.0835
   78SLPC    HY 7104   3.015   2.740   6.639  0.4163  1.3789  1.4848
   78SLPC   O31 7105   3.043   2.620   6.817 -0.3851  0.6005 -0.2122
   78SLPC   C31 7106   3.137   2.691   6.874 -0.1766 -0.2664  0.2858
   78SLPC   O32 7107   3.209   2.776   6.816 -0.5879 -0.0385  0.5415
   78SLPC   C32 7108   3.158   2.651   7.018  0.3444  0.3216  0.7067
   78SLPC   H2X 7109   3.099   2.557   7.029  1.4799 -0.0210  4.3604
   78SLPC   H2Y 7110   3.108   2.729   7.080  0.8422  0.3816  1.0347
   78SLPC   C23 7111   3.145   2.168   6.874  0.5479  0.0028  0.1842
   78SLPC   H3R 7112   3.249   2.178   6.912  0.1830 -2.3561  1.8962
   78SLPC   H3S 7113   3.119   2.060   6.880  1.1349 -0.0891  1.1184
   78SLPC   C24 7114   3.055   2.235   6.975 -1.0142  0.2638  0.1930
   78SLPC   H4R 7115   2.952   2.196   6.973 -1.9227  2.6025 -1.0193
   78SLPC   H4S 7116   3.058   2.342   6.945  1.5317 -0.6817 -3.1249
   78SLPC   C25 7117   3.102   2.208   7.118  0.3278 -0.1528 -0.4238
   78SLPC   H5R 7118   3.195   2.263   7.140  0.2199 -0.8145  1.7773
   78SLPC   H5S 7119   3.111   2.099   7.135  0.5236 -0.2557 -1.1733
   78SLPC   C26 7120   3.010   2.272   7.221 -0.3011 -0.3298  1.0473
   78SLPC   H6R 7121   2.906   2.241   7.195  0.3313 -0.3407 -1.6470
   78SLPC   H6S 7122   3.009   2.383   7.220 -3.0791 -0.3068 -1.7083
   78SLPC   C27 7123   3.038   2.215   7.363 -0.3508 -0.1411 -0.0800
   78SLPC   H7R 7124   3.147   2.225   7.384 -0.0155 -1.3765 -1.1940
   78SLPC   H7S 7125   3.016   2.107   7.354  1.9549 -0.6641  0.2933
   78SLPC   C28 7126   2.960   2.286   7.470  0.2566  0.1891 -0.2612
   78SLPC   H8R 7127   2.850   2.298   7.456  0.3954  0.6669 -0.9301
   78SLPC   H8S 7128   2.982   2.394   7.484 -2.5171  0.7138  0.4573
   78SLPC   C29 7129   2.994   2.217   7.599 -0.6177 -0.4033 -0.1061
   78SLPC   H9R 7130   3.001   2.107   7.599  0.9073 -0.3173  0.5540
   78SLPC  C210 7131   3.007   2.276   7.725  0.0409  0.2913 -0.2005
   78SLPC  H10R 7132   3.057   2.212   7.799  0.6571  1.2623  0.2348
   78SLPC  C211 7133   2.989   2.419   7.761  0.4705  0.1024 -0.3073
   78SLPC  H11R 7134   2.899   2.456   7.708 -0.4172 -1.0629  0.3855
   78SLPC  H11S 7135   3.072   2.489   7.734  0.4305  0.6550  0.9593
   78SLPC  C212 7136   2.954   2.438   7.900  0.0410  0.2426  0.0613
   78SLPC  H12R 7137   2.870   2.377   7.938  1.0373 -1.3581 -0.2637
   78SLPC  C213 7138   2.998   2.529   7.984 -0.1892  0.2683 -0.2061
   78SLPC  H13R 7139   2.959   2.534   8.087  0.6166 -1.1602  0.1769
   78SLPC  C214 7140   3.099   2.637   7.949 -0.3857  0.2951  0.0261
   78SLPC  H14R 7141   3.086   2.722   8.020 -0.5758  2.4521 -2.5116
   78SLPC  H14S 7142   3.073   2.686   7.853  0.5948  1.1908  0.2123
   78SLPC  C215 7143   3.240   2.596   7.963 -0.2595 -0.0699  0.2157
   78SLPC  H15R 7144   3.246   2.499   7.908  2.7077 -1.5927  3.0727
   78SLPC  H15S 7145   3.257   2.562   8.067  1.8177 -0.6613 -0.2833
   78SLPC  C216 7146   3.351   2.691   7.917 -0.3283 -0.1601  0.2798
   78SLPC  H16R 7147   3.348   2.673   7.807  0.2170 -3.6501  0.7650
   78SLPC  H16S 7148   3.445   2.664   7.969 -0.9675 -0.1721  1.4284
   78SLPC  C217 7149   3.333   2.842   7.947  0.3766  0.3480  0.1223
   78SLPC  H17R 7150   3.231   2.870   7.914  0.8939  1.6935 -0.3727
   78SLPC  H17S 7151   3.414   2.903   7.901  1.5892 -0.4230  1.1863
   78SLPC  C218 7152   3.334   2.883   8.096  0.5120 -0.4819 -0.1489
   78SLPC  H18R 7153   3.434   2.854   8.134 -0.1294 -0.8348  1.3134
   78SLPC  H18S 7154   3.260   2.817   8.146 -1.2375  0.8991 -0.8315
   78SLPC  H18T 7155   3.306   2.988   8.120  1.0898  0.0677 -1.8189
   78SLPC   C33 7156   3.301   2.634   7.066 -0.0243  0.3526 -0.6325
   78SLPC   H3X 7157   3.373   2.655   6.984 -0.8869 -0.7189 -1.6883
   78SLPC   H3Y 7158   3.311   2.528   7.098  3.7299  1.3724  1.9099
   78SLPC   C34 7159   3.322   2.708   7.198 -0.0488 -0.2914 -0.5106
   78SLPC   H4X 7160   3.280   2.807   7.168  0.4675  0.2777  0.6144
   78SLPC   H4Y 7161   3.429   2.732   7.212 -0.1643  0.2492 -0.5255
   78SLPC   C35 7162   3.243   2.663   7.326 -0.2776  0.2859  0.1723
   78SLPC   H5X 7163   3.265   2.556   7.349  0.5191  0.4070 -0.0054
   78SLPC   H5Y 7164   3.135   2.677   7.302 -0.8556  1.6219  3.2943
   78SLPC   C36 7165   3.267   2.748   7.456  0.2546  0.0912  0.3191
   78SLPC   H6X 7166   3.375   2.759   7.482 -0.0551 -2.5429  2.9600
   78SLPC   H6Y 7167   3.220   2.680   7.530 -0.1832  0.7750  0.6813
   78SLPC   C37 7168   3.194   2.887   7.446  0.2640 -0.4695 -0.8945
   78SLPC   H7X 7169   3.091   2.862   7.414 -0.8442 -0.4221  2.5087
   78SLPC   H7Y 7170   3.248   2.952   7.373 -0.8416  2.8894  1.1619
   78SLPC   C38 7171   3.185   2.958   7.583 -0.0849  0.0955  0.2923
   78SLPC   H8X 7172   3.287   2.989   7.614  0.6288 -1.5912 -0.3201
   78SLPC   H8Y 7173   3.157   2.881   7.658 -0.2502 -2.3084 -2.1727
   78SLPC   C39 7174   3.086   3.068   7.585  0.2941 -0.9025  0.0925
   78SLPC   H9X 7175   2.986   3.030   7.555 -0.4825  0.3141  1.0698
   78SLPC   H9Y 7176   3.121   3.152   7.522 -1.6113  0.1096  0.3282
   78SLPC  C310 7177   3.075   3.117   7.735  0.2254 -0.4623  0.2123
   78SLPC  H10X 7178   3.039   3.036   7.801  0.7289 -1.2451 -0.4518
   78SLPC  H10Y 7179   2.993   3.191   7.731  1.4551  0.8893 -0.9115
   78SLPC  C311 7180   3.199   3.180   7.788  0.3079 -0.2454 -0.1873
   78SLPC  H11X 7181   3.260   3.226   7.707  2.2605  0.5706  1.6918
   78SLPC  H11Y 7182   3.270   3.104   7.827 -0.2838 -1.2868 -1.1125
   78SLPC  C312 7183   3.187   3.285   7.899 -0.2340  0.5689 -0.2468
   78SLPC  H12X 7184   3.166   3.228   7.992  1.0642  0.0043 -0.3024
   78SLPC  H12Y 7185   3.095   3.341   7.870  0.6231  0.4752 -3.2208
   78SLPC  C313 7186   3.300   3.391   7.899  0.3134 -0.8195 -0.0030
   78SLPC  H13X 7187   3.309   3.422   7.793 -0.4586  0.4828  0.3122
   78SLPC  H13Y 7188   3.399   3.348   7.926  0.7692 -0.1732 -0.6288
   78SLPC  C314 7189   3.285   3.520   7.985  0.9090 -0.2920  0.6687
   78SLPC  H14X 7190   3.195   3.581   7.960 -0.4007 -1.6606  2.0021
   78SLPC  H14Y 7191   3.370   3.589   7.967  1.8144 -1.2469  1.2292
   78SLPC  C315 7192   3.271   3.501   8.132  0.1087  0.2204 -0.3909
   78SLPC  H15X 7193   3.371   3.474   8.172  0.1181 -0.6147 -0.9530
   78SLPC  H15Y 7194   3.193   3.429   8.166  1.0421  0.1460  1.6360
   78SLPC  C316 7195   3.209   3.623   8.212  0.2873 -0.2410  0.5370
   78SLPC  H16X 7196   3.103   3.639   8.184  0.2335  0.7796  1.2986
   78SLPC  H16Y 7197   3.264   3.718   8.199  0.5233 -0.6155 -1.2531
   78SLPC  C317 7198   3.203   3.606   8.368 -0.1031  0.8378 -0.0783
   78SLPC  H17X 7199   3.301   3.621   8.418  0.9555 -2.3699 -1.1126
   78SLPC  H17Y 7200   3.172   3.502   8.391 -0.5984  1.0892  0.3807
   78SLPC  C318 7201   3.104   3.695   8.446 -0.4627 -0.1479  0.0724
   78SLPC  H18X 7202   3.128   3.682   8.554 -0.3268 -2.2514 -0.1963
   78SLPC  H18Y 7203   2.997   3.667   8.435 -1.1620  2.2546  0.4438
   78SLPC  H18Z 7204   3.113   3.802   8.418  1.4227 -0.8435 -2.1567
   79SLPC     N 7205   0.625   5.225   6.065 -0.1780 -0.2427  0.3761
   79SLPC   C13 7206   0.744   5.125   6.052  0.3819 -0.5987 -0.6045
   79SLPC  H13A 7207   0.823   5.155   6.119 -2.1235  3.5029  0.7277
   79SLPC  H13B 7208   0.703   5.029   6.077 -1.2757  0.3154  0.2539
   79SLPC  H13C 7209   0.772   5.128   5.947  3.1000  1.1152  0.1130
   79SLPC   C14 7210   0.667   5.357   6.010  0.5241  0.5246 -0.1656
   79SLPC  H14A 7211   0.702   5.351   5.908 -1.4488 -1.6127 -0.7525
   79SLPC  H14B 7212   0.586   5.429   6.022 -0.2878 -0.6201  1.4295
   79SLPC  H14C 7213   0.752   5.391   6.067  0.7634 -0.0540 -0.1825
   79SLPC   C15 7214   0.602   5.237   6.213  0.0720 -0.5802 -0.0637
   79SLPC  H15A 7215   0.673   5.298   6.266 -1.2373  0.7829  0.1454
   79SLPC  H15B 7216   0.499   5.268   6.226  0.5357  1.5389 -1.3331
   79SLPC  H15C 7217   0.617   5.138   6.255  1.2125 -2.0314 -3.6997
   79SLPC   C12 7218   0.507   5.183   5.984 -0.3525 -0.1920 -0.0669
   79SLPC  H12A 7219   0.483   5.080   6.007 -0.4477 -0.4323 -1.2298
   79SLPC  H12B 7220   0.543   5.184   5.883 -0.5528  0.1453 -0.1350
   79SLPC   C11 7221   0.380   5.270   5.982 -0.3359 -0.0240 -1.0073
   79SLPC  H11A 7222   0.313   5.229   5.903 -3.6982  2.9102  0.1899
   79SLPC  H11B 7223   0.407   5.374   5.953  0.9381 -0.0145  0.1654
   79SLPC     P 7224   0.177   5.221   6.146  0.0296 -0.1536  0.1275
   79SLPC   O13 7225   0.085   5.339   6.147  0.2612 -0.3772  0.1951
   79SLPC   O14 7226   0.140   5.102   6.065  0.2913  0.3069 -0.5621
   79SLPC   O12 7227   0.319   5.268   6.114  0.2881  0.8111  0.1907
   79SLPC   O11 7228   0.198   5.164   6.286  0.2142 -0.1353 -0.6407
   79SLPC    C1 7229   0.260   5.219   6.399 -0.2276  0.2144  0.1698
   79SLPC    HA 7230   0.298   5.137   6.464  1.8758  1.7292  0.8979
   79SLPC    HB 7231   0.356   5.266   6.368  0.9071  0.4246  3.8024
   79SLPC    C2 7232   0.170   5.314   6.488 -0.2782 -0.8033 -0.4661
   79SLPC    HS 7233   0.137   5.405   6.434 -1.6497  1.1022  3.3630
   79SLPC   O21 7234   0.239   5.353   6.604 -0.0847  0.6259  0.4300
   79SLPC   C21 7235   0.321   5.453   6.593  0.3897 -0.1223 -0.2806
   79SLPC   O22 7236   0.340   5.523   6.493  0.0778  0.6255 -0.6249
   79SLPC   C22 7237   0.376   5.470   6.735  0.4454 -0.0480 -0.1119
   79SLPC   H2R 7238   0.438   5.383   6.765  0.3599  0.0908  0.4730
   79SLPC   H2S 7239   0.448   5.555   6.727 -0.1859  0.6445  1.3345
   79SLPC    C3 7240   0.032   5.255   6.537  0.1438 -0.2920  0.1717
   79SLPC    HX 7241  -0.018   5.221   6.443 -0.3651 -2.6888  1.2613
   79SLPC    HY 7242  -0.037   5.331   6.580  0.5080 -0.0715  0.3677
   79SLPC   O31 7243   0.046   5.133   6.614 -0.1015 -0.2516 -0.6714
   79SLPC   C31 7244   0.004   5.131   6.741 -0.1006  0.4697 -0.2925
   79SLPC   O32 7245  -0.036   5.228   6.801  0.3224 -0.0812 -0.1536
   79SLPC   C32 7246   0.004   4.993   6.800 -0.0592 -0.5066  1.1468
   79SLPC   H2X 7247   0.097   4.946   6.760 -2.2146 -3.1396 -0.9655
   79SLPC   H2Y 7248  -0.082   4.941   6.753 -1.8313  1.4213  2.1855
   79SLPC   C23 7249   0.281   5.510   6.857  0.0297 -0.1982 -0.3818
   79SLPC   H3R 7250   0.197   5.440   6.873 -1.6699  2.1991  1.5988
   79SLPC   H3S 7251   0.236   5.601   6.810 -1.9999 -1.8024 -1.6227
   79SLPC   C24 7252   0.350   5.538   6.986 -0.0510 -0.3496  0.3329
   79SLPC   H4R 7253   0.441   5.596   6.958 -0.4822 -0.2613 -0.9528
   79SLPC   H4S 7254   0.392   5.440   7.019  1.9180  0.0567 -0.8405
   79SLPC   C25 7255   0.278   5.613   7.099  0.0028  0.2683  0.4635
   79SLPC   H5R 7256   0.201   5.539   7.129  1.0489 -1.9728 -2.1243
   79SLPC   H5S 7257   0.239   5.704   7.048  1.0432 -0.8679 -2.5061
   79SLPC   C26 7258   0.368   5.644   7.212  0.1803  0.0648 -0.4356
   79SLPC   H6R 7259   0.446   5.715   7.176 -1.8754  0.7868 -3.7088
   79SLPC   H6S 7260   0.409   5.559   7.272  1.6676  0.9942 -0.1060
   79SLPC   C27 7261   0.286   5.718   7.320  0.2095  0.4318 -0.1239
   79SLPC   H7R 7262   0.214   5.791   7.278  0.3520 -0.6160 -2.3175
   79SLPC   H7S 7263   0.353   5.769   7.392  0.8669 -1.4350  0.6113
   79SLPC   C28 7264   0.205   5.623   7.411 -0.3597 -0.3524  0.3003
   79SLPC   H8R 7265   0.140   5.561   7.346  0.7425  0.4772 -1.6442
   79SLPC   H8S 7266   0.142   5.676   7.486  0.9116 -0.1113  1.2135
   79SLPC   C29 7267   0.287   5.526   7.488 -0.5588  0.0207 -0.0206
   79SLPC   H9R 7268   0.311   5.436   7.430 -0.2235  0.8694 -1.2202
   79SLPC  C210 7269   0.344   5.543   7.612  0.2152 -0.0398 -0.1523
   79SLPC  H10R 7270   0.396   5.463   7.667  4.1281  1.0963 -2.0710
   79SLPC  C211 7271   0.325   5.665   7.708 -0.3582  0.2888  0.3581
   79SLPC  H11R 7272   0.271   5.624   7.795 -0.8175 -0.0148 -0.0707
   79SLPC  H11S 7273   0.269   5.741   7.649  0.0646 -0.3358 -0.8712
   79SLPC  C212 7274   0.459   5.721   7.749  0.4147 -0.4301 -0.2839
   79SLPC  H12R 7275   0.518   5.743   7.658  0.5770  0.9089  0.1346
   79SLPC  C213 7276   0.509   5.765   7.869 -0.3385  0.6220  0.4802
   79SLPC  H13R 7277   0.596   5.831   7.859 -1.0585  1.4936 -0.2065
   79SLPC  C214 7278   0.430   5.764   8.001 -0.2286 -0.4638  0.6978
   79SLPC  H14R 7279   0.320   5.751   7.986 -0.3618  2.4145 -1.2742
   79SLPC  H14S 7280   0.437   5.860   8.056  0.7492 -1.3728  2.1725
   79SLPC  C215 7281   0.475   5.640   8.072  0.1779  0.8430 -0.1972
   79SLPC  H15R 7282   0.573   5.657   8.120  0.8939 -2.0005 -0.5281
   79SLPC  H15S 7283   0.469   5.552   8.004 -4.0501 -0.1926  1.3245
   79SLPC  C216 7284   0.378   5.597   8.190 -0.2270 -0.7802 -0.9761
   79SLPC  H16R 7285   0.394   5.490   8.212 -0.9062 -0.3670  1.7290
   79SLPC  H16S 7286   0.274   5.600   8.151 -0.4222  0.1975 -0.4041
   79SLPC  C217 7287   0.394   5.682   8.315  0.2627 -0.2642 -0.3327
   79SLPC  H17R 7288   0.440   5.777   8.278  0.1292 -0.0917 -0.0584
   79SLPC  H17S 7289   0.475   5.630   8.370  0.8518 -0.3132 -1.2343
   79SLPC  C218 7290   0.270   5.692   8.401  0.4659 -0.0166 -0.3056
   79SLPC  H18R 7291   0.220   5.594   8.421 -1.4606  1.1279  0.5708
   79SLPC  H18S 7292   0.198   5.759   8.350  0.1887 -0.8206 -0.9988
   79SLPC  H18T 7293   0.300   5.741   8.496 -0.0109  1.4256 -0.8927
   79SLPC   C33 7294  -0.017   4.970   6.950 -0.3027 -0.3791 -0.7008
   79SLPC   H3X 7295  -0.105   5.023   6.991 -0.0813 -0.3862 -0.2039
   79SLPC   H3Y 7296   0.072   5.010   7.003 -0.2767  1.0770 -1.8108
   79SLPC   C34 7297  -0.019   4.816   6.987 -0.2822 -0.0316  0.6510
   79SLPC   H4X 7298   0.059   4.768   6.923 -0.4624 -0.5050  0.7844
   79SLPC   H4Y 7299  -0.119   4.775   6.962 -1.3910  2.9637 -0.0057
   79SLPC   C35 7300   0.015   4.786   7.131  0.0430  0.4874  0.8344
   79SLPC   H5X 7301  -0.056   4.847   7.191 -1.9297  0.6081 -1.5081
   79SLPC   H5Y 7302   0.118   4.822   7.151 -0.3318  1.8869  0.2876
   79SLPC   C36 7303   0.002   4.641   7.169  0.1226 -0.4816 -1.1860
   79SLPC   H6X 7304   0.096   4.592   7.137  1.1246 -0.0643  1.0106
   79SLPC   H6Y 7305  -0.080   4.593   7.111 -2.7219  1.0981  1.3751
   79SLPC   C37 7306  -0.014   4.626   7.324 -0.3421 -0.2979  0.7052
   79SLPC   H7X 7307  -0.001   4.517   7.338 -3.1963 -0.7341  0.3662
   79SLPC   H7Y 7308  -0.117   4.654   7.354 -0.8553 -0.8243 -0.5040
   79SLPC   C38 7309   0.084   4.716   7.397 -0.1271 -0.7555  0.0680
   79SLPC   H8X 7310   0.042   4.819   7.393 -1.7162 -1.3067  1.7893
   79SLPC   H8Y 7311   0.189   4.707   7.361  0.6830 -1.2858  2.4719
   79SLPC   C39 7312   0.097   4.658   7.539  0.3242  0.2114 -0.2793
   79SLPC   H9X 7313   0.150   4.561   7.534  0.9482  0.4813  1.0507
   79SLPC   H9Y 7314  -0.002   4.628   7.578  0.6742 -0.3019  0.2134
   79SLPC  C310 7315   0.160   4.757   7.638  0.7092 -0.1649  0.5722
   79SLPC  H10X 7316   0.111   4.854   7.617  0.4896 -0.1499  1.1763
   79SLPC  H10Y 7317   0.264   4.778   7.604  0.1069 -0.2616 -1.4417
   79SLPC  C311 7318   0.182   4.701   7.779  0.4421 -0.3449  0.4333
   79SLPC  H11X 7319   0.227   4.600   7.795 -1.1633 -1.4827 -2.0124
   79SLPC  H11Y 7320   0.081   4.695   7.823  0.5689 -1.7225  0.5655
   79SLPC  C312 7321   0.241   4.811   7.870 -0.2278 -0.2357  0.6764
   79SLPC  H12X 7322   0.182   4.906   7.863 -2.8109 -1.9544 -2.4748
   79SLPC  H12Y 7323   0.345   4.835   7.841 -0.1171  0.7263  1.7976
   79SLPC  C313 7324   0.248   4.760   8.011  1.0124 -0.6067 -0.4348
   79SLPC  H13X 7325   0.318   4.819   8.074 -1.8000 -0.0779  2.2811
   79SLPC  H13Y 7326   0.297   4.660   8.008 -0.1279 -1.2368  1.5092
   79SLPC  C314 7327   0.115   4.770   8.084  0.4177 -0.0270  0.0876
   79SLPC  H14X 7328   0.053   4.682   8.056 -0.8903  0.7286  0.5401
   79SLPC  H14Y 7329   0.056   4.856   8.047 -2.3536 -0.9019  2.2715
   79SLPC  C315 7330   0.114   4.784   8.237  0.1898 -0.0555 -0.1898
   79SLPC  H15X 7331   0.171   4.693   8.265  0.6255 -0.9696 -3.7577
   79SLPC  H15Y 7332   0.015   4.781   8.286 -0.3515  1.5247 -1.1572
   79SLPC  C316 7333   0.209   4.890   8.300 -0.0773 -0.2521 -0.1144
   79SLPC  H16X 7334   0.181   4.988   8.255 -0.0077 -1.2195 -2.3556
   79SLPC  H16Y 7335   0.314   4.869   8.273 -1.1177 -2.5133 -2.6582
   79SLPC  C317 7336   0.202   4.898   8.457  0.1813 -0.1231  0.7772
   79SLPC  H17X 7337   0.118   4.961   8.492  0.1842 -0.0116  0.5875
   79SLPC  H17Y 7338   0.291   4.959   8.483 -0.5780  1.4085 -0.1625
   79SLPC  C318 7339   0.206   4.761   8.524 -0.1465  0.0567 -1.0774
   79SLPC  H18X 7340   0.103   4.719   8.526 -0.6165  1.2516 -0.2820
   79SLPC  H18Y 7341   0.243   4.767   8.628 -1.7591  0.3516 -0.5148
   79SLPC  H18Z 7342   0.287   4.704   8.472 -0.6848 -0.4522 -1.3775
   80SLPC     N 7343   1.634   2.901   6.266  0.5436 -0.4510  0.1171
   80SLPC   C13 7344   1.718   2.818   6.169  0.5825  0.8002  0.1995
   80SLPC  H13A 7345   1.685   2.715   6.174 -2.3863  1.8041  2.1343
   80SLPC  H13B 7346   1.710   2.847   6.065 -0.7230  0.4362  0.1956
   80SLPC  H13C 7347   1.821   2.811   6.200  1.0653 -0.5225 -1.5937
   80SLPC   C14 7348   1.684   3.044   6.265 -0.4196  0.8719 -0.8621
   80SLPC  H14A 7349   1.671   3.093   6.361  0.1416 -2.1679  0.8530
   80SLPC  H14B 7350   1.791   3.046   6.249 -0.6977  0.0703 -2.9024
   80SLPC  H14C 7351   1.626   3.095   6.190 -3.5688 -0.0747  0.8637
   80SLPC   C15 7352   1.642   2.841   6.401 -0.5583 -0.5949  0.1455
   80SLPC  H15A 7353   1.590   2.747   6.409  0.0731 -0.9081  0.6264
   80SLPC  H15B 7354   1.742   2.827   6.439  0.0796  1.1969 -0.8230
   80SLPC  H15C 7355   1.588   2.899   6.475 -0.4004 -1.4757  0.9638
   80SLPC   C12 7356   1.497   2.891   6.209 -0.2245  0.4079 -0.6635
   80SLPC  H12A 7357   1.463   2.795   6.174 -0.6665  0.8924 -1.5690
   80SLPC  H12B 7358   1.483   2.963   6.130 -1.2812  1.6420  0.6199
   80SLPC   C11 7359   1.375   2.926   6.302 -0.3346 -0.5081  0.1422
   80SLPC  H11A 7360   1.383   2.878   6.402  0.3019 -0.5060  0.0886
   80SLPC  H11B 7361   1.281   2.890   6.256 -0.3103 -0.6494  0.2044
   80SLPC     P 7362   1.259   3.154   6.261  0.1979 -0.3290 -0.1231
   80SLPC   O13 7363   1.306   3.197   6.127 -0.2571  0.5313  0.7110
   80SLPC   O14 7364   1.127   3.090   6.260  0.3492 -0.1312 -0.0179
   80SLPC   O12 7365   1.366   3.066   6.326 -0.1784 -0.1892  0.6240
   80SLPC   O11 7366   1.261   3.281   6.355  0.0435 -0.2426  0.1790
   80SLPC    C1 7367   1.374   3.359   6.400  0.0552 -0.7273  0.0055
   80SLPC    HA 7368   1.464   3.349   6.336  0.3555  1.9484 -0.0404
   80SLPC    HB 7369   1.346   3.466   6.393  2.2533 -0.1343 -0.2894
   80SLPC    C2 7370   1.405   3.323   6.540  0.6822 -0.1953  0.3369
   80SLPC    HS 7371   1.433   3.216   6.534 -0.2003 -0.3558 -0.9055
   80SLPC   O21 7372   1.289   3.345   6.624 -0.3614 -0.0776 -0.5537
   80SLPC   C21 7373   1.252   3.253   6.701 -0.3444 -0.3091 -0.0046
   80SLPC   O22 7374   1.296   3.140   6.717 -0.5254 -0.7555 -0.9956
   80SLPC   C22 7375   1.126   3.305   6.771 -0.1284 -0.1769  0.1546
   80SLPC   H2R 7376   1.149   3.407   6.810  1.4449 -0.6709  0.5627
   80SLPC   H2S 7377   1.049   3.313   6.692  1.2816 -0.7399 -1.3186
   80SLPC    C3 7378   1.535   3.392   6.598 -1.1340 -0.5996  0.3798
   80SLPC    HX 7379   1.512   3.495   6.634 -1.3417  0.6974 -3.2076
   80SLPC    HY 7380   1.602   3.402   6.510 -0.5487 -2.2459  0.6244
   80SLPC   O31 7381   1.584   3.310   6.701  0.8857  0.4337 -0.1288
   80SLPC   C31 7382   1.652   3.208   6.674  0.2478  0.6198  0.6776
   80SLPC   O32 7383   1.702   3.178   6.567 -0.1612 -0.0285 -0.5205
   80SLPC   C32 7384   1.657   3.122   6.806 -0.3710 -0.2937 -0.4331
   80SLPC   H2X 7385   1.766   3.102   6.818  0.6441  4.2121 -1.1825
   80SLPC   H2Y 7386   1.615   3.021   6.790  1.1021 -1.0424  0.3165
   80SLPC   C23 7387   1.078   3.211   6.882 -0.5165  0.2568 -0.6065
   80SLPC   H3R 7388   1.082   3.108   6.841  0.5235  0.4775 -1.0757
   80SLPC   H3S 7389   0.974   3.242   6.905  0.6490  2.0040  2.5492
   80SLPC   C24 7390   1.160   3.212   7.012  0.9299  0.4869 -0.1654
   80SLPC   H4R 7391   1.259   3.163   7.006  1.4697  1.5686 -0.1626
   80SLPC   H4S 7392   1.103   3.146   7.081 -0.3532  0.3212 -1.3585
   80SLPC   C25 7393   1.166   3.351   7.073  0.1215 -0.2596  0.0249
   80SLPC   H5R 7394   1.082   3.421   7.056  2.3615  2.0957 -1.7985
   80SLPC   H5S 7395   1.255   3.406   7.035  0.2971  0.2420  1.1505
   80SLPC   C26 7396   1.188   3.358   7.229 -0.0198 -0.2296 -0.4719
   80SLPC   H6R 7397   1.120   3.282   7.271  0.1572 -1.2723 -2.0087
   80SLPC   H6S 7398   1.151   3.457   7.263  1.6640  0.3972 -0.3755
   80SLPC   C27 7399   1.330   3.353   7.277 -0.2834  0.7319  1.0133
   80SLPC   H7R 7400   1.386   3.442   7.240  3.0245 -1.4225  0.6545
   80SLPC   H7S 7401   1.383   3.269   7.226  1.2015  2.7417 -0.8750
   80SLPC   C28 7402   1.336   3.348   7.430 -0.1248 -0.0957 -0.1059
   80SLPC   H8R 7403   1.262   3.275   7.470  1.0655 -0.1991  1.9915
   80SLPC   H8S 7404   1.298   3.449   7.455  0.9750  0.3234 -0.1180
   80SLPC   C29 7405   1.466   3.312   7.493 -1.4035 -0.0974 -0.0174
   80SLPC   H9R 7406   1.551   3.282   7.430 -1.2950 -0.6358  0.3836
   80SLPC  C210 7407   1.496   3.320   7.623  0.2738  0.2208 -0.9524
   80SLPC  H10R 7408   1.591   3.280   7.661 -0.0498  0.5081  0.1593
   80SLPC  C211 7409   1.412   3.369   7.739 -1.6526  0.1272  0.4054
   80SLPC  H11R 7410   1.358   3.281   7.780  0.4744 -0.9328  0.9782
   80SLPC  H11S 7411   1.333   3.440   7.705 -1.9000 -0.3501 -0.0233
   80SLPC  C212 7412   1.490   3.448   7.842 -0.0837 -0.8242  0.5741
   80SLPC  H12R 7413   1.589   3.482   7.809 -1.0877  1.0474 -0.5984
   80SLPC  C213 7414   1.446   3.463   7.969  0.0449  0.7726 -0.4341
   80SLPC  H13R 7415   1.508   3.517   8.042 -0.5657 -2.1835  2.4120
   80SLPC  C214 7416   1.326   3.403   8.033  0.3796 -0.2256 -0.7037
   80SLPC  H14R 7417   1.285   3.311   7.986  0.5953 -0.6149 -0.1358
   80SLPC  H14S 7418   1.243   3.477   8.041  1.3413  0.6556  1.3405
   80SLPC  C215 7419   1.365   3.365   8.180 -0.6128  0.0951  0.2360
   80SLPC  H15R 7420   1.277   3.348   8.246 -0.4299 -0.6218  0.2918
   80SLPC  H15S 7421   1.429   3.447   8.219 -0.0432 -0.1207 -0.2401
   80SLPC  C216 7422   1.444   3.230   8.186 -0.6301  0.4584 -0.2214
   80SLPC  H16R 7423   1.536   3.232   8.125 -1.0872  1.0605 -0.8963
   80SLPC  H16S 7424   1.390   3.149   8.133  1.3297 -1.4452  0.5980
   80SLPC  C217 7425   1.468   3.191   8.331 -0.1992  0.5023  0.2091
   80SLPC  H17R 7426   1.373   3.159   8.380 -0.0845 -1.3184 -0.7417
   80SLPC  H17S 7427   1.510   3.282   8.380 -0.9202  1.6239 -1.2253
   80SLPC  C218 7428   1.554   3.064   8.341  0.2561  0.3027  0.0422
   80SLPC  H18R 7429   1.512   2.989   8.271 -2.5575  1.6352  0.2391
   80SLPC  H18S 7430   1.567   3.021   8.443 -0.4489 -0.6354 -0.2613
   80SLPC  H18T 7431   1.657   3.087   8.306  0.2770 -0.6112 -0.5094
   80SLPC   C33 7432   1.604   3.182   6.944 -0.0264 -0.6276 -0.4370
   80SLPC   H3X 7433   1.500   3.211   6.918 -0.5360 -0.8370  1.2960
   80SLPC   H3Y 7434   1.659   3.275   6.970 -0.7191 -0.5331  0.7026
   80SLPC   C34 7435   1.603   3.080   7.056 -0.6912  0.6724 -0.1514
   80SLPC   H4X 7436   1.527   3.009   7.017 -0.0432  0.1471 -0.4655
   80SLPC   H4Y 7437   1.567   3.130   7.149  2.1435 -1.0835  1.9792
   80SLPC   C35 7438   1.738   3.010   7.085  0.0846 -0.1891 -0.2343
   80SLPC   H5X 7439   1.780   2.976   6.988  0.3568  0.3172 -0.2932
   80SLPC   H5Y 7440   1.709   2.926   7.153 -1.5212  0.8855  0.4409
   80SLPC   C36 7441   1.831   3.109   7.147 -1.1558 -0.3858 -0.8520
   80SLPC   H6X 7442   1.853   3.194   7.079 -1.0697 -1.6177 -2.4058
   80SLPC   H6Y 7443   1.925   3.050   7.154 -0.7167  0.5719  1.7480
   80SLPC   C37 7444   1.787   3.147   7.289  0.5014 -0.5057 -0.3511
   80SLPC   H7X 7445   1.730   3.064   7.337 -0.0039 -0.5796 -1.0702
   80SLPC   H7Y 7446   1.728   3.240   7.280  2.3242  0.4657 -2.8641
   80SLPC   C38 7447   1.910   3.175   7.382  0.4646  0.0869  0.0208
   80SLPC   H8X 7448   1.972   3.257   7.340 -0.5440  0.7805 -0.1276
   80SLPC   H8Y 7449   1.962   3.076   7.382 -0.3199 -0.3930 -3.2949
   80SLPC   C39 7450   1.871   3.217   7.521 -0.7383  0.2361 -0.1439
   80SLPC   H9X 7451   1.790   3.153   7.562  1.5636 -2.1018  0.8714
   80SLPC   H9Y 7452   1.839   3.322   7.505  2.4993  1.0958 -1.5004
   80SLPC  C310 7453   1.992   3.221   7.618 -0.0079 -0.0888  0.4222
   80SLPC  H10X 7454   2.065   3.294   7.576 -0.5994  2.3767  3.4915
   80SLPC  H10Y 7455   2.039   3.121   7.627 -1.1379 -0.5069  1.9461
   80SLPC  C311 7456   1.963   3.279   7.757  0.2854  0.7441 -0.2804
   80SLPC  H11X 7457   1.892   3.364   7.748  0.7137  1.2215  0.8097
   80SLPC  H11Y 7458   2.057   3.313   7.804 -0.1667  0.2542  1.0125
   80SLPC  C312 7459   1.894   3.186   7.859  0.4193  0.7569  0.2548
   80SLPC  H12X 7460   1.966   3.103   7.878  1.7726  2.0552  0.9024
   80SLPC  H12Y 7461   1.806   3.134   7.815  0.1175  0.3364  1.3281
   80SLPC  C313 7462   1.847   3.256   7.985  1.0325  0.2546  0.5199
   80SLPC  H13X 7463   1.802   3.176   8.048  0.5952  0.5641  0.6045
   80SLPC  H13Y 7464   1.759   3.316   7.953 -0.7333 -1.1134  2.6466
   80SLPC  C314 7465   1.942   3.347   8.065  0.7507  0.1156 -0.6158
   80SLPC  H14X 7466   1.978   3.427   7.997 -3.1462 -0.4912 -3.5906
   80SLPC  H14Y 7467   2.027   3.281   8.094 -0.1617 -1.0865 -0.6214
   80SLPC  C315 7468   1.863   3.390   8.186 -0.4584 -0.7245 -0.3035
   80SLPC  H15X 7469   1.924   3.381   8.279 -1.2890 -0.5071  0.2684
   80SLPC  H15Y 7470   1.780   3.316   8.194 -0.7915 -0.3819 -0.5980
   80SLPC  C316 7471   1.797   3.526   8.174  0.5701  0.0274 -0.3070
   80SLPC  H16X 7472   1.742   3.536   8.078 -2.5119 -0.4962  1.3305
   80SLPC  H16Y 7473   1.877   3.603   8.176  1.4716 -0.8686 -1.1760
   80SLPC  C317 7474   1.693   3.553   8.279 -0.4230 -0.0562 -0.4136
   80SLPC  H17X 7475   1.624   3.466   8.280  0.3984 -0.7116 -1.0631
   80SLPC  H17Y 7476   1.638   3.649   8.263 -0.2473 -0.0670 -1.0780
   80SLPC  C318 7477   1.756   3.572   8.415 -0.8013  0.1040  0.3638
   80SLPC  H18X 7478   1.810   3.668   8.430  1.8567 -1.4449  1.1308
   80SLPC  H18Y 7479   1.818   3.484   8.442  0.6639  0.7553 -0.8461
   80SLPC  H18Z 7480   1.672   3.588   8.487 -2.8697  0.6823 -2.1115
   81SAPS     N 7481   2.618   4.191  10.726  0.2404 -0.3103  0.0320
   81SAPS   HN1 7482   2.629   4.232  10.631 -2.6574  1.6494  0.4885
   81SAPS   HN2 7483   2.661   4.257  10.794 -0.3297  0.0660  0.0294
   81SAPS   HN3 7484   2.670   4.101  10.724 -0.5407 -0.7506 -1.2744
   81SAPS   C12 7485   2.468   4.167  10.751 -0.5758  0.2627 -0.0100
   81SAPS  H12A 7486   2.425   4.132  10.658  0.0249  2.9115 -1.3336
   81SAPS   C13 7487   2.434   4.063  10.859 -0.5356 -0.1232  0.6543
   81SAPS  O13A 7488   2.518   4.021  10.942 -0.3405 -0.7485 -0.0960
   81SAPS  O13B 7489   2.308   4.034  10.871  0.8355  0.2527 -0.1724
   81SAPS   C11 7490   2.405   4.307  10.786  0.4172  0.5105  0.0444
   81SAPS  H11A 7491   2.294   4.303  10.790  0.3358  0.7829 -1.4704
   81SAPS  H11B 7492   2.412   4.376  10.699  1.9393  0.0735 -0.1958
   81SAPS     P 7493   2.383   4.482  10.972 -0.2281  0.0685  0.3342
   81SAPS   O13 7494   2.250   4.430  11.014 -0.0428 -0.0710  0.5319
   81SAPS   O14 7495   2.448   4.545  11.090 -0.0551  0.2165  0.4634
   81SAPS   O12 7496   2.465   4.373  10.896 -0.3838  0.3726  0.0089
   81SAPS   O11 7497   2.356   4.594  10.856 -0.0560  0.5585  0.7190
   81SAPS    C1 7498   2.471   4.666  10.810  0.8077 -0.4669  0.4947
   81SAPS    HA 7499   2.499   4.742  10.886 -1.8753  0.4530  0.6104
   81SAPS    HB 7500   2.548   4.586  10.804 -0.6303 -1.7713 -1.6738
   81SAPS    C2 7501   2.451   4.716  10.664  0.0918  0.1808  0.3912
   81SAPS    HS 7502   2.398   4.814  10.660  1.3277  0.8620  0.6263
   81SAPS   O21 7503   2.380   4.609  10.586 -0.0452  0.2027  0.5039
   81SAPS   C21 7504   2.253   4.623  10.563  0.4190  0.1171  0.5042
   81SAPS   O22 7505   2.187   4.718  10.596 -0.1870 -0.4510  0.5231
   81SAPS   C22 7506   2.204   4.505  10.481 -0.4681 -0.2535 -0.2432
   81SAPS   H2R 7507   2.288   4.472  10.417 -0.7758  2.1467 -1.9389
   81SAPS   H2S 7508   2.181   4.430  10.560 -0.4821 -1.0444 -0.9963
   81SAPS    C3 7509   2.582   4.744  10.592 -0.2553 -0.0335 -0.0505
   81SAPS    HX 7510   2.644   4.652  10.602  1.0489  1.1674  3.8212
   81SAPS    HY 7511   2.633   4.825  10.649 -0.8948  1.7151 -1.9003
   81SAPS   O31 7512   2.562   4.791  10.456  0.2633 -0.1635  0.3265
   81SAPS   C31 7513   2.577   4.696  10.360  0.2293  0.5289 -1.0307
   81SAPS   O32 7514   2.642   4.595  10.372 -0.4047  0.4290 -0.0336
   81SAPS   C32 7515   2.488   4.733  10.249  0.4415  0.2264  0.2264
   81SAPS   H2X 7516   2.524   4.831  10.210  1.2488 -0.3589 -0.5118
   81SAPS   H2Y 7517   2.384   4.747  10.287  0.7809 -0.9921  1.6444
   81SAPS   C23 7518   2.079   4.530  10.399 -0.0139 -0.1221  0.2488
   81SAPS   H3R 7519   2.100   4.602  10.317 -0.5262  1.3152  1.3623
   81SAPS   H3S 7520   1.998   4.579  10.456 -1.1200 -0.9034 -0.6312
   81SAPS   C24 7521   2.030   4.405  10.317 -0.2884 -0.8218 -0.1883
   81SAPS   H4R 7522   2.097   4.385  10.231  0.5499  0.0691  0.2420
   81SAPS   H4S 7523   1.942   4.447  10.264 -0.0410  0.7807  0.6260
   81SAPS   C25 7524   1.981   4.287  10.400 -0.0236  0.6895 -0.9951
   81SAPS   H5R 7525   2.017   4.276  10.504 -1.2958 -0.0102 -0.6276
   81SAPS   C26 7526   1.879   4.203  10.360  0.4511 -0.3691 -0.2358
   81SAPS   H6R 7527   1.852   4.114  10.419  0.5815 -1.0230 -1.1670
   81SAPS   C27 7528   1.815   4.209  10.224  0.1006  0.2453  0.6150
   81SAPS   H7R 7529   1.819   4.105  10.183 -0.7277  0.5158 -0.1779
   81SAPS   H7S 7530   1.875   4.263  10.148 -0.4662 -1.2560 -0.9453
   81SAPS   C28 7531   1.668   4.253  10.228  0.5343  0.4554  0.2207
   81SAPS   H8R 7532   1.612   4.241  10.322  2.3204  0.6782  1.3445
   81SAPS   C29 7533   1.601   4.294  10.118  0.1995 -0.4595 -0.5737
   81SAPS   H9R 7534   1.493   4.310  10.128  0.1174 -2.2187  1.7846
   81SAPS  C210 7535   1.645   4.320   9.977 -0.0705 -0.8109  0.0371
   81SAPS  H10R 7536   1.745   4.369   9.986 -0.4621  0.0447 -0.1947
   81SAPS  H10S 7537   1.576   4.393   9.929 -1.7559 -0.3120  3.1307
   81SAPS  C211 7538   1.661   4.195   9.900  0.2030  0.8160 -0.2017
   81SAPS  H11R 7539   1.754   4.138   9.918 -1.1793 -0.1493  4.5753
   81SAPS  C212 7540   1.576   4.146   9.806  0.9209  0.0216 -0.8903
   81SAPS  H12R 7541   1.592   4.047   9.760  0.1166 -0.9047  0.7950
   81SAPS  C213 7542   1.442   4.209   9.766  0.0829  0.1405  0.0237
   81SAPS  H13R 7543   1.467   4.271   9.677  2.4530 -0.6050  0.1467
   81SAPS  H13S 7544   1.403   4.287   9.834  0.4331  0.7593 -0.4741
   81SAPS  C214 7545   1.336   4.105   9.741 -0.2810  0.6368  0.1054
   81SAPS  H14R 7546   1.363   4.000   9.760  1.4114  0.8737 -0.9074
   81SAPS  C215 7547   1.208   4.135   9.697 -1.2160  0.6157 -0.3666
   81SAPS  H15R 7548   1.129   4.058   9.691  1.6551 -2.2368 -3.7613
   81SAPS  C216 7549   1.165   4.275   9.673  0.4009 -0.1732  0.5343
   81SAPS  H16R 7550   1.173   4.288   9.563  2.2159 -0.2780  0.6353
   81SAPS  H16S 7551   1.244   4.343   9.712  1.2950 -1.4980  1.0991
   81SAPS  C217 7552   1.023   4.329   9.732  0.2840 -0.1390 -0.7711
   81SAPS  H17R 7553   0.945   4.268   9.682 -0.6964  1.1081 -0.8130
   81SAPS  H17S 7554   1.000   4.438   9.730 -0.8572 -0.3252  0.8847
   81SAPS  C218 7555   1.013   4.302   9.884 -0.2562  0.4169  0.3262
   81SAPS  H18R 7556   1.103   4.342   9.936  1.6906 -1.6596 -1.3567
   81SAPS  H18S 7557   1.016   4.195   9.911  1.0724 -0.0141 -1.4610
   81SAPS  C219 7558   0.881   4.355   9.934 -0.5685  0.3389 -0.3110
   81SAPS  H19R 7559   0.793   4.327   9.873  0.4582 -1.7981 -0.8816
   81SAPS  H19S 7560   0.884   4.465   9.918  1.0335  0.4190  0.3925
   81SAPS  C220 7561   0.853   4.331  10.089  0.0403 -0.6240  0.4340
   81SAPS  H20R 7562   0.775   4.398  10.131  0.0358 -0.8903  0.8516
   81SAPS  H20S 7563   0.943   4.354  10.151 -0.7065  0.7175  1.0541
   81SAPS  H20T 7564   0.830   4.224  10.104  4.0432 -1.4749  1.1331
   81SAPS   C33 7565   2.490   4.635  10.129  0.1014 -0.3921 -0.4671
   81SAPS   H3X 7566   2.396   4.575  10.125  0.3024 -0.6867 -0.8902
   81SAPS   H3Y 7567   2.577   4.566  10.139  0.5939  0.1286 -1.1013
   81SAPS   C34 7568   2.498   4.710   9.994 -0.3616 -0.4969 -0.0925
   81SAPS   H4X 7569   2.594   4.765   9.985 -0.7031 -0.0012 -0.7331
   81SAPS   H4Y 7570   2.420   4.788   9.986  1.6574  1.7194  1.2559
   81SAPS   C35 7571   2.492   4.609   9.866  0.1378  0.1261  0.7807
   81SAPS   H5X 7572   2.408   4.538   9.880 -0.0845  0.4643  1.1563
   81SAPS   H5Y 7573   2.584   4.547   9.878  0.2338  0.2055  0.4377
   81SAPS   C36 7574   2.494   4.681   9.728 -0.5860 -0.2825  0.6091
   81SAPS   H6X 7575   2.583   4.746   9.715  0.5150 -1.7279  0.8376
   81SAPS   H6Y 7576   2.407   4.751   9.726 -1.1246 -0.9417  0.7374
   81SAPS   C37 7577   2.485   4.577   9.615  0.6707 -0.2375 -1.1039
   81SAPS   H7X 7578   2.414   4.497   9.645  0.0288 -0.4362 -3.0924
   81SAPS   H7Y 7579   2.584   4.530   9.594 -0.1990 -1.3584 -2.7860
   81SAPS   C38 7580   2.438   4.633   9.483  0.3235 -0.3643 -0.0707
   81SAPS   H8X 7581   2.463   4.741   9.479 -1.2862  0.0500  0.2403
   81SAPS   H8Y 7582   2.327   4.625   9.475  0.2309  1.3067 -0.5981
   81SAPS   C39 7583   2.490   4.574   9.347 -0.0954 -0.2426 -0.2188
   81SAPS   H9X 7584   2.456   4.468   9.345  1.5841 -0.8195  0.4818
   81SAPS   H9Y 7585   2.599   4.560   9.335 -0.0316 -2.0647  2.0238
   81SAPS  C310 7586   2.425   4.640   9.225  0.2307 -0.3288 -0.0797
   81SAPS  H10X 7587   2.408   4.748   9.247  1.0194 -0.2234  0.0141
   81SAPS  H10Y 7588   2.323   4.598   9.211 -0.0498 -1.2018  3.8584
   81SAPS  C311 7589   2.505   4.635   9.089 -0.0604  0.2869  0.4190
   81SAPS  H11X 7590   2.512   4.533   9.046 -1.8377  0.3519 -0.0714
   81SAPS  H11Y 7591   2.612   4.660   9.105 -0.4857  1.1781  2.0310
   81SAPS  C312 7592   2.440   4.737   8.991  0.5445 -0.1256  0.2670
   81SAPS  H12X 7593   2.423   4.839   9.034 -1.4417  0.4276 -1.7238
   81SAPS  H12Y 7594   2.341   4.694   8.964  0.4507 -0.5091  1.1839
   81SAPS  C313 7595   2.518   4.761   8.867 -0.5647  0.0596  0.0295
   81SAPS  H13X 7596   2.566   4.671   8.823 -1.1340  0.7270 -2.0329
   81SAPS  H13Y 7597   2.606   4.829   8.878  0.2401 -1.2970  2.3825
   81SAPS  C314 7598   2.432   4.833   8.763 -0.8067 -0.7339 -0.0445
   81SAPS  H14X 7599   2.399   4.935   8.790  1.2650 -0.0899  0.0801
   81SAPS  H14Y 7600   2.333   4.783   8.751 -1.7069  1.3596 -1.8399
   81SAPS  C315 7601   2.505   4.851   8.630 -0.0488  0.9753  0.4645
   81SAPS  H15X 7602   2.585   4.925   8.649  0.1870  0.8466 -0.0075
   81SAPS  H15Y 7603   2.423   4.889   8.565 -1.6465 -0.2173  1.7365
   81SAPS  C316 7604   2.562   4.729   8.560  0.5493 -0.3639 -0.0542
   81SAPS  H16X 7605   2.484   4.655   8.591  0.3136 -1.2719 -2.7372
   81SAPS  H16Y 7606   2.660   4.693   8.596  2.1853  1.6912 -2.3574
   81SAPS  C317 7607   2.568   4.753   8.415  0.5865  0.6392 -0.9470
   81SAPS  H17X 7608   2.591   4.857   8.382 -0.2523  0.9882 -0.4311
   81SAPS  H17Y 7609   2.473   4.726   8.364  0.6388  0.2140 -0.8191
   81SAPS  C318 7610   2.683   4.669   8.358 -0.7389 -0.0620  0.3921
   81SAPS  H18X 7611   2.685   4.565   8.396  0.4798 -0.8932 -1.8512
   81SAPS  H18Y 7612   2.781   4.712   8.385 -0.7000  1.4893 -2.0084
   81SAPS  H18Z 7613   2.682   4.675   8.247  0.6736  2.2203  0.4555
   82SAPS     N 7614   0.782   3.556  10.754 -0.0757 -0.3443  0.1416
   82SAPS   HN1 7615   0.869   3.521  10.798  1.2408  1.9696 -0.5632
   82SAPS   HN2 7616   0.745   3.489  10.683 -1.8358 -0.9850  1.6105
   82SAPS   HN3 7617   0.793   3.648  10.707  1.6888  0.1365  1.4632
   82SAPS   C12 7618   0.685   3.572  10.863 -0.1573 -0.6080  0.3065
   82SAPS  H12A 7619   0.637   3.477  10.883  1.4744 -1.2689  1.1486
   82SAPS   C13 7620   0.757   3.598  10.994 -0.4709 -0.7223  0.9646
   82SAPS  O13A 7621   0.877   3.567  11.005  0.7436 -0.2023 -0.0040
   82SAPS  O13B 7622   0.695   3.620  11.099  0.4513  0.2077  0.0062
   82SAPS   C11 7623   0.571   3.681  10.824 -0.2470  0.1573  0.2135
   82SAPS  H11A 7624   0.537   3.718  10.923  1.9702  0.7894  0.7848
   82SAPS  H11B 7625   0.481   3.637  10.777 -0.7242 -1.0503  2.2236
   82SAPS     P 7626   0.691   3.914  10.785  0.0439 -0.2035 -0.0736
   82SAPS   O13 7627   0.607   4.005  10.856  0.1648  0.1564 -0.3204
   82SAPS   O14 7628   0.810   3.867  10.865  0.1314 -0.7408  0.5100
   82SAPS   O12 7629   0.619   3.783  10.737 -0.2113 -0.6595 -0.1772
   82SAPS   O11 7630   0.754   3.983  10.654  0.3175  0.2868  0.1787
   82SAPS    C1 7631   0.662   4.062  10.572  0.3661  0.2607  0.0499
   82SAPS    HA 7632   0.557   4.045  10.605  0.5606  1.1885  1.1643
   82SAPS    HB 7633   0.688   4.169  10.585 -0.8169  0.9828 -2.9400
   82SAPS    C2 7634   0.663   4.027  10.423 -0.6706  0.0848  0.2772
   82SAPS    HS 7635   0.578   4.061  10.362  0.2603  2.5702  0.3262
   82SAPS   O21 7636   0.659   3.883  10.417  0.1322 -0.1973  0.2647
   82SAPS   C21 7637   0.545   3.831  10.438  0.6543  0.0757 -0.0077
   82SAPS   O22 7638   0.441   3.888  10.464  0.3331  0.0117  0.2186
   82SAPS   C22 7639   0.555   3.683  10.431 -0.0465  0.5749 -0.4800
   82SAPS   H2R 7640   0.635   3.663  10.506 -0.3924  1.5795  0.1668
   82SAPS   H2S 7641   0.451   3.655  10.456 -0.8906  1.6838 -2.6517
   82SAPS    C3 7642   0.790   4.073  10.348  1.3804  0.0048  0.8176
   82SAPS    HX 7643   0.880   4.040  10.404  1.1216  0.8172  1.7435
   82SAPS    HY 7644   0.795   4.184  10.350  2.9942 -0.0281 -0.5730
   82SAPS   O31 7645   0.784   4.020  10.216  0.6626 -0.0734  0.0854
   82SAPS   C31 7646   0.841   3.901  10.194  0.1459 -0.7294  0.1657
   82SAPS   O32 7647   0.930   3.854  10.261  0.1906 -0.4378 -0.7618
   82SAPS   C32 7648   0.788   3.844  10.062  0.7291 -0.1617 -0.2012
   82SAPS   H2X 7649   0.693   3.888  10.024  0.6329 -2.0733 -2.3001
   82SAPS   H2Y 7650   0.769   3.740  10.095  1.0942 -0.4927 -1.0158
   82SAPS   C23 7651   0.585   3.624  10.297  0.0027  0.9813  0.9110
   82SAPS   H3R 7652   0.598   3.517  10.324  0.5457  0.6554 -0.5768
   82SAPS   H3S 7653   0.683   3.654  10.255  1.0956 -1.3620  1.6691
   82SAPS   C24 7654   0.475   3.638  10.190 -0.3819 -0.0528 -0.4176
   82SAPS   H4R 7655   0.383   3.595  10.234 -0.4589  0.7242  0.2074
   82SAPS   H4S 7656   0.502   3.565  10.111  0.7223 -1.7757  1.5112
   82SAPS   C25 7657   0.453   3.782  10.137  0.1618 -0.0385  0.2761
   82SAPS   H5R 7658   0.466   3.861  10.213 -0.4660  0.7354 -0.4084
   82SAPS   C26 7659   0.422   3.808  10.008  0.9601 -0.4378 -0.0588
   82SAPS   H6R 7660   0.414   3.913   9.978  0.8353 -0.3122  0.4222
   82SAPS   C27 7661   0.394   3.711   9.887  0.9090 -0.4743 -0.7615
   82SAPS   H7R 7662   0.301   3.750   9.841  1.0037  0.3322 -0.2704
   82SAPS   H7S 7663   0.373   3.605   9.915 -3.7348  0.0485 -1.8864
   82SAPS   C28 7664   0.499   3.708   9.777 -0.1273 -0.5978  0.4436
   82SAPS   H8R 7665   0.565   3.620   9.785 -0.5856 -0.8076  2.2019
   82SAPS   C29 7666   0.514   3.795   9.672 -0.4594 -0.1955  0.3751
   82SAPS   H9R 7667   0.596   3.783   9.601  1.2640 -0.6620  2.3840
   82SAPS  C210 7668   0.418   3.909   9.649 -0.7880  0.0235  0.3108
   82SAPS  H10R 7669   0.473   4.001   9.622 -2.2706  0.6603 -0.6031
   82SAPS  H10S 7670   0.363   3.927   9.744  0.4502  1.7944  0.7114
   82SAPS  C211 7671   0.306   3.897   9.545 -0.2388 -0.9538  0.5034
   82SAPS  H11R 7672   0.257   3.800   9.529 -0.5875 -0.8564  0.9622
   82SAPS  C212 7673   0.269   4.005   9.471  0.6372  0.4458 -0.8950
   82SAPS  H12R 7674   0.184   3.992   9.403 -0.9014  0.5148  0.9659
   82SAPS  C213 7675   0.315   4.150   9.476 -1.1407 -0.4812  0.0553
   82SAPS  H13R 7676   0.335   4.182   9.580 -2.2135  1.3154 -0.2629
   82SAPS  H13S 7677   0.237   4.217   9.434  0.0203  0.4376 -0.6532
   82SAPS  C214 7678   0.452   4.171   9.416  0.5074  0.0494  0.3842
   82SAPS  H14R 7679   0.510   4.078   9.415 -0.2042 -0.3927  0.3551
   82SAPS  C215 7680   0.485   4.284   9.347 -0.6755 -0.3307  0.0639
   82SAPS  H15R 7681   0.584   4.294   9.299 -0.4933  2.1922  0.8613
   82SAPS  C216 7682   0.392   4.401   9.328  0.2332  0.8338 -0.2663
   82SAPS  H16R 7683   0.455   4.487   9.356  1.4688  0.1485 -0.9131
   82SAPS  H16S 7684   0.311   4.398   9.404 -0.3541  0.0189 -0.9121
   82SAPS  C217 7685   0.342   4.421   9.184 -0.9035  0.9093 -0.1458
   82SAPS  H17R 7686   0.431   4.453   9.125 -0.3246  0.3154  0.3924
   82SAPS  H17S 7687   0.277   4.508   9.161 -1.4974  0.4626 -0.1637
   82SAPS  C218 7688   0.248   4.306   9.136 -0.1664  0.0964  0.0516
   82SAPS  H18R 7689   0.175   4.273   9.213 -2.2359  1.6994 -1.1589
   82SAPS  H18S 7690   0.307   4.214   9.114 -1.0508 -0.8880  1.7099
   82SAPS  C219 7691   0.172   4.334   9.005 -0.0467 -0.1268  0.1920
   82SAPS  H19R 7692   0.257   4.365   8.940  0.3194  1.3420  1.3372
   82SAPS  H19S 7693   0.105   4.419   9.029 -0.7910 -0.5843 -0.2514
   82SAPS  C220 7694   0.092   4.215   8.945  0.0079  0.3011  0.5950
   82SAPS  H20R 7695   0.009   4.247   8.878 -0.2004  0.8015  1.0848
   82SAPS  H20S 7696   0.039   4.164   9.028 -1.2339  0.0242 -0.3582
   82SAPS  H20T 7697   0.153   4.134   8.900  1.0798  0.5317  1.6184
   82SAPS   C33 7698   0.896   3.850   9.952 -0.2833  0.1973  0.1302
   82SAPS   H3X 7699   0.996   3.815   9.986 -0.4623 -0.2352  0.2159
   82SAPS   H3Y 7700   0.910   3.952   9.911 -4.0778  1.6442  2.1556
   82SAPS   C34 7701   0.849   3.758   9.835  0.5321 -0.8163 -0.0473
   82SAPS   H4X 7702   0.750   3.789   9.795  0.9693  1.0472  0.3054
   82SAPS   H4Y 7703   0.827   3.657   9.877 -0.3200 -1.0297 -0.9869
   82SAPS   C35 7704   0.952   3.729   9.727 -0.2640  0.3473  0.2472
   82SAPS   H5X 7705   1.038   3.670   9.766 -0.6959 -1.4407 -1.4637
   82SAPS   H5Y 7706   0.998   3.820   9.682 -1.1162 -0.3197 -2.0118
   82SAPS   C36 7707   0.894   3.642   9.610 -0.2089  0.0847  0.3755
   82SAPS   H6X 7708   0.968   3.649   9.528  1.0897 -0.9644  1.4349
   82SAPS   H6Y 7709   0.805   3.697   9.574  1.4626  3.1637  0.7420
   82SAPS   C37 7710   0.869   3.495   9.635 -0.3494  0.6588 -0.1808
   82SAPS   H7X 7711   0.798   3.476   9.717  0.8433 -3.2840  0.0511
   82SAPS   H7Y 7712   0.957   3.442   9.677 -0.4924  1.4346  1.1327
   82SAPS   C38 7713   0.831   3.420   9.511  0.5750 -0.6927  0.2569
   82SAPS   H8X 7714   0.751   3.464   9.447 -0.5287 -1.8898  0.7975
   82SAPS   H8Y 7715   0.787   3.324   9.544  3.2005 -2.3064 -0.8042
   82SAPS   C39 7716   0.953   3.397   9.420 -0.4201  0.3777 -0.6177
   82SAPS   H9X 7717   1.035   3.358   9.485 -1.6979  1.9432  2.0065
   82SAPS   H9Y 7718   0.991   3.495   9.383 -0.4848  0.0793 -1.4847
   82SAPS  C310 7719   0.914   3.303   9.309  0.3718 -0.3713  0.1184
   82SAPS  H10X 7720   0.862   3.361   9.230 -0.3677  0.9204  1.5231
   82SAPS  H10Y 7721   0.849   3.221   9.347 -0.5912  1.4408  2.5023
   82SAPS  C311 7722   1.040   3.245   9.236  0.4582 -0.0993 -0.6352
   82SAPS  H11X 7723   1.106   3.211   9.319  1.1932  0.5135 -0.9632
   82SAPS  H11Y 7724   1.090   3.324   9.176  0.7497  2.0565  2.3394
   82SAPS  C312 7725   1.008   3.140   9.137 -0.0084  0.6620  0.9622
   82SAPS  H12X 7726   1.090   3.136   9.062  0.2096 -1.2149  1.2839
   82SAPS  H12Y 7727   0.920   3.158   9.071 -1.6859  0.1421  2.9922
   82SAPS  C313 7728   0.991   2.997   9.197  0.0472 -0.6255  0.0557
   82SAPS  H13X 7729   0.904   3.007   9.266 -0.4242 -0.6837 -0.5193
   82SAPS  H13Y 7730   1.083   2.978   9.256  0.1301 -0.5161 -0.0379
   82SAPS  C314 7731   0.961   2.894   9.092 -0.8754  0.2356  0.0357
   82SAPS  H14X 7732   1.031   2.911   9.008  0.2650  0.5098  1.0341
   82SAPS  H14Y 7733   0.863   2.919   9.045 -1.0568  0.0125  0.2871
   82SAPS  C315 7734   0.964   2.749   9.148  0.6486  0.1284 -0.1215
   82SAPS  H15X 7735   1.070   2.716   9.157  0.5192 -0.7214 -1.5774
   82SAPS  H15Y 7736   0.916   2.685   9.071 -2.8335  2.1428  0.2808
   82SAPS  C316 7737   0.901   2.725   9.283 -0.6267 -0.1606  0.1538
   82SAPS  H16X 7738   0.800   2.771   9.286  0.0904  1.4244  0.7106
   82SAPS  H16Y 7739   0.964   2.790   9.348 -0.7615 -1.0567  1.2069
   82SAPS  C317 7740   0.892   2.579   9.318 -0.6143  1.1285 -0.0065
   82SAPS  H17X 7741   0.987   2.523   9.326 -1.3712 -0.4030 -1.4406
   82SAPS  H17Y 7742   0.836   2.526   9.238  0.5934  2.1932 -1.5872
   82SAPS  C318 7743   0.804   2.569   9.440  0.3703 -0.2431 -0.0577
   82SAPS  H18X 7744   0.776   2.463   9.456 -0.6466 -0.4526 -2.9872
   82SAPS  H18Y 7745   0.709   2.626   9.439  1.4328  1.6243  1.7364
   82SAPS  H18Z 7746   0.862   2.599   9.530 -1.0113  0.0824  0.7353
   83SAPS     N 7747   2.503   5.813  11.247 -0.0268  0.7457  0.7912
   83SAPS   HN1 7748   2.420   5.820  11.185 -0.2640  0.1187  1.0305
   83SAPS   HN2 7749   2.521   5.908  11.283  2.4992  0.3083  0.7812
   83SAPS   HN3 7750   2.589   5.801  11.190 -0.6288  1.4145 -0.2664
   83SAPS   C12 7751   2.493   5.720  11.359 -0.1871  0.2572  0.1229
   83SAPS  H12A 7752   2.593   5.719  11.401 -0.3929 -0.2794  0.6143
   83SAPS   C13 7753   2.391   5.754  11.472 -0.1622 -0.4431  0.0815
   83SAPS  O13A 7754   2.316   5.857  11.462 -0.0628  0.8084  0.6430
   83SAPS  O13B 7755   2.397   5.692  11.580  0.1961  0.0722  0.2553
   83SAPS   C11 7756   2.457   5.574  11.317  0.4442 -0.2878 -0.3669
   83SAPS  H11A 7757   2.349   5.548  11.307  1.2261 -4.0054  0.2348
   83SAPS  H11B 7758   2.484   5.513  11.405  0.7639  0.8931  0.3635
   83SAPS     P 7759   2.488   5.405  11.121  0.1891 -0.0299 -0.0615
   83SAPS   O13 7760   2.604   5.370  11.039 -0.7892  0.0385  0.4250
   83SAPS   O14 7761   2.454   5.298  11.216 -0.1967 -0.3657  0.1101
   83SAPS   O12 7762   2.514   5.543  11.198 -0.2729  0.1066 -0.2265
   83SAPS   O11 7763   2.358   5.431  11.025 -0.2235  0.4071 -0.2669
   83SAPS    C1 7764   2.313   5.561  10.977 -1.0954 -0.4112  0.1092
   83SAPS    HA 7765   2.203   5.558  10.970 -1.2597  2.9588  0.3157
   83SAPS    HB 7766   2.348   5.641  11.045  1.6459 -0.9798 -0.5606
   83SAPS    C2 7767   2.368   5.594  10.840  0.8334  0.2678  0.6461
   83SAPS    HS 7768   2.282   5.647  10.793 -0.6735 -0.6398  2.3091
   83SAPS   O21 7769   2.420   5.485  10.766 -0.1206 -0.1255  0.1564
   83SAPS   C21 7770   2.324   5.421  10.705 -0.4703 -0.4326 -0.5816
   83SAPS   O22 7771   2.207   5.461  10.706  0.4302  0.8287  0.6645
   83SAPS   C22 7772   2.362   5.290  10.638  0.6446  0.0379  0.7538
   83SAPS   H2R 7773   2.430   5.311  10.552  1.6076 -2.4574  0.8420
   83SAPS   H2S 7774   2.411   5.225  10.713  0.4371 -1.4006 -0.3200
   83SAPS    C3 7775   2.483   5.701  10.853  0.4635 -0.0942 -0.4967
   83SAPS    HX 7776   2.574   5.658  10.901 -1.0562 -2.1075  0.6621
   83SAPS    HY 7777   2.440   5.780  10.918 -1.3562  0.3981 -2.2447
   83SAPS   O31 7778   2.514   5.756  10.727  0.3311  0.4068  0.5149
   83SAPS   C31 7779   2.597   5.689  10.650 -0.4683 -0.1025 -0.5989
   83SAPS   O32 7780   2.661   5.594  10.689 -0.4123  0.2921  0.4059
   83SAPS   C32 7781   2.568   5.713  10.500 -0.0121 -0.1184  0.2294
   83SAPS   H2X 7782   2.618   5.808  10.470  2.8325 -1.4431  0.5610
   83SAPS   H2Y 7783   2.458   5.721  10.491 -0.0018  0.0778  0.2599
   83SAPS   C23 7784   2.248   5.208  10.573 -0.5968 -0.2216 -1.1262
   83SAPS   H3R 7785   2.191   5.269  10.499 -1.0149  0.5106 -0.2034
   83SAPS   H3S 7786   2.176   5.171  10.648  0.1799 -1.5380 -1.0119
   83SAPS   C24 7787   2.298   5.080  10.505  0.0650  0.5673 -0.7597
   83SAPS   H4R 7788   2.377   5.032  10.566  0.7290  2.5848 -0.0156
   83SAPS   H4S 7789   2.357   5.110  10.415  1.2801 -0.6693 -0.3907
   83SAPS   C25 7790   2.188   4.983  10.473 -1.3340  0.4775  0.0961
   83SAPS   H5R 7791   2.144   4.938  10.563  1.8788  0.5988  1.7677
   83SAPS   C26 7792   2.142   4.960  10.351 -0.2706  0.1202  0.6382
   83SAPS   H6R 7793   2.048   4.902  10.347 -0.6117  0.5501  2.0806
   83SAPS   C27 7794   2.190   5.016  10.217 -0.3905 -0.2087 -0.4023
   83SAPS   H7R 7795   2.160   4.945  10.137  1.0416 -0.0058 -1.1432
   83SAPS   H7S 7796   2.301   5.013  10.226 -0.4564 -1.1363  0.1607
   83SAPS   C28 7797   2.139   5.157  10.191  0.2551 -0.0071  0.3943
   83SAPS   H8R 7798   2.112   5.210  10.284 -0.9966  0.5315 -0.2593
   83SAPS   C29 7799   2.118   5.219  10.074 -0.6893  0.1893 -0.6679
   83SAPS   H9R 7800   2.094   5.327  10.073 -0.0406  0.3146 -2.6371
   83SAPS  C210 7801   2.152   5.156   9.941  0.7227 -0.2785 -0.6257
   83SAPS  H10R 7802   2.235   5.086   9.967  0.9409  0.5346  0.8660
   83SAPS  H10S 7803   2.191   5.236   9.874  1.9004 -1.0125 -0.8213
   83SAPS  C211 7804   2.035   5.094   9.868  0.0462  0.4863 -0.2012
   83SAPS  H11R 7805   1.939   5.091   9.922 -0.1072 -4.0711 -0.5254
   83SAPS  C212 7806   2.045   5.046   9.743 -0.4056 -0.4712  0.5025
   83SAPS  H12R 7807   1.944   5.025   9.704  0.6475 -1.6342 -1.6553
   83SAPS  C213 7808   2.168   5.054   9.658  0.0847 -0.4124  0.2977
   83SAPS  H13R 7809   2.204   4.953   9.629 -0.2119 -0.1924 -0.8592
   83SAPS  H13S 7810   2.253   5.108   9.704 -0.4276  0.2131  0.5268
   83SAPS  C214 7811   2.131   5.132   9.533  0.1371  0.0947  0.0057
   83SAPS  H14R 7812   2.117   5.239   9.550  1.1171  0.1710  0.3510
   83SAPS  C215 7813   2.109   5.083   9.411  0.8161  0.0234 -0.1950
   83SAPS  H15R 7814   2.097   5.157   9.330  0.7122 -2.6921 -2.7606
   83SAPS  C216 7815   2.104   4.935   9.377  1.3898  0.2896 -0.4855
   83SAPS  H16R 7816   2.001   4.904   9.350 -0.2356  2.2516  3.0244
   83SAPS  H16S 7817   2.134   4.869   9.461  1.3528  2.2645  1.1417
   83SAPS  C217 7818   2.206   4.913   9.263  0.3821  0.4440 -0.1894
   83SAPS  H17R 7819   2.203   4.802   9.254  0.0092  0.2366  2.1555
   83SAPS  H17S 7820   2.304   4.935   9.311 -0.7659  0.3470  2.3060
   83SAPS  C218 7821   2.189   4.992   9.134  0.0628 -0.8809 -0.3400
   83SAPS  H18R 7822   2.274   4.955   9.072 -0.4958 -1.9060 -0.4969
   83SAPS  H18S 7823   2.201   5.102   9.141 -0.7792 -0.8409  0.4629
   83SAPS  C219 7824   2.054   4.957   9.069  0.4164 -0.3816 -0.3191
   83SAPS  H19R 7825   1.980   4.964   9.152  2.0015  0.2216  1.0535
   83SAPS  H19S 7826   2.053   4.859   9.017 -1.2558  1.0716 -3.1924
   83SAPS  C220 7827   2.030   5.062   8.965  0.0390 -0.7341  0.1864
   83SAPS  H20R 7828   2.106   5.067   8.884 -0.7107  0.3508 -0.4638
   83SAPS  H20S 7829   2.029   5.159   9.020 -2.1858  0.2358 -1.4631
   83SAPS  H20T 7830   1.927   5.062   8.923 -1.3225  0.0459  3.4006
   83SAPS   C33 7831   2.623   5.606  10.408  0.3531 -0.1501 -0.8265
   83SAPS   H3X 7832   2.588   5.505  10.440  0.0802  0.2114  0.0325
   83SAPS   H3Y 7833   2.734   5.607  10.418  0.2877 -2.2038  0.4077
   83SAPS   C34 7834   2.584   5.632  10.266  0.0307 -0.5339 -0.2007
   83SAPS   H4X 7835   2.473   5.642  10.268  0.1799  1.2040  1.6409
   83SAPS   H4Y 7836   2.603   5.539  10.208 -0.3360 -0.2125 -0.8428
   83SAPS   C35 7837   2.669   5.726  10.189 -0.3500  0.2180  0.0816
   83SAPS   H5X 7838   2.768   5.734  10.238  0.0540  0.5464 -0.7588
   83SAPS   H5Y 7839   2.622   5.826  10.204 -0.1391 -0.0863  3.0381
   83SAPS   C36 7840   2.693   5.707  10.043 -0.1237 -0.2347 -1.0824
   83SAPS   H6X 7841   2.603   5.661   9.998 -0.1459 -0.8609 -0.4121
   83SAPS   H6Y 7842   2.779   5.637  10.036  0.1613  0.0966 -0.9654
   83SAPS   C37 7843   2.714   5.833   9.960 -0.4987  0.7078 -0.1153
   83SAPS   H7X 7844   2.810   5.881   9.989 -0.5285  2.0655 -2.1519
   83SAPS   H7Y 7845   2.633   5.901   9.993 -1.6076 -0.4036 -0.5255
   83SAPS   C38 7846   2.735   5.793   9.812  0.6487 -0.0584  0.2682
   83SAPS   H8X 7847   2.644   5.737   9.780  0.8706  0.0496 -0.5756
   83SAPS   H8Y 7848   2.819   5.722   9.802  1.0504  0.8855 -4.7168
   83SAPS   C39 7849   2.756   5.914   9.710 -1.0624 -0.1969  0.3373
   83SAPS   H9X 7850   2.840   5.979   9.740 -1.3896 -0.0429  0.9186
   83SAPS   H9Y 7851   2.659   5.968   9.707 -1.1939 -0.4492 -0.1607
   83SAPS  C310 7852   2.775   5.870   9.562  0.3065  0.7854  0.1247
   83SAPS  H10X 7853   2.702   5.795   9.525  1.5113  0.2440 -1.2007
   83SAPS  H10Y 7854   2.872   5.818   9.545  0.0278  0.3056 -0.0060
   83SAPS  C311 7855   2.762   5.996   9.475  0.8616 -0.3095  0.1939
   83SAPS  H11X 7856   2.851   6.061   9.484  1.1169 -0.9422  2.6700
   83SAPS  H11Y 7857   2.676   6.054   9.514  2.0863  1.5584  0.1632
   83SAPS  C312 7858   2.739   5.964   9.328 -0.1003 -0.5176  0.8891
   83SAPS  H12X 7859   2.644   5.907   9.311 -0.2057 -0.0103 -0.2138
   83SAPS  H12Y 7860   2.825   5.904   9.291  0.5847  1.7596 -1.2916
   83SAPS  C313 7861   2.731   6.093   9.239  0.0580 -0.0566  0.7857
   83SAPS  H13X 7862   2.820   6.156   9.262  0.6727 -1.3546  2.0785
   83SAPS  H13Y 7863   2.641   6.142   9.284 -0.4341  0.9928 -1.3087
   83SAPS  C314 7864   2.720   6.076   9.091  0.2233 -0.0022  0.1875
   83SAPS  H14X 7865   2.625   6.026   9.063  1.2498 -1.2442 -1.0975
   83SAPS  H14Y 7866   2.800   6.014   9.046  1.3476 -0.9262  3.3031
   83SAPS  C315 7867   2.703   6.216   9.037 -0.0497 -0.6457 -0.2451
   83SAPS  H15X 7868   2.800   6.271   9.036 -0.3308 -0.1370  0.0116
   83SAPS  H15Y 7869   2.648   6.285   9.105  1.9028  0.3602  0.3528
   83SAPS  C316 7870   2.657   6.222   8.891 -0.4842  0.4273 -0.3237
   83SAPS  H16X 7871   2.720   6.158   8.826  0.5905  0.3140  0.8099
   83SAPS  H16Y 7872   2.664   6.326   8.854 -1.7382  1.6107  2.5749
   83SAPS  C317 7873   2.505   6.187   8.871 -0.3699  0.0814  0.3503
   83SAPS  H17X 7874   2.447   6.275   8.905 -0.2143  0.0228  0.7635
   83SAPS  H17Y 7875   2.466   6.106   8.936 -0.5244 -0.2037 -0.0930
   83SAPS  C318 7876   2.474   6.142   8.728 -0.2121 -0.4754  0.1592
   83SAPS  H18X 7877   2.471   6.228   8.657  1.2129 -0.4849  0.0798
   83SAPS  H18Y 7878   2.379   6.089   8.709  0.1197 -0.7803 -0.6967
   83SAPS  H18Z 7879   2.554   6.073   8.694  1.9040  2.2926 -0.7021
   84SAPS     N 7880   3.751   4.769  11.159  0.2972  0.2912  0.3885
   84SAPS   HN1 7881   3.791   4.684  11.116 -0.9670  0.8403 -1.9643
   84SAPS   HN2 7882   3.669   4.730  11.209  0.4078 -1.7994 -1.0579
   84SAPS   HN3 7883   3.727   4.832  11.080  2.2842 -1.4997 -1.7383
   84SAPS   C12 7884   3.852   4.835  11.247  0.0693 -0.4351 -0.2218
   84SAPS  H12A 7885   3.799   4.909  11.306 -0.7409 -0.5998 -0.7249
   84SAPS   C13 7886   3.913   4.736  11.344  0.8443 -0.4205 -0.1777
   84SAPS  O13A 7887   3.890   4.610  11.334 -0.0922 -0.1445  0.0468
   84SAPS  O13B 7888   3.990   4.776  11.436  0.0803 -0.0629 -0.0229
   84SAPS   C11 7889   3.966   4.885  11.156  0.5850  0.3003 -0.1786
   84SAPS  H11A 7890   4.019   4.797  11.111 -0.5223 -0.1522 -0.6160
   84SAPS  H11B 7891   4.037   4.941  11.220  0.2814 -1.4931  1.7885
   84SAPS     P 7892   4.031   5.056  10.971  0.5434  0.3059  0.0728
   84SAPS   O13 7893   4.001   5.199  11.011  0.6905  0.0579  0.8031
   84SAPS   O14 7894   4.158   4.990  11.003  0.3435  0.0166 -0.2638
   84SAPS   O12 7895   3.925   4.965  11.049  0.2775 -0.5060  0.2252
   84SAPS   O11 7896   3.990   5.030  10.822  0.8041  0.1448 -0.1126
   84SAPS    C1 7897   3.901   4.927  10.792  0.2420 -0.4642 -0.9480
   84SAPS    HA 7898   3.938   4.827  10.824 -1.9636 -0.5974  1.3787
   84SAPS    HB 7899   3.800   4.939  10.837  0.1417 -1.5277 -0.8759
   84SAPS    C2 7900   3.892   4.904  10.637 -0.6429 -0.0210 -0.4312
   84SAPS    HS 7901   3.985   4.861  10.593 -0.0636  1.9337 -1.1579
   84SAPS   O21 7902   3.872   5.029  10.576 -0.4633  0.2042  0.0368
   84SAPS   C21 7903   3.984   5.096  10.539  0.4827 -0.2586  0.9365
   84SAPS   O22 7904   4.097   5.048  10.541  0.1110 -0.2681  0.4194
   84SAPS   C22 7905   3.945   5.217  10.457 -0.0383  0.0484  0.6987
   84SAPS   H2R 7906   3.836   5.209  10.436  0.4801 -0.7814 -1.8771
   84SAPS   H2S 7907   3.967   5.301  10.526 -0.1611 -0.2859  1.1489
   84SAPS    C3 7908   3.777   4.805  10.600 -0.2851  0.6077 -0.7469
   84SAPS    HX 7909   3.682   4.854  10.630  0.5682  0.7648  1.7368
   84SAPS    HY 7910   3.792   4.713  10.660  1.9234 -0.1657 -2.3898
   84SAPS   O31 7911   3.769   4.779  10.459 -0.0892 -0.2211 -0.0575
   84SAPS   C31 7912   3.693   4.674  10.421 -0.7957 -0.4797  0.1340
   84SAPS   O32 7913   3.628   4.602  10.493  0.1075  0.0270  0.5168
   84SAPS   C32 7914   3.706   4.664  10.270  0.2346 -0.8051  0.2155
   84SAPS   H2X 7915   3.749   4.563  10.256 -0.6092 -1.0132 -0.9758
   84SAPS   H2Y 7916   3.768   4.750  10.235 -0.9721 -0.0299 -0.0942
   84SAPS   C23 7917   4.026   5.228  10.327  0.3472 -0.3464  0.2763
   84SAPS   H3R 7918   4.135   5.244  10.343  0.4976  0.0114 -1.0796
   84SAPS   H3S 7919   3.998   5.324  10.278  1.5397  0.7718  1.7195
   84SAPS   C24 7920   3.992   5.122  10.208  0.8804 -0.3646 -0.7443
   84SAPS   H4R 7921   4.008   5.017  10.239 -0.8009 -0.1423  0.9224
   84SAPS   H4S 7922   4.064   5.138  10.124  1.2198 -0.9419 -0.5628
   84SAPS   C25 7923   3.852   5.124  10.154 -0.6785  0.4163 -0.3231
   84SAPS   H5R 7924   3.789   5.204  10.195  0.0361 -0.7839  3.2689
   84SAPS   C26 7925   3.793   5.039  10.070 -0.3927  0.0366  0.1913
   84SAPS   H6R 7926   3.686   5.048  10.047 -0.0639 -0.0041 -1.4038
   84SAPS   C27 7927   3.862   4.923   9.995  0.0921  0.5519  0.2965
   84SAPS   H7R 7928   3.861   4.834  10.062 -1.5299 -0.4759 -1.0432
   84SAPS   H7S 7929   3.966   4.957   9.977  0.3159  0.0449  0.5942
   84SAPS   C28 7930   3.790   4.891   9.865 -0.2061  0.2532 -1.1239
   84SAPS   H8R 7931   3.680   4.899   9.866 -0.4050 -2.2638 -1.4118
   84SAPS   C29 7932   3.855   4.895   9.750  0.1653 -1.1206 -0.3945
   84SAPS   H9R 7933   3.793   4.871   9.662 -0.7308  3.7688 -1.2134
   84SAPS  C210 7934   4.001   4.912   9.721 -0.9750 -0.3155  0.4144
   84SAPS  H10R 7935   4.026   4.845   9.636 -2.2256 -2.5849  1.7730
   84SAPS  H10S 7936   4.054   4.876   9.812 -1.6221 -1.5528  0.3090
   84SAPS  C211 7937   4.014   5.060   9.692  0.1899  0.1545 -0.2441
   84SAPS  H11R 7938   4.035   5.117   9.784 -0.0638  0.4247 -0.3551
   84SAPS  C212 7939   4.008   5.102   9.568  0.4150 -0.6031 -0.0808
   84SAPS  H12R 7940   4.023   5.209   9.545  0.7106 -0.6827 -0.2632
   84SAPS  C213 7941   3.992   5.027   9.441  0.0053  0.0306 -0.2309
   84SAPS  H13R 7942   3.901   4.964   9.436  0.0603 -0.0198 -0.5763
   84SAPS  H13S 7943   4.073   4.950   9.441  0.2457  0.2671  1.0676
   84SAPS  C214 7944   4.004   5.119   9.318  0.1923  0.0501  0.7008
   84SAPS  H14R 7945   3.929   5.198   9.308  0.3123 -0.0443 -1.1089
   84SAPS  C215 7946   4.109   5.117   9.230 -0.1144 -0.0572  0.0796
   84SAPS  H15R 7947   4.098   5.184   9.144 -2.0170 -0.9842 -0.4395
   84SAPS  C216 7948   4.228   5.021   9.221 -0.3611 -0.0271 -0.0341
   84SAPS  H16R 7949   4.187   4.919   9.202  0.1971 -1.0404  3.7157
   84SAPS  H16S 7950   4.275   4.996   9.319  1.3040 -2.4605 -1.4047
   84SAPS  C217 7951   4.345   5.058   9.122 -0.0434 -0.6926  0.2585
   84SAPS  H17R 7952   4.411   4.969   9.132  0.5920 -0.0521  1.8350
   84SAPS  H17S 7953   4.404   5.147   9.150 -1.3235  0.3712 -0.3853
   84SAPS  C218 7954   4.307   5.069   8.971  0.3084  0.2508  0.1918
   84SAPS  H18R 7955   4.264   5.168   8.943 -0.6502 -0.6006 -1.4323
   84SAPS  H18S 7956   4.238   4.987   8.943  0.3722  0.9936 -2.2695
   84SAPS  C219 7957   4.419   5.031   8.867  0.3576 -0.6841 -0.2884
   84SAPS  H19R 7958   4.436   4.924   8.891  1.2472 -0.5529 -0.3093
   84SAPS  H19S 7959   4.499   5.105   8.893 -0.4296  0.1208 -0.1411
   84SAPS  C220 7960   4.383   5.035   8.720 -0.0198 -0.0215  0.5620
   84SAPS  H20R 7961   4.329   5.130   8.701 -2.5692 -0.7747  3.6156
   84SAPS  H20S 7962   4.329   4.941   8.695 -0.3022  0.7671 -1.8654
   84SAPS  H20T 7963   4.466   5.023   8.647 -0.4723 -1.4971  0.2851
   84SAPS   C33 7964   3.569   4.683  10.210 -0.0457  0.1967 -0.7042
   84SAPS   H3X 7965   3.549   4.789  10.186 -0.9610  0.0586 -0.5685
   84SAPS   H3Y 7966   3.486   4.635  10.267 -1.9021  3.3230 -0.6521
   84SAPS   C34 7967   3.577   4.605  10.077  0.5101 -0.5455  0.2498
   84SAPS   H4X 7968   3.588   4.498  10.104 -3.2407 -1.4121 -1.3945
   84SAPS   H4Y 7969   3.663   4.646  10.019 -0.2931 -2.6391 -2.5240
   84SAPS   C35 7970   3.458   4.617   9.976 -0.3208 -0.0558  0.0402
   84SAPS   H5X 7971   3.444   4.725   9.957 -1.9250 -0.5244 -1.5485
   84SAPS   H5Y 7972   3.358   4.579  10.006  0.3472 -2.9268 -1.2123
   84SAPS   C36 7973   3.491   4.555   9.840 -0.0193 -0.4155 -0.2174
   84SAPS   H6X 7974   3.495   4.444   9.849  2.1913 -0.2713  0.8756
   84SAPS   H6Y 7975   3.592   4.587   9.808 -0.6851  0.8845 -1.0276
   84SAPS   C37 7976   3.391   4.585   9.732  0.2460 -0.4663  0.2880
   84SAPS   H7X 7977   3.425   4.684   9.698  1.5627 -0.8358  0.5135
   84SAPS   H7Y 7978   3.289   4.601   9.774 -0.1444 -0.6250 -0.5921
   84SAPS   C38 7979   3.399   4.485   9.610  0.3869 -0.3508  0.0598
   84SAPS   H8X 7980   3.318   4.414   9.633  0.5308 -0.3371  0.6262
   84SAPS   H8Y 7981   3.500   4.439   9.598  0.6219  0.5870 -1.8567
   84SAPS   C39 7982   3.387   4.571   9.480 -0.3750  0.2868  0.1432
   84SAPS   H9X 7983   3.471   4.644   9.468 -0.1093 -0.0890 -0.3001
   84SAPS   H9Y 7984   3.293   4.630   9.476  0.6520  1.8182 -2.9849
   84SAPS  C310 7985   3.371   4.473   9.363 -0.1591  1.0275 -0.2426
   84SAPS  H10X 7986   3.310   4.389   9.402  0.3470  0.4719 -0.6423
   84SAPS  H10Y 7987   3.467   4.434   9.323  0.3911  0.3661  1.6684
   84SAPS  C311 7988   3.303   4.540   9.242 -0.3044 -0.4381 -0.3297
   84SAPS  H11X 7989   3.373   4.613   9.196 -2.7481  2.1827 -0.0659
   84SAPS  H11Y 7990   3.213   4.590   9.284 -1.0295  0.0277 -2.3845
   84SAPS  C312 7991   3.243   4.443   9.139  0.7047 -1.1445  0.1221
   84SAPS  H12X 7992   3.196   4.509   9.063  2.1275 -0.2161  0.0383
   84SAPS  H12Y 7993   3.166   4.387   9.196 -1.0016  0.9305 -0.0827
   84SAPS  C313 7994   3.348   4.352   9.073  0.0951 -0.2542 -0.5571
   84SAPS  H13X 7995   3.379   4.278   9.150 -0.6542 -1.0001 -0.9592
   84SAPS  H13Y 7996   3.433   4.414   9.037  1.1905 -1.3536  0.0721
   84SAPS  C314 7997   3.276   4.280   8.962 -0.0350  0.2383 -0.2361
   84SAPS  H14X 7998   3.223   4.346   8.891 -1.7852 -1.2039 -0.3014
   84SAPS  H14Y 7999   3.203   4.211   9.009  2.7228 -1.1519  2.2381
   84SAPS  C315 8000   3.363   4.192   8.873 -0.5414 -0.1345 -0.1744
   84SAPS  H15X 8001   3.433   4.125   8.929  1.1528  1.3718 -0.4260
   84SAPS  H15Y 8002   3.427   4.264   8.819 -0.0741 -1.0951 -0.9265
   84SAPS  C316 8003   3.288   4.092   8.774 -0.0384 -0.5300 -0.5595
   84SAPS  H16X 8004   3.193   4.143   8.747  0.0083  0.6545  1.4114
   84SAPS  H16Y 8005   3.276   3.991   8.819  2.4569 -0.6367 -0.0625
   84SAPS  C317 8006   3.364   4.092   8.640  0.8458  0.0085 -0.0699
   84SAPS  H17X 8007   3.465   4.054   8.668  0.1770 -1.6154  0.1655
   84SAPS  H17Y 8008   3.371   4.197   8.602 -1.6057 -0.9199 -3.2104
   84SAPS  C318 8009   3.302   3.996   8.542  0.2935 -0.4826  0.3282
   84SAPS  H18X 8010   3.303   3.894   8.585 -2.3108 -0.7099 -0.0931
   84SAPS  H18Y 8011   3.340   4.013   8.439  0.8562  0.6671  0.7145
   84SAPS  H18Z 8012   3.194   4.013   8.522  0.6357 -0.5426 -1.6726
   85SAPS     N 8013   0.291   0.138  10.932 -0.0536  0.2821 -0.5002
   85SAPS   HN1 8014   0.215   0.193  10.887  1.8557  2.1585 -1.5106
   85SAPS   HN2 8015   0.358   0.099  10.863 -0.7497 -0.0569 -0.9931
   85SAPS   HN3 8016   0.245   0.062  10.986 -0.3178  0.4484 -0.4862
   85SAPS   C12 8017   0.366   0.220  11.031  0.2516  0.4080  0.2890
   85SAPS  H12A 8018   0.347   0.323  11.006  0.7095  0.8139  1.5822
   85SAPS   C13 8019   0.306   0.192  11.168 -0.2003  0.6238 -0.4431
   85SAPS  O13A 8020   0.227   0.091  11.178  0.2905  0.0871  0.3582
   85SAPS  O13B 8021   0.320   0.270  11.268  0.1419 -0.5962 -0.2370
   85SAPS   C11 8022   0.518   0.185  11.026 -0.0330  0.1036 -0.0840
   85SAPS  H11A 8023   0.570   0.250  11.099 -0.1040 -0.4292  0.4532
   85SAPS  H11B 8024   0.554   0.230  10.931  0.0864  0.7094  0.2476
   85SAPS     P 8025   0.595  -0.040  10.909  0.1886 -0.1804  0.5604
   85SAPS   O13 8026   0.745  -0.033  10.889  0.3068  0.2891 -0.3532
   85SAPS   O14 8027   0.540  -0.180  10.928  0.1327  0.2999 -0.0200
   85SAPS   O12 8028   0.557   0.044  11.032 -0.4563  0.3914 -0.0717
   85SAPS   O11 8029   0.529   0.035  10.790  0.1135 -0.1045 -0.2734
   85SAPS    C1 8030   0.484  -0.035  10.673 -0.1598  0.1839  0.5400
   85SAPS    HA 8031   0.434  -0.132  10.692 -1.6331  1.0556  1.1557
   85SAPS    HB 8032   0.410   0.027  10.617 -1.9472 -0.1703  2.4769
   85SAPS    C2 8033   0.597  -0.068  10.573  0.1202 -0.5699  0.1745
   85SAPS    HS 8034   0.676   0.008  10.591  2.4758 -3.0602  0.7498
   85SAPS   O21 8035   0.550  -0.058  10.442  0.1514  0.5630 -0.1632
   85SAPS   C21 8036   0.582   0.055  10.375  1.3607  0.8165  0.1955
   85SAPS   O22 8037   0.634   0.153  10.427 -0.3053 -0.7241 -0.1581
   85SAPS   C22 8038   0.551   0.035  10.227  0.0617 -0.5585 -0.3247
   85SAPS   H2R 8039   0.526  -0.072  10.209  3.7988 -1.1627 -2.2575
   85SAPS   H2S 8040   0.466   0.105  10.210  0.2352 -0.4551 -0.7765
   85SAPS    C3 8041   0.668  -0.206  10.584 -0.6054 -0.0504  0.5836
   85SAPS    HX 8042   0.597  -0.283  10.549 -1.9318  1.6926 -0.6807
   85SAPS    HY 8043   0.684  -0.233  10.691  0.6433 -0.9168  0.1834
   85SAPS   O31 8044   0.791  -0.206  10.508  0.7945  0.1988 -0.0794
   85SAPS   C31 8045   0.900  -0.256  10.570  0.6176  0.6644  0.4789
   85SAPS   O32 8046   0.902  -0.309  10.682 -0.4383 -0.2547  0.2466
   85SAPS   C32 8047   1.015  -0.255  10.464  0.7521  0.1907 -0.2543
   85SAPS   H2X 8048   1.065  -0.156  10.462 -1.9087  1.6729  2.2697
   85SAPS   H2Y 8049   0.970  -0.269  10.363 -0.0948 -1.4270  0.3280
   85SAPS   C23 8050   0.661   0.085  10.136 -0.4996 -0.0711  0.2820
   85SAPS   H3R 8051   0.703   0.177  10.182 -1.9020  0.5070  0.4362
   85SAPS   H3S 8052   0.615   0.122  10.042  0.6386 -1.5737 -0.8994
   85SAPS   C24 8053   0.770  -0.020  10.095 -0.2008  0.3286  0.1677
   85SAPS   H4R 8054   0.815  -0.057  10.190  1.2343  0.3396 -0.4932
   85SAPS   H4S 8055   0.850   0.038  10.046 -3.2856  2.8698 -2.0568
   85SAPS   C25 8056   0.720  -0.141  10.020  0.0497  0.1820  0.1053
   85SAPS   H5R 8057   0.715  -0.225  10.091  1.5398  0.3516  0.4197
   85SAPS   C26 8058   0.718  -0.156   9.887 -0.4698 -0.2439  0.9306
   85SAPS   H6R 8059   0.660  -0.241   9.848 -1.4125  0.8825 -0.1445
   85SAPS   C27 8060   0.754  -0.046   9.786 -0.6222  0.2135  0.6755
   85SAPS   H7R 8061   0.829  -0.094   9.719 -1.2030  0.8921 -0.4812
   85SAPS   H7S 8062   0.803   0.038   9.839  0.5292 -0.6164  0.9358
   85SAPS   C28 8063   0.628  -0.001   9.713 -0.2714 -0.3534  0.6362
   85SAPS   H8R 8064   0.553   0.059   9.765 -1.1861 -0.8920 -0.0489
   85SAPS   C29 8065   0.595  -0.034   9.587 -0.2298  0.0650 -0.7082
   85SAPS   H9R 8066   0.515   0.025   9.541 -1.2870  0.2989  1.4093
   85SAPS  C210 8067   0.662  -0.123   9.495  0.5186  0.5885  0.1709
   85SAPS  H10R 8068   0.589  -0.182   9.436  1.0795 -0.4198  0.4694
   85SAPS  H10S 8069   0.726  -0.197   9.549  0.3337 -1.9115 -2.8693
   85SAPS  C211 8070   0.762  -0.042   9.413 -0.0730  0.4967  0.6336
   85SAPS  H11R 8071   0.793   0.058   9.446  2.1595 -0.7492  2.4158
   85SAPS  C212 8072   0.809  -0.067   9.288  0.0725  0.3591  0.0392
   85SAPS  H12R 8073   0.866   0.009   9.232  0.8507 -0.1721  0.1155
   85SAPS  C213 8074   0.774  -0.182   9.194  0.0208 -0.4611  0.3009
   85SAPS  H13R 8075   0.721  -0.258   9.255  1.2013 -0.2148  1.6752
   85SAPS  H13S 8076   0.865  -0.223   9.146 -0.3079  1.3186 -1.9086
   85SAPS  C214 8077   0.692  -0.142   9.075 -0.4229  0.5375  0.4841
   85SAPS  H14R 8078   0.590  -0.183   9.081  0.9824 -3.0323  1.4656
   85SAPS  C215 8079   0.720  -0.061   8.970 -0.5265  0.0220 -0.0761
   85SAPS  H15R 8080   0.643  -0.038   8.895 -1.2611  3.3960  1.6012
   85SAPS  C216 8081   0.856   0.005   8.946 -0.4070  0.9404  0.0137
   85SAPS  H16R 8082   0.933  -0.024   9.020 -0.7500 -0.6210 -0.2084
   85SAPS  H16S 8083   0.851   0.115   8.960  1.0664  0.8601  1.2401
   85SAPS  C217 8084   0.914  -0.048   8.813 -0.5014 -0.7298  0.1613
   85SAPS  H17R 8085   0.896  -0.157   8.799  0.0863 -1.1724  2.5795
   85SAPS  H17S 8086   1.019  -0.013   8.816 -0.5600 -0.2782 -2.0230
   85SAPS  C218 8087   0.849   0.026   8.690  0.1119  0.4084 -0.4476
   85SAPS  H18R 8088   0.898   0.126   8.684  0.7256  0.1896  0.6917
   85SAPS  H18S 8089   0.745   0.057   8.715 -0.6567 -1.5956 -1.1300
   85SAPS  C219 8090   0.855  -0.067   8.568 -0.4406  0.1449  0.3248
   85SAPS  H19R 8091   0.769  -0.066   8.498 -1.5424 -2.3090  1.5860
   85SAPS  H19S 8092   0.836  -0.173   8.598  1.0455  0.0064  0.8268
   85SAPS  C220 8093   0.988  -0.062   8.493  0.4999  0.3641 -0.4794
   85SAPS  H20R 8094   0.986  -0.124   8.401  2.1182 -0.7196  0.1847
   85SAPS  H20S 8095   1.066  -0.111   8.556 -0.2918 -1.3667 -0.8043
   85SAPS  H20T 8096   1.009   0.043   8.465 -1.6617  1.5235  2.0580
   85SAPS   C33 8097   1.119  -0.373  10.491  0.5273 -0.4811  0.3048
   85SAPS   H3X 8098   1.068  -0.467  10.461  0.9554  0.4587 -3.6223
   85SAPS   H3Y 8099   1.153  -0.358  10.596  1.4250  4.6717 -0.5838
   85SAPS   C34 8100   1.249  -0.359  10.400  0.7224  0.7076 -0.1546
   85SAPS   H4X 8101   1.306  -0.270  10.435 -0.7276  0.8289  1.9957
   85SAPS   H4Y 8102   1.216  -0.342  10.295 -0.7808  1.8684  0.5003
   85SAPS   C35 8103   1.338  -0.484  10.405 -0.4482 -0.0238  0.5601
   85SAPS   H5X 8104   1.272  -0.573  10.394  0.1335 -0.5160  1.0720
   85SAPS   H5Y 8105   1.382  -0.470  10.506  1.3137 -1.8509  0.0818
   85SAPS   C36 8106   1.462  -0.481  10.318  0.4165  0.4350 -0.2488
   85SAPS   H6X 8107   1.529  -0.565  10.345  0.1108  0.6675  1.2866
   85SAPS   H6Y 8108   1.526  -0.391  10.334  1.3057  0.2458 -2.5458
   85SAPS   C37 8109   1.444  -0.494  10.164  0.1769 -0.5950  0.3624
   85SAPS   H7X 8110   1.370  -0.417  10.133  0.2597  0.6372  3.0662
   85SAPS   H7Y 8111   1.388  -0.588  10.148  0.0713 -0.0986 -2.4837
   85SAPS   C38 8112   1.585  -0.478  10.097  0.4037 -0.0477  0.7149
   85SAPS   H8X 8113   1.640  -0.573  10.115  0.8785 -0.2809 -1.7382
   85SAPS   H8Y 8114   1.645  -0.398  10.145 -0.1329  0.3814  0.6736
   85SAPS   C39 8115   1.579  -0.461   9.945  0.1353 -0.2790  0.1551
   85SAPS   H9X 8116   1.678  -0.439   9.900 -0.6621  1.0269 -1.0018
   85SAPS   H9Y 8117   1.513  -0.377   9.915 -1.6501 -1.6292  0.1850
   85SAPS  C310 8118   1.527  -0.583   9.866  0.0522 -0.0855 -0.1679
   85SAPS  H10X 8119   1.423  -0.608   9.895  0.1655  0.9271  1.1443
   85SAPS  H10Y 8120   1.584  -0.673   9.899 -1.6999 -1.1141  0.0975
   85SAPS  C311 8121   1.542  -0.593   9.716  0.1999  0.4958  0.3335
   85SAPS  H11X 8122   1.492  -0.686   9.682 -0.1039  0.1787  1.6253
   85SAPS  H11Y 8123   1.651  -0.601   9.695 -0.0505  1.2371 -1.3278
   85SAPS  C312 8124   1.480  -0.476   9.645 -0.1973  0.4729 -0.2569
   85SAPS  H12X 8125   1.567  -0.407   9.638  2.4110 -2.8259 -1.6574
   85SAPS  H12Y 8126   1.400  -0.435   9.710 -1.3458 -0.2429 -1.2127
   85SAPS  C313 8127   1.440  -0.515   9.498  0.4891 -0.0927  0.4271
   85SAPS  H13X 8128   1.394  -0.427   9.449  0.6407 -1.4360 -2.1732
   85SAPS  H13Y 8129   1.364  -0.596   9.490  0.7531 -0.4212  1.1213
   85SAPS  C314 8130   1.557  -0.569   9.415 -0.2814 -0.3702 -1.0020
   85SAPS  H14X 8131   1.578  -0.675   9.445  1.3795  0.0776 -0.4816
   85SAPS  H14Y 8132   1.649  -0.513   9.442  0.8896 -2.7007 -0.0103
   85SAPS  C315 8133   1.540  -0.553   9.264 -0.5847 -0.2061  0.2889
   85SAPS  H15X 8134   1.573  -0.452   9.232  0.6231 -0.8003 -0.3989
   85SAPS  H15Y 8135   1.433  -0.568   9.238  0.1582 -4.0697 -0.9532
   85SAPS  C316 8136   1.620  -0.661   9.197 -0.4128 -0.3319  0.3259
   85SAPS  H16X 8137   1.572  -0.756   9.227  1.0385 -1.3819 -0.6239
   85SAPS  H16Y 8138   1.718  -0.649   9.249  0.0052 -2.0203 -0.0528
   85SAPS  C317 8139   1.634  -0.649   9.043  0.3318 -0.9495 -0.2823
   85SAPS  H17X 8140   1.674  -0.551   9.008 -2.9747  0.4048 -0.4535
   85SAPS  H17Y 8141   1.529  -0.649   9.006  0.5563 -0.2927 -0.9427
   85SAPS  C318 8142   1.704  -0.766   8.983  0.5997 -0.3047 -0.2373
   85SAPS  H18X 8143   1.739  -0.744   8.880 -1.3096 -2.4488 -1.3814
   85SAPS  H18Y 8144   1.653  -0.864   8.982  0.6575 -0.3579  1.0794
   85SAPS  H18Z 8145   1.786  -0.782   9.056 -1.9650  0.2492  2.8401
   86SAPS     N 8146   2.488   0.321  11.160  0.1136  0.5470  0.4459
   86SAPS   HN1 8147   2.453   0.396  11.096 -0.2652 -0.0791 -0.0774
   86SAPS   HN2 8148   2.431   0.235  11.163  0.6579  0.2326  2.4094
   86SAPS   HN3 8149   2.490   0.358  11.257 -0.0720 -1.4004  1.2018
   86SAPS   C12 8150   2.619   0.268  11.109  0.7624  0.4048  0.2575
   86SAPS  H12A 8151   2.692   0.348  11.106 -0.2589  1.3715  0.8616
   86SAPS   C13 8152   2.669   0.161  11.208 -1.1196  0.0096  0.6899
   86SAPS  O13A 8153   2.599   0.133  11.308  0.0080  0.2643 -0.1325
   86SAPS  O13B 8154   2.779   0.103  11.182  1.1549  0.1498 -0.8168
   86SAPS   C11 8155   2.599   0.217  10.960 -0.9768 -0.5222  0.2951
   86SAPS  H11A 8156   2.536   0.293  10.909 -3.0551 -1.3701  1.5177
   86SAPS  H11B 8157   2.540   0.123  10.967 -0.1886 -1.0363  0.0380
   86SAPS     P 8158   2.775   0.077  10.811  0.0318  0.1485  0.1977
   86SAPS   O13 8159   2.922   0.069  10.811  0.3099 -1.2997  0.8881
   86SAPS   O14 8160   2.713  -0.041  10.864 -0.3720 -0.1799 -0.1543
   86SAPS   O12 8161   2.726   0.204  10.890 -0.6787 -0.0146 -0.1130
   86SAPS   O11 8162   2.720   0.114  10.661 -0.1665 -0.0022 -0.0005
   86SAPS    C1 8163   2.777   0.242  10.606 -0.1286 -0.4943  0.3594
   86SAPS    HA 8164   2.703   0.325  10.606  0.7345  0.2932 -0.3684
   86SAPS    HB 8165   2.866   0.280  10.659  1.5435  2.0162 -3.9485
   86SAPS    C2 8166   2.827   0.204  10.465  0.2217 -0.1320  0.1134
   86SAPS    HS 8167   2.860   0.302  10.423  1.8773 -1.1706 -1.0786
   86SAPS   O21 8168   2.713   0.155  10.397  0.9877  0.3367 -0.1826
   86SAPS   C21 8169   2.633   0.246  10.351  0.4364 -0.6563  0.7344
   86SAPS   O22 8170   2.628   0.362  10.393  0.3057  0.2260  0.2634
   86SAPS   C22 8171   2.544   0.192  10.240 -0.0354 -0.6231  0.0552
   86SAPS   H2R 8172   2.578   0.091  10.210  1.6138 -0.1448  0.2520
   86SAPS   H2S 8173   2.444   0.181  10.287 -0.9693  1.6421 -1.3100
   86SAPS    C3 8174   2.938   0.099  10.461  0.1194 -0.3920 -0.0597
   86SAPS    HX 8175   2.904   0.009  10.517 -1.7398  0.4610  0.2391
   86SAPS    HY 8176   3.022   0.133  10.526 -0.5704  0.7430  0.2559
   86SAPS   O31 8177   2.982   0.070  10.328  0.0137 -0.2265 -0.0007
   86SAPS   C31 8178   3.016  -0.050  10.295  0.0084 -0.1220  0.1406
   86SAPS   O32 8179   3.034  -0.140  10.372  0.0314 -0.1865 -0.1563
   86SAPS   C32 8180   3.055  -0.058  10.156  0.3596 -0.1147 -1.1212
   86SAPS   H2X 8181   3.160  -0.025  10.142  1.0665 -1.1835  1.4154
   86SAPS   H2Y 8182   2.991   0.011  10.096  0.5985 -0.8749 -2.2644
   86SAPS   C23 8183   2.532   0.286  10.119 -0.5705  0.2236  0.2636
   86SAPS   H3R 8184   2.472   0.372  10.155 -0.9935  0.1487 -0.2580
   86SAPS   H3S 8185   2.476   0.235  10.038 -1.6262  0.1156  1.0548
   86SAPS   C24 8186   2.671   0.351  10.060 -0.2347 -0.0913  0.0024
   86SAPS   H4R 8187   2.696   0.440  10.122  0.9718  0.3958 -1.1503
   86SAPS   H4S 8188   2.642   0.399   9.964  0.7002 -0.0911 -0.2873
   86SAPS   C25 8189   2.779   0.256  10.030 -0.2007 -0.8248  0.1067
   86SAPS   H5R 8190   2.828   0.215  10.119 -2.5121 -1.9725  0.9073
   86SAPS   C26 8191   2.832   0.235   9.907  1.1221  0.3509  0.6701
   86SAPS   H6R 8192   2.906   0.154   9.896  0.1728 -0.5912  1.0496
   86SAPS   C27 8193   2.785   0.302   9.781 -0.6955  0.3739 -0.3053
   86SAPS   H7R 8194   2.855   0.387   9.765  1.6134 -1.6149 -1.2893
   86SAPS   H7S 8195   2.678   0.325   9.794 -0.7490 -0.2389  0.3467
   86SAPS   C28 8196   2.790   0.214   9.661  0.6480  0.3739  0.4605
   86SAPS   H8R 8197   2.775   0.108   9.686 -0.2509  0.8517  2.0545
   86SAPS   C29 8198   2.822   0.249   9.532  0.1722  0.0118  1.2136
   86SAPS   H9R 8199   2.809   0.170   9.457  3.8803  0.3588  0.1321
   86SAPS  C210 8200   2.851   0.385   9.478  1.2822  0.1159  0.0343
   86SAPS  H10R 8201   2.958   0.390   9.446  0.9579 -0.3064 -1.1330
   86SAPS  H10S 8202   2.831   0.469   9.548  0.7481  0.3062 -0.3438
   86SAPS  C211 8203   2.790   0.401   9.340 -0.4617 -0.6952 -0.1042
   86SAPS  H11R 8204   2.811   0.322   9.266 -1.2723 -0.7689 -0.2588
   86SAPS  C212 8205   2.722   0.517   9.307  0.2111  0.5411  0.2890
   86SAPS  H12R 8206   2.715   0.522   9.198  1.2164 -0.3473  0.1662
   86SAPS  C213 8207   2.679   0.641   9.381  0.2249 -0.0197  0.0676
   86SAPS  H13R 8208   2.690   0.731   9.318  0.0131  0.4450  0.6787
   86SAPS  H13S 8209   2.739   0.663   9.472  0.3705 -0.7342  0.1430
   86SAPS  C214 8210   2.534   0.623   9.421  0.1552 -0.4473  0.6043
   86SAPS  H14R 8211   2.458   0.623   9.342 -1.3104 -0.4880  1.9889
   86SAPS  C215 8212   2.489   0.626   9.542  0.3861  0.0998 -0.6320
   86SAPS  H15R 8213   2.379   0.620   9.551  0.2392  1.2600 -1.4918
   86SAPS  C216 8214   2.564   0.653   9.668 -0.6960  0.1389  0.1899
   86SAPS  H16R 8215   2.602   0.757   9.669  0.8599 -0.4154 -0.6401
   86SAPS  H16S 8216   2.646   0.581   9.685  1.7274  2.5593 -0.9456
   86SAPS  C217 8217   2.472   0.636   9.790 -0.0571 -0.1496  0.1663
   86SAPS  H17R 8218   2.441   0.529   9.788  0.8204 -0.3961 -0.5424
   86SAPS  H17S 8219   2.384   0.702   9.773 -0.1883 -0.7505 -1.5346
   86SAPS  C218 8220   2.539   0.673   9.923 -0.0456 -0.4005 -0.2770
   86SAPS  H18R 8221   2.644   0.638   9.926  1.2187  3.2579  0.9995
   86SAPS  H18S 8222   2.490   0.615  10.005 -1.4404  0.8953 -0.1728
   86SAPS  C219 8223   2.540   0.818   9.957  0.7625  0.7033  0.4447
   86SAPS  H19R 8224   2.443   0.856   9.995 -0.5288 -1.9070 -0.0908
   86SAPS  H19S 8225   2.555   0.866   9.858  0.3299  0.7542  0.4004
   86SAPS  C220 8226   2.650   0.849  10.055  0.1254  0.2855 -0.1168
   86SAPS  H20R 8227   2.623   0.798  10.150 -2.3356 -0.4820 -1.1709
   86SAPS  H20S 8228   2.665   0.958  10.068 -0.3883  0.2011  1.3233
   86SAPS  H20T 8229   2.749   0.806  10.029 -1.2110 -2.7677 -0.3913
   86SAPS   C33 8230   3.049  -0.204  10.110 -0.2379  0.4572  0.0152
   86SAPS   H3X 8231   2.953  -0.254  10.134  0.0707 -0.9771 -1.5558
   86SAPS   H3Y 8232   3.126  -0.260  10.169  0.6788 -0.9182 -2.3779
   86SAPS   C34 8233   3.095  -0.223   9.962 -0.6613 -0.0002  0.3832
   86SAPS   H4X 8234   3.115  -0.330   9.940 -1.0097  0.3148 -1.6305
   86SAPS   H4Y 8235   3.195  -0.176   9.949 -0.9373  0.8118  1.1427
   86SAPS   C35 8236   3.005  -0.164   9.849 -0.3906  0.4891  0.0796
   86SAPS   H5X 8237   2.996  -0.053   9.846  0.9701  0.5651 -2.2709
   86SAPS   H5Y 8238   2.903  -0.208   9.850 -0.2250 -0.0059 -2.0166
   86SAPS   C36 8239   3.060  -0.206   9.715  0.1461  0.2840 -0.1997
   86SAPS   H6X 8240   3.079  -0.315   9.727  0.3057  0.5015  1.6464
   86SAPS   H6Y 8241   3.163  -0.165   9.707  0.4222 -0.5217 -0.7460
   86SAPS   C37 8242   2.992  -0.167   9.582  0.6843 -0.4536 -0.0873
   86SAPS   H7X 8243   2.977  -0.057   9.584 -0.2217 -0.5903  0.8792
   86SAPS   H7Y 8244   2.896  -0.220   9.563 -1.5259  3.0794  0.8136
   86SAPS   C38 8245   3.079  -0.222   9.459 -0.7650  0.4833  0.5301
   86SAPS   H8X 8246   3.089  -0.332   9.475 -1.0542  0.4912  0.7772
   86SAPS   H8Y 8247   3.173  -0.165   9.471  0.0884 -0.5062 -1.2440
   86SAPS   C39 8248   3.021  -0.190   9.319 -0.0611  0.5169 -0.0632
   86SAPS   H9X 8249   3.036  -0.082   9.297  3.8165 -0.1026 -0.8676
   86SAPS   H9Y 8250   2.915  -0.214   9.298  0.2171  0.5820 -1.5862
   86SAPS  C310 8251   3.104  -0.259   9.209  0.6399  0.7706 -0.1099
   86SAPS  H10X 8252   3.065  -0.236   9.108  1.0847  1.7851 -0.0476
   86SAPS  H10Y 8253   3.099  -0.370   9.215  1.5908  0.7936  1.2539
   86SAPS  C311 8254   3.243  -0.200   9.211  0.2757  0.2467 -0.3552
   86SAPS  H11X 8255   3.303  -0.232   9.299 -0.2865 -0.0736 -0.0834
   86SAPS  H11Y 8256   3.219  -0.093   9.224 -3.2575 -0.5291 -0.0482
   86SAPS  C312 8257   3.334  -0.240   9.092 -1.1017  0.3499  0.0321
   86SAPS  H12X 8258   3.278  -0.215   8.999 -1.7677 -0.0699  0.3209
   86SAPS  H12Y 8259   3.346  -0.351   9.095  0.8855  0.5503 -0.1208
   86SAPS  C313 8260   3.475  -0.166   9.087  0.3431 -0.3446 -0.5597
   86SAPS  H13X 8261   3.516  -0.176   9.190 -2.1191 -0.3671  0.4620
   86SAPS  H13Y 8262   3.463  -0.064   9.046 -1.6756 -1.1363 -2.0784
   86SAPS  C314 8263   3.577  -0.239   8.997  0.3573 -0.5119 -0.3300
   86SAPS  H14X 8264   3.550  -0.250   8.890 -0.3381  0.2955 -0.2435
   86SAPS  H14Y 8265   3.592  -0.337   9.047 -0.3708 -0.4049  0.1045
   86SAPS  C315 8266   3.711  -0.169   9.002  0.8232 -0.3399 -0.3078
   86SAPS  H15X 8267   3.732  -0.130   9.104 -0.4451 -0.9229  0.1887
   86SAPS  H15Y 8268   3.700  -0.080   8.938  0.4415 -0.4918 -0.4551
   86SAPS  C316 8269   3.821  -0.272   8.961 -0.2672 -0.5463  0.2097
   86SAPS  H16X 8270   3.785  -0.330   8.874 -1.4245 -2.4897  1.9558
   86SAPS  H16Y 8271   3.834  -0.355   9.033 -1.0664 -1.4866 -0.7215
   86SAPS  C317 8272   3.961  -0.216   8.934 -0.2354  0.1785  0.0484
   86SAPS  H17X 8273   3.997  -0.169   9.028 -0.6769  1.3864 -0.3827
   86SAPS  H17Y 8274   3.952  -0.138   8.855 -2.0877  0.4783  0.5390
   86SAPS  C318 8275   4.056  -0.317   8.869  0.5803  0.5680 -0.3976
   86SAPS  H18X 8276   3.999  -0.368   8.787 -0.3457 -1.2403  1.3361
   86SAPS  H18Y 8277   4.083  -0.392   8.946  0.1328 -1.0729 -1.7982
   86SAPS  H18Z 8278   4.147  -0.273   8.824 -0.1306  2.2229 -0.2284
   87SAPS     N 8279   3.106   0.925  11.104 -0.0815  0.5497  0.0509
   87SAPS   HN1 8280   3.042   1.004  11.123  0.3722  0.7166  0.8894
   87SAPS   HN2 8281   3.172   0.944  11.025  1.4014 -0.2845  1.0677
   87SAPS   HN3 8282   3.045   0.848  11.069 -0.6992  0.6591  0.8895
   87SAPS   C12 8283   3.195   0.892  11.221  0.0790  0.2527  0.0925
   87SAPS  H12A 8284   3.233   0.984  11.262  0.2002  0.6319 -0.8639
   87SAPS   C13 8285   3.106   0.833  11.336  1.0241  0.4285 -1.1731
   87SAPS  O13A 8286   3.001   0.768  11.304  0.1378 -0.0528  0.1165
   87SAPS  O13B 8287   3.154   0.842  11.449 -0.0280 -0.1729  0.2510
   87SAPS   C11 8288   3.302   0.790  11.180  0.1552  0.0966 -0.4611
   87SAPS  H11A 8289   3.258   0.688  11.177  1.9093 -0.7111  0.2570
   87SAPS  H11B 8290   3.379   0.792  11.259  0.5580  3.5091 -0.8924
   87SAPS     P 8291   3.469   0.740  10.985 -0.1295  0.0665  0.1693
   87SAPS   O13 8292   3.591   0.722  11.072  0.5608  0.4459  1.6713
   87SAPS   O14 8293   3.421   0.608  10.945  0.2984  0.0161  0.1726
   87SAPS   O12 8294   3.360   0.833  11.061  0.0063 -0.0214  0.0257
   87SAPS   O11 8295   3.506   0.822  10.852 -0.1203 -0.4352 -0.1338
   87SAPS    C1 8296   3.412   0.906  10.779 -0.0922 -0.5843 -0.0900
   87SAPS    HA 8297   3.378   0.988  10.846  0.0225 -0.5109 -0.1222
   87SAPS    HB 8298   3.466   0.964  10.702  2.0849 -0.6637  1.3586
   87SAPS    C2 8299   3.288   0.826  10.721  0.8571 -0.1567 -0.7902
   87SAPS    HS 8300   3.226   0.802  10.809  0.4140  3.3549 -0.0723
   87SAPS   O21 8301   3.328   0.707  10.648  0.5928 -0.0272  0.4634
   87SAPS   C21 8302   3.220   0.630  10.618  0.0016  0.6715 -0.2878
   87SAPS   O22 8303   3.119   0.631  10.686  0.6357  0.1963  0.0208
   87SAPS   C22 8304   3.255   0.537  10.508  0.0563  0.0287  0.1349
   87SAPS   H2R 8305   3.209   0.578  10.415  2.3605 -1.1264 -1.5560
   87SAPS   H2S 8306   3.365   0.546  10.497  0.1257 -0.0371  0.7975
   87SAPS    C3 8307   3.215   0.921  10.624 -0.0221  0.5633 -0.2732
   87SAPS    HX 8308   3.204   1.010  10.690  0.1810  1.2403 -1.1410
   87SAPS    HY 8309   3.114   0.886  10.595  0.5832 -4.1373  2.8014
   87SAPS   O31 8310   3.293   0.959  10.510  0.1595  0.0410  0.1344
   87SAPS   C31 8311   3.248   1.070  10.456  0.3539  0.1332  0.1481
   87SAPS   O32 8312   3.151   1.137  10.495  0.1717  0.0450 -0.2848
   87SAPS   C32 8313   3.356   1.114  10.355 -0.8309  0.0308  0.3785
   87SAPS   H2X 8314   3.430   1.032  10.344 -1.2324 -0.6274  2.4292
   87SAPS   H2Y 8315   3.397   1.212  10.391  2.5225 -0.6007 -1.4449
   87SAPS   C23 8316   3.198   0.394  10.530 -0.1156  0.3563  0.3491
   87SAPS   H3R 8317   3.183   0.338  10.436  0.8345  0.6137  0.0330
   87SAPS   H3S 8318   3.096   0.404  10.573 -0.0560  2.6917  0.0322
   87SAPS   C24 8319   3.282   0.303  10.626  0.0888  0.3291  0.9997
   87SAPS   H4R 8320   3.219   0.218  10.661 -2.0702  1.1925 -0.6559
   87SAPS   H4S 8321   3.306   0.359  10.719  2.2040  2.1197 -0.5911
   87SAPS   C25 8322   3.412   0.257  10.561  0.0722  0.7701  0.3575
   87SAPS   H5R 8323   3.500   0.322  10.577 -0.6529  2.3951 -2.0178
   87SAPS   C26 8324   3.418   0.154  10.473  0.5774 -0.0647  0.1789
   87SAPS   H6R 8325   3.516   0.136  10.426  0.3685 -0.6486 -0.0443
   87SAPS   C27 8326   3.306   0.064  10.424  0.0393  0.3806 -0.8351
   87SAPS   H7R 8327   3.270   0.098  10.325 -0.3712 -1.1743 -1.2282
   87SAPS   H7S 8328   3.222   0.084  10.495  2.0070  2.3812  1.0189
   87SAPS   C28 8329   3.338  -0.086  10.407 -0.4628 -0.7328 -0.6663
   87SAPS   H8R 8330   3.287  -0.144  10.485 -1.5054  1.0025 -0.0477
   87SAPS   C29 8331   3.428  -0.139  10.324  0.3906  0.4836  0.2246
   87SAPS   H9R 8332   3.450  -0.246  10.338 -1.8799 -0.1577 -0.9480
   87SAPS  C210 8333   3.513  -0.062  10.227 -0.7243  0.2500  0.7471
   87SAPS  H10R 8334   3.613  -0.044  10.272  0.1705  1.2830 -1.5696
   87SAPS  H10S 8335   3.483   0.044  10.222  0.6054  0.5670 -1.0146
   87SAPS  C211 8336   3.509  -0.127  10.087  0.4310  0.1923 -0.2018
   87SAPS  H11R 8337   3.424  -0.189  10.054  0.2174 -0.3880  1.3794
   87SAPS  C212 8338   3.605  -0.110   9.990  0.3136 -0.1079 -0.2862
   87SAPS  H12R 8339   3.594  -0.158   9.892  0.6335  0.7364 -0.7358
   87SAPS  C213 8340   3.725  -0.014   9.998  0.0796  0.2064  0.0852
   87SAPS  H13R 8341   3.693   0.089  10.024 -1.1254 -0.4080  1.1094
   87SAPS  H13S 8342   3.766  -0.009   9.895 -1.3656 -0.5001 -0.5446
   87SAPS  C214 8343   3.829  -0.052  10.099 -0.4395 -0.2164 -0.2158
   87SAPS  H14R 8344   3.800  -0.135  10.165  2.4243 -2.0691 -1.1964
   87SAPS  C215 8345   3.941   0.020  10.123  1.0360 -0.0805 -0.1794
   87SAPS  H15R 8346   4.007  -0.003  10.208  1.3926 -2.0981 -0.9879
   87SAPS  C216 8347   3.969   0.147  10.054  0.0256 -0.4173  0.0315
   87SAPS  H16R 8348   3.925   0.143   9.952  0.9249 -1.2038 -0.3282
   87SAPS  H16S 8349   4.077   0.161  10.032 -0.4012  1.3093 -1.1055
   87SAPS  C217 8350   3.904   0.269  10.119 -0.1965  0.1427 -0.8195
   87SAPS  H17R 8351   3.953   0.286  10.217 -2.0977  2.2197 -0.1962
   87SAPS  H17S 8352   3.795   0.255  10.131  0.2986 -1.7961  1.7281
   87SAPS  C218 8353   3.912   0.406  10.048 -0.0705 -0.3530  0.3612
   87SAPS  H18R 8354   4.014   0.448  10.039  0.1645 -1.1452 -0.7739
   87SAPS  H18S 8355   3.857   0.487  10.100 -0.1905 -0.2319  0.0459
   87SAPS  C219 8356   3.863   0.409   9.900 -0.5883 -0.0934  0.2619
   87SAPS  H19R 8357   3.915   0.340   9.831  1.0978 -0.1261  1.5196
   87SAPS  H19S 8358   3.890   0.508   9.856  1.5199 -1.0032 -0.5246
   87SAPS  C220 8359   3.715   0.390   9.884  0.3929  0.0435  0.2169
   87SAPS  H20R 8360   3.682   0.407   9.779  0.9100 -2.4858 -0.3961
   87SAPS  H20S 8361   3.675   0.473   9.946 -0.4544  0.4806 -0.9155
   87SAPS  H20T 8362   3.671   0.290   9.902 -2.0241  0.5860 -2.3975
   87SAPS   C33 8363   3.280   1.142  10.228  0.6679 -0.1377  0.6297
   87SAPS   H3X 8364   3.346   1.180  10.148 -0.7545  1.5156  0.2046
   87SAPS   H3Y 8365   3.199   1.218  10.239  1.2650  0.6119 -0.1117
   87SAPS   C34 8366   3.217   1.018  10.158  0.4697 -0.2008  0.6484
   87SAPS   H4X 8367   3.115   1.018  10.203  0.7494 -2.8587  1.3902
   87SAPS   H4Y 8368   3.282   0.929  10.175  3.7124  1.4558 -2.5279
   87SAPS   C35 8369   3.190   1.034  10.005 -0.9454 -0.4067  0.9553
   87SAPS   H5X 8370   3.162   1.136   9.970  1.0140 -0.4495 -0.8405
   87SAPS   H5Y 8371   3.113   0.959   9.974 -1.8376  0.7602  0.2901
   87SAPS   C36 8372   3.311   1.009   9.907 -0.1057  0.4259  0.3384
   87SAPS   H6X 8373   3.347   0.905   9.914  2.4254  1.2647  0.0852
   87SAPS   H6Y 8374   3.392   1.081   9.932 -0.2718  0.5798  0.4363
   87SAPS   C37 8375   3.259   1.036   9.766  0.1754  0.1840 -0.2186
   87SAPS   H7X 8376   3.187   1.121   9.766 -2.3167 -1.7684  3.7663
   87SAPS   H7Y 8377   3.182   0.964   9.731 -0.2450  0.5035  0.0345
   87SAPS   C38 8378   3.360   1.063   9.661 -0.6882  0.0341  0.0878
   87SAPS   H8X 8379   3.422   0.972   9.649 -0.2114  0.6613 -2.2925
   87SAPS   H8Y 8380   3.419   1.153   9.688 -0.4038 -0.5366  1.4318
   87SAPS   C39 8381   3.298   1.081   9.515 -0.4252 -0.2111  0.1886
   87SAPS   H9X 8382   3.244   1.176   9.493  0.1005 -0.2208 -1.1691
   87SAPS   H9Y 8383   3.229   0.994   9.502 -1.3108  0.8625 -2.7691
   87SAPS  C310 8384   3.402   1.077   9.406 -0.3486  0.2031  0.5109
   87SAPS  H10X 8385   3.430   0.970   9.397 -1.4467 -0.0667  0.1180
   87SAPS  H10Y 8386   3.489   1.145   9.413 -0.2816  0.0078  1.6005
   87SAPS  C311 8387   3.344   1.118   9.272  0.0419  0.3749  0.0217
   87SAPS  H11X 8388   3.344   1.230   9.272  2.5385  0.5719  5.9500
   87SAPS  H11Y 8389   3.235   1.097   9.272 -0.2052  1.5526  1.0737
   87SAPS  C312 8390   3.406   1.053   9.150  0.2295  0.5400 -0.1127
   87SAPS  H12X 8391   3.388   0.944   9.150  1.1520  0.3817 -1.3581
   87SAPS  H12Y 8392   3.515   1.073   9.145 -0.0354  1.7217 -1.6564
   87SAPS  C313 8393   3.339   1.107   9.023  0.0306 -0.1021  0.3331
   87SAPS  H13X 8394   3.288   1.201   9.053  0.5100 -0.1751  1.3613
   87SAPS  H13Y 8395   3.250   1.042   9.002 -0.5618  0.6501  0.5070
   87SAPS  C314 8396   3.431   1.115   8.900  0.4331 -0.4399  0.3025
   87SAPS  H14X 8397   3.488   1.020   8.891 -0.5268 -0.9299 -0.7258
   87SAPS  H14Y 8398   3.506   1.196   8.915  0.1936 -0.3071  0.7845
   87SAPS  C315 8399   3.352   1.134   8.767 -0.1846  0.8125  0.0745
   87SAPS  H15X 8400   3.321   1.240   8.752 -0.7494  0.4384 -1.4671
   87SAPS  H15Y 8401   3.258   1.075   8.773 -1.0547  2.0203 -1.3016
   87SAPS  C316 8402   3.431   1.093   8.646  0.1014 -0.1733  0.1716
   87SAPS  H16X 8403   3.467   0.989   8.660 -0.8605 -0.6843 -1.0789
   87SAPS  H16Y 8404   3.526   1.147   8.625 -1.3066  1.5518 -1.9255
   87SAPS  C317 8405   3.361   1.097   8.508 -0.5003  0.0271  0.4812
   87SAPS  H17X 8406   3.334   1.204   8.498  1.5636  0.6214  0.9811
   87SAPS  H17Y 8407   3.274   1.028   8.512 -0.1554 -0.6249 -2.2567
   87SAPS  C318 8408   3.444   1.053   8.395  0.0403  0.6691  0.4349
   87SAPS  H18X 8409   3.512   1.137   8.369  0.6885  0.4425  1.3754
   87SAPS  H18Y 8410   3.384   1.028   8.304  0.9155  0.4450 -0.0839
   87SAPS  H18Z 8411   3.492   0.959   8.427 -0.9387  0.5731  1.6830
   88SAPS     N 8412   5.964   5.079  10.997 -0.8110  0.2345 -0.5368
   88SAPS   HN1 8413   5.868   5.039  10.989 -1.2984  1.7407 -2.5451
   88SAPS   HN2 8414   5.953   5.162  11.058 -0.6936  0.3104 -0.6194
   88SAPS   HN3 8415   5.985   5.117  10.902 -2.3928 -0.9752 -1.3962
   88SAPS   C12 8416   6.060   4.991  11.054 -0.0020 -0.1558  0.3680
   88SAPS  H12A 8417   6.148   5.049  11.079  0.4751 -0.6545 -0.1450
   88SAPS   C13 8418   6.022   4.934  11.194  0.7697  0.8082 -0.7013
   88SAPS  O13A 8419   5.921   4.981  11.254  0.8660  0.8713  0.2100
   88SAPS  O13B 8420   6.119   4.883  11.253  0.4292  0.5030  0.0800
   88SAPS   C11 8421   6.117   4.888  10.954  0.9341  0.1381  0.3358
   88SAPS  H11A 8422   6.051   4.799  10.961  0.7984 -0.0594 -2.9468
   88SAPS  H11B 8423   6.208   4.853  11.008  0.9750  0.8785  0.7491
   88SAPS     P 8424   6.210   4.838  10.725  0.3595  0.0945  0.2096
   88SAPS   O13 8425   6.344   4.815  10.780  0.5728 -0.4288 -0.4351
   88SAPS   O14 8426   6.124   4.720  10.719 -0.0421 -0.1267  0.1619
   88SAPS   O12 8427   6.145   4.944  10.826  0.4934  0.0670 -0.2012
   88SAPS   O11 8428   6.210   4.903  10.588  0.4087 -0.0473 -0.5454
   88SAPS    C1 8429   6.209   5.048  10.573 -1.1691  0.5030 -0.0951
   88SAPS    HA 8430   6.105   5.088  10.579 -1.4090 -0.1669  0.3097
   88SAPS    HB 8431   6.280   5.098  10.642 -0.0732  0.3004 -1.0740
   88SAPS    C2 8432   6.257   5.091  10.430 -0.2431  0.1954  0.1541
   88SAPS    HS 8433   6.260   5.202  10.431 -1.4832  0.2753 -1.6291
   88SAPS   O21 8434   6.178   5.038  10.321 -0.2629  0.0719 -0.0756
   88SAPS   C21 8435   6.060   5.085  10.305  0.0897  0.4886  0.2479
   88SAPS   O22 8436   6.004   5.169  10.371  0.0472  0.5472 -0.1531
   88SAPS   C22 8437   6.010   5.023  10.172 -0.0445 -0.3525 -0.1030
   88SAPS   H2R 8438   6.085   5.016  10.091 -0.3761 -0.1722 -0.4271
   88SAPS   H2S 8439   5.985   4.919  10.202 -2.3694 -0.0828 -0.9773
   88SAPS    C3 8440   6.404   5.034  10.418  0.0654 -0.1359  1.0962
   88SAPS    HX 8441   6.394   4.924  10.422 -2.2063  0.0115  0.2014
   88SAPS    HY 8442   6.458   5.076  10.505  0.4141  1.0879  0.2994
   88SAPS   O31 8443   6.471   5.077  10.292  0.1832 -0.1917 -0.2695
   88SAPS   C31 8444   6.471   5.000  10.192 -0.1389  0.2121  0.7599
   88SAPS   O32 8445   6.414   4.887  10.187 -0.3955  0.6555 -0.3598
   88SAPS   C32 8446   6.534   5.070  10.070 -0.6236  0.1390  0.1900
   88SAPS   H2X 8447   6.542   4.999   9.985  1.6512  1.8584 -1.0734
   88SAPS   H2Y 8448   6.633   5.109  10.100 -0.8549  1.2040 -0.4114
   88SAPS   C23 8449   5.889   5.097  10.121 -0.1233 -0.1396 -0.1932
   88SAPS   H3R 8450   5.904   5.207  10.116 -2.5961  0.1937 -1.2411
   88SAPS   H3S 8451   5.802   5.090  10.190 -0.4922 -1.5698 -0.7713
   88SAPS   C24 8452   5.845   5.042   9.984 -0.8457 -0.8369  0.3355
   88SAPS   H4R 8453   5.942   5.027   9.932 -0.4979  0.4820  0.5758
   88SAPS   H4S 8454   5.781   5.125   9.947  1.3217  0.9701  0.4967
   88SAPS   C25 8455   5.773   4.911   9.972 -0.2380 -0.3826 -0.7995
   88SAPS   H5R 8456   5.814   4.827  10.029  1.2067  1.0797  0.3568
   88SAPS   C26 8457   5.661   4.889   9.903  0.1138  0.5959  0.0925
   88SAPS   H6R 8458   5.610   4.792   9.900  1.1162  0.0779 -0.3525
   88SAPS   C27 8459   5.591   4.997   9.822  0.3979 -0.0351  0.8192
   88SAPS   H7R 8460   5.665   5.060   9.769 -0.3377  2.6113  2.7979
   88SAPS   H7S 8461   5.526   5.060   9.886 -0.1373 -0.5383  0.7755
   88SAPS   C28 8462   5.491   4.923   9.725  0.2789 -0.3393 -0.4041
   88SAPS   H8R 8463   5.387   4.912   9.761 -0.0368  2.1417 -0.4031
   88SAPS   C29 8464   5.517   4.896   9.592  0.1374  0.8408  0.1588
   88SAPS   H9R 8465   5.437   4.871   9.522  1.1309 -0.0402 -0.6889
   88SAPS  C210 8466   5.652   4.915   9.526 -0.1225  0.2799 -0.1294
   88SAPS  H10R 8467   5.666   4.837   9.449  1.9566  1.4869 -1.0034
   88SAPS  H10S 8468   5.738   4.894   9.593  0.1196  0.1122 -0.4963
   88SAPS  C211 8469   5.676   5.042   9.455 -1.0937 -0.1918 -0.2490
   88SAPS  H11R 8470   5.749   5.105   9.508 -0.5199 -0.9621 -0.1150
   88SAPS  C212 8471   5.616   5.089   9.342  0.4316  0.2894 -0.4060
   88SAPS  H12R 8472   5.647   5.191   9.316 -1.9687  0.8535 -1.1494
   88SAPS  C213 8473   5.512   5.020   9.256  0.3242 -0.4657 -0.0159
   88SAPS  H13R 8474   5.547   4.915   9.260 -1.3670 -1.0782 -0.6354
   88SAPS  H13S 8475   5.529   5.052   9.151 -1.1315  0.4537  0.0149
   88SAPS  C214 8476   5.372   5.036   9.311  0.4399 -0.4978 -0.4336
   88SAPS  H14R 8477   5.366   5.054   9.420 -0.8474  1.4199 -0.8044
   88SAPS  C215 8478   5.267   5.023   9.238 -0.1560  1.1261  0.6919
   88SAPS  H15R 8479   5.172   5.008   9.292 -0.9635 -0.8093 -1.1915
   88SAPS  C216 8480   5.274   4.992   9.089 -0.2395  0.5515  0.5153
   88SAPS  H16R 8481   5.344   4.912   9.056 -1.6518 -0.5744  0.2537
   88SAPS  H16S 8482   5.306   5.083   9.032  0.5426  1.0207  1.6751
   88SAPS  C217 8483   5.137   4.953   9.035 -0.5986  0.3262 -0.1977
   88SAPS  H17R 8484   5.097   4.866   9.092  1.6840 -1.9173 -1.8947
   88SAPS  H17S 8485   5.127   4.925   8.928 -1.0011  1.5630 -0.4995
   88SAPS  C218 8486   5.021   5.062   9.042 -0.0793 -0.0023 -0.3180
   88SAPS  H18R 8487   5.054   5.164   9.015  2.3071 -0.2346  1.5281
   88SAPS  H18S 8488   5.002   5.071   9.151  2.5137 -0.8989  0.2419
   88SAPS  C219 8489   4.900   5.021   8.957 -0.2558  0.3399 -0.6407
   88SAPS  H19R 8490   4.866   4.924   8.998 -0.1812  0.9442  0.9010
   88SAPS  H19S 8491   4.932   5.021   8.851  1.0601  0.6464 -0.2605
   88SAPS  C220 8492   4.788   5.133   8.964  0.1139  0.2139 -0.3182
   88SAPS  H20R 8493   4.706   5.104   8.894  0.7620  2.1323 -1.9513
   88SAPS  H20S 8494   4.840   5.228   8.939  1.7589  0.0019  2.1919
   88SAPS  H20T 8495   4.750   5.143   9.067  0.1087 -1.4479 -0.1477
   88SAPS   C33 8496   6.442   5.186  10.039 -0.1480 -0.2944  0.2933
   88SAPS   H3X 8497   6.465   5.260  10.119 -0.0703  0.9579 -0.8686
   88SAPS   H3Y 8498   6.337   5.151  10.035  0.2857 -1.6131  0.1923
   88SAPS   C34 8499   6.480   5.259   9.912 -0.1683  0.2864  0.2157
   88SAPS   H4X 8500   6.590   5.279   9.907 -0.5532  2.6279  0.6875
   88SAPS   H4Y 8501   6.434   5.359   9.927 -2.8129 -1.0297  1.0960
   88SAPS   C35 8502   6.420   5.197   9.787  0.0558 -0.1071  0.7094
   88SAPS   H5X 8503   6.309   5.198   9.792 -0.1368  1.4254 -2.4284
   88SAPS   H5Y 8504   6.460   5.094   9.781 -0.5406 -0.3085 -0.0480
   88SAPS   C36 8505   6.454   5.270   9.657 -0.0519  0.4620  0.3353
   88SAPS   H6X 8506   6.563   5.268   9.637 -0.4171  2.9901 -2.2093
   88SAPS   H6Y 8507   6.428   5.376   9.676 -1.7142  0.2516 -0.6851
   88SAPS   C37 8508   6.370   5.218   9.540 -0.1135 -0.0706  0.5583
   88SAPS   H7X 8509   6.266   5.248   9.567 -0.3639 -0.4475  0.0418
   88SAPS   H7Y 8510   6.385   5.108   9.538  2.3078  0.1996  2.0495
   88SAPS   C38 8511   6.408   5.274   9.403  0.5746 -0.0245 -0.3343
   88SAPS   H8X 8512   6.512   5.238   9.386  0.8581  0.1897  0.9606
   88SAPS   H8Y 8513   6.410   5.385   9.400  1.5002 -0.0588 -3.0395
   88SAPS   C39 8514   6.322   5.220   9.286  0.8534  0.4193  0.3980
   88SAPS   H9X 8515   6.216   5.250   9.304  0.8805  0.7085  0.0759
   88SAPS   H9Y 8516   6.337   5.110   9.288  1.5894  0.5173  0.3404
   88SAPS  C310 8517   6.347   5.284   9.150  0.3392 -0.8604 -0.1870
   88SAPS  H10X 8518   6.457   5.288   9.140  0.2901 -1.3397 -0.9848
   88SAPS  H10Y 8519   6.307   5.388   9.151  1.0834 -0.5843  1.4929
   88SAPS  C311 8520   6.280   5.215   9.029  0.0973 -0.3479 -0.8520
   88SAPS  H11X 8521   6.170   5.218   9.041  0.2549  0.4260  0.4936
   88SAPS  H11Y 8522   6.311   5.109   9.038 -0.2131 -0.2003  2.7190
   88SAPS  C312 8523   6.329   5.274   8.895 -0.2970 -0.2957  0.0188
   88SAPS  H12X 8524   6.437   5.249   8.898 -0.4035 -0.7162  0.2910
   88SAPS  H12Y 8525   6.326   5.385   8.897 -0.7020 -0.2082 -3.4256
   88SAPS  C313 8526   6.252   5.223   8.776 -0.2141  0.6868 -0.2686
   88SAPS  H13X 8527   6.304   5.261   8.686 -0.7822 -0.8406 -1.2609
   88SAPS  H13Y 8528   6.151   5.268   8.776  0.8770  3.2278  0.2723
   88SAPS  C314 8529   6.247   5.071   8.772 -0.0033 -0.1247 -0.3204
   88SAPS  H14X 8530   6.178   5.040   8.853  0.7627 -1.1161 -0.0255
   88SAPS  H14Y 8531   6.355   5.045   8.784  0.2782  1.4063  0.5981
   88SAPS  C315 8532   6.190   5.021   8.646  0.5796 -0.1898 -0.2323
   88SAPS  H15X 8533   6.253   5.053   8.561 -0.5098  3.2217  0.1574
   88SAPS  H15Y 8534   6.089   5.067   8.632  1.3648  2.0736  1.2441
   88SAPS  C316 8535   6.175   4.873   8.650 -0.6610 -0.2041  0.1099
   88SAPS  H16X 8536   6.109   4.834   8.730 -0.8940  0.6070  0.3182
   88SAPS  H16Y 8537   6.274   4.832   8.681 -0.6587 -0.6355 -0.4568
   88SAPS  C317 8538   6.140   4.815   8.514  0.2370 -0.0579 -0.2601
   88SAPS  H17X 8539   6.166   4.890   8.437  0.0606  0.3600  0.0889
   88SAPS  H17Y 8540   6.029   4.808   8.505  0.2077 -1.0660  0.7610
   88SAPS  C318 8541   6.215   4.694   8.484 -0.5498  0.5619  0.4636
   88SAPS  H18X 8542   6.182   4.642   8.392  0.0162 -0.7153  0.9696
   88SAPS  H18Y 8543   6.216   4.626   8.572 -2.5406 -0.1617 -0.0405
   88SAPS  H18Z 8544   6.317   4.734   8.464 -0.9707  1.4907  0.1032
   89SAPS     N 8545   4.746   1.494  10.450 -1.2511  0.0211  0.1930
   89SAPS   HN1 8546   4.833   1.539  10.414 -1.0837 -0.8965 -0.6045
   89SAPS   HN2 8547   4.775   1.394  10.449  0.8953  0.5962  1.6711
   89SAPS   HN3 8548   4.665   1.505  10.386 -1.0396  0.7191  0.0377
   89SAPS   C12 8549   4.704   1.536  10.587  0.4576 -0.0665  0.5647
   89SAPS  H12A 8550   4.644   1.625  10.581 -0.3242 -0.8174 -4.5489
   89SAPS   C13 8551   4.616   1.427  10.668 -1.1088  0.2873 -0.6518
   89SAPS  O13A 8552   4.559   1.344  10.603  0.5084  0.3629  0.0149
   89SAPS  O13B 8553   4.565   1.468  10.776  0.0792  0.2620 -0.3120
   89SAPS   C11 8554   4.831   1.577  10.665  0.3110  0.4259  0.0057
   89SAPS  H11A 8555   4.807   1.600  10.771 -0.0578  0.1458 -0.0153
   89SAPS  H11B 8556   4.867   1.674  10.626  3.0097 -0.5707 -0.1137
   89SAPS     P 8557   4.957   1.359  10.744  0.3354 -0.6762  0.2564
   89SAPS   O13 8558   4.933   1.399  10.886  0.0562 -0.4482 -0.2317
   89SAPS   O14 8559   4.886   1.239  10.698 -0.0995  0.4943  0.3865
   89SAPS   O12 8560   4.932   1.475  10.645 -0.4464 -0.2205  0.4627
   89SAPS   O11 8561   5.116   1.322  10.741 -0.2066  0.6749 -0.3137
   89SAPS    C1 8562   5.177   1.323  10.612  0.3942  0.2297 -0.6598
   89SAPS    HA 8563   5.273   1.268  10.622  1.8426  2.5435 -1.3943
   89SAPS    HB 8564   5.125   1.253  10.544 -0.6333  0.9441 -0.6181
   89SAPS    C2 8565   5.210   1.462  10.555  0.6852  0.2263 -0.2565
   89SAPS    HS 8566   5.119   1.525  10.562 -1.5357 -3.0725  2.1850
   89SAPS   O21 8567   5.262   1.449  10.420  0.5059  0.2040 -0.5010
   89SAPS   C21 8568   5.176   1.442  10.323 -0.8173 -0.4723  0.2264
   89SAPS   O22 8569   5.059   1.437  10.333 -0.0326  0.2191 -0.0930
   89SAPS   C22 8570   5.252   1.434  10.188 -0.2353 -0.1302 -0.3756
   89SAPS   H2R 8571   5.325   1.516  10.169 -1.8288  1.3783 -0.1420
   89SAPS   H2S 8572   5.308   1.339  10.200  3.7897  2.0636 -0.9697
   89SAPS    C3 8573   5.310   1.540  10.643  0.2707 -0.8434 -0.3356
   89SAPS    HX 8574   5.379   1.466  10.689  2.0614  1.5888  1.0308
   89SAPS    HY 8575   5.262   1.591  10.729 -0.3506 -0.1291 -1.0995
   89SAPS   O31 8576   5.375   1.636  10.557  0.3485  0.7168 -0.1047
   89SAPS   C31 8577   5.300   1.742  10.510 -0.0198  0.3149 -0.0292
   89SAPS   O32 8578   5.195   1.783  10.563  0.2196 -0.4180  0.0024
   89SAPS   C32 8579   5.357   1.801  10.378  0.9725  0.6068 -0.4671
   89SAPS   H2X 8580   5.403   1.898  10.406  0.1092  0.8593  0.1224
   89SAPS   H2Y 8581   5.265   1.816  10.317  0.9495  1.6453 -0.2004
   89SAPS   C23 8582   5.161   1.422  10.064 -0.8656 -0.5430 -0.1080
   89SAPS   H3R 8583   5.154   1.527  10.028 -0.1395 -0.0010  1.2929
   89SAPS   H3S 8584   5.056   1.397  10.090 -1.2578  0.8495 -0.2657
   89SAPS   C24 8585   5.211   1.322   9.963 -0.1048  0.1338  0.0485
   89SAPS   H4R 8586   5.131   1.296   9.891  1.2369  0.5596 -1.6163
   89SAPS   H4S 8587   5.225   1.230  10.024  2.1849  0.9771  0.8301
   89SAPS   C25 8588   5.343   1.353   9.893  0.3505 -0.1536  0.0875
   89SAPS   H5R 8589   5.426   1.385   9.957 -0.4218  0.9967  0.5234
   89SAPS   C26 8590   5.369   1.357   9.757 -0.0291  0.7923  0.5461
   89SAPS   H6R 8591   5.470   1.386   9.726 -0.2151  2.7211  1.6747
   89SAPS   C27 8592   5.266   1.310   9.653 -0.2189  0.4404  0.1294
   89SAPS   H7R 8593   5.184   1.385   9.648  2.0685  3.0900  0.6368
   89SAPS   H7S 8594   5.224   1.215   9.691 -2.3315  1.0335 -0.6662
   89SAPS   C28 8595   5.311   1.285   9.510  0.1500  0.9107  0.0451
   89SAPS   H8R 8596   5.342   1.181   9.490 -0.8172  0.1298  2.4484
   89SAPS   C29 8597   5.306   1.368   9.401 -0.4821  0.4070  0.0992
   89SAPS   H9R 8598   5.350   1.337   9.305 -0.7111 -1.4530  0.5832
   89SAPS  C210 8599   5.245   1.507   9.394 -0.2679 -0.0911 -0.1030
   89SAPS  H10R 8600   5.178   1.511   9.482  0.0153 -1.0452  0.1701
   89SAPS  H10S 8601   5.173   1.521   9.310 -0.7962  0.6158  0.4691
   89SAPS  C211 8602   5.345   1.614   9.407 -0.0042 -0.6528  0.2294
   89SAPS  H11R 8603   5.387   1.636   9.506  2.9976  2.2225 -1.5930
   89SAPS  C212 8604   5.394   1.686   9.304  0.1512  0.7498  0.2208
   89SAPS  H12R 8605   5.472   1.757   9.333  1.7665  0.8029 -3.8775
   89SAPS  C213 8606   5.355   1.694   9.156 -0.4016 -0.1603  0.8127
   89SAPS  H13R 8607   5.349   1.801   9.125  1.3747  0.2433  1.8081
   89SAPS  H13S 8608   5.259   1.644   9.131  1.5642 -2.9769 -1.3072
   89SAPS  C214 8609   5.470   1.650   9.068 -0.7934  0.7823  0.2450
   89SAPS  H14R 8610   5.563   1.614   9.115  0.0950  2.2325 -0.3858
   89SAPS  C215 8611   5.455   1.618   8.934  0.2244 -0.0352 -0.9805
   89SAPS  H15R 8612   5.548   1.591   8.882 -0.0728  1.2252 -2.1690
   89SAPS  C216 8613   5.326   1.615   8.853  0.1552 -0.0872 -0.2564
   89SAPS  H16R 8614   5.264   1.529   8.888 -0.0366  0.6080  1.1574
   89SAPS  H16S 8615   5.358   1.588   8.750  2.0528 -1.3755  0.6364
   89SAPS  C217 8616   5.224   1.733   8.853  0.4809 -0.1740 -0.3472
   89SAPS  H17R 8617   5.271   1.825   8.813 -1.9772  1.3484  0.1347
   89SAPS  H17S 8618   5.183   1.748   8.955  1.4484  0.1151  0.0062
   89SAPS  C218 8619   5.113   1.705   8.748  0.1943  1.0876 -0.1406
   89SAPS  H18R 8620   5.060   1.610   8.768  0.5951  0.0766 -3.4900
   89SAPS  H18S 8621   5.167   1.698   8.651  2.1357  0.2403  0.9657
   89SAPS  C219 8622   5.004   1.814   8.734 -0.7155 -0.3560 -0.8452
   89SAPS  H19R 8623   5.058   1.911   8.740 -0.0491 -0.6718 -1.6402
   89SAPS  H19S 8624   4.942   1.804   8.826  0.4615  1.4086  0.1686
   89SAPS  C220 8625   4.911   1.808   8.607  0.4039  0.0495  0.0335
   89SAPS  H20R 8626   4.976   1.812   8.518 -0.5893 -1.0048 -0.7588
   89SAPS  H20S 8627   4.830   1.881   8.633  1.9339  1.1004  1.9917
   89SAPS  H20T 8628   4.866   1.707   8.616  1.0418 -0.2943 -0.6344
   89SAPS   C33 8629   5.474   1.727  10.302  0.2345  0.0605 -1.5086
   89SAPS   H3X 8630   5.453   1.618  10.298  1.6029 -0.1402 -4.0570
   89SAPS   H3Y 8631   5.558   1.731  10.374 -0.9322 -0.7428 -0.0733
   89SAPS   C34 8632   5.506   1.780  10.160  0.3332  0.2687 -0.2721
   89SAPS   H4X 8633   5.607   1.751  10.126  0.6593  2.3178 -1.1303
   89SAPS   H4Y 8634   5.498   1.890  10.175 -1.0307  0.1407  0.0510
   89SAPS   C35 8635   5.403   1.751  10.048  0.0770 -0.1156  0.6607
   89SAPS   H5X 8636   5.301   1.781  10.079 -0.4682 -1.8885  0.6421
   89SAPS   H5Y 8637   5.397   1.640  10.040 -0.7218  0.0476 -1.0841
   89SAPS   C36 8638   5.445   1.815   9.915  0.5310 -0.3011 -0.4655
   89SAPS   H6X 8639   5.506   1.746   9.854  0.2402 -0.4659 -0.5699
   89SAPS   H6Y 8640   5.504   1.908   9.928 -1.4864  0.7359  1.8011
   89SAPS   C37 8641   5.315   1.850   9.841  0.5546  0.0751  0.3381
   89SAPS   H7X 8642   5.257   1.917   9.906  1.2321  0.5593  0.4466
   89SAPS   H7Y 8643   5.257   1.758   9.816 -0.4556  1.4432 -2.5818
   89SAPS   C38 8644   5.341   1.928   9.710  0.4937 -0.5143 -0.1463
   89SAPS   H8X 8645   5.426   1.901   9.644 -0.0945  1.4067 -1.7480
   89SAPS   H8Y 8646   5.357   2.036   9.727 -1.8574  0.2002 -2.1830
   89SAPS   C39 8647   5.211   1.910   9.624  0.8388 -0.4066 -0.5619
   89SAPS   H9X 8648   5.124   1.965   9.665  0.8233 -0.4819 -0.4946
   89SAPS   H9Y 8649   5.185   1.803   9.627  0.1537 -0.2347 -0.2423
   89SAPS  C310 8650   5.220   1.959   9.482 -0.6020  0.4398  0.1964
   89SAPS  H10X 8651   5.312   1.927   9.430 -1.1394  0.4154 -0.7376
   89SAPS  H10Y 8652   5.234   2.069   9.488  1.1589  0.3771 -2.1099
   89SAPS  C311 8653   5.094   1.950   9.399 -0.2785  0.2477 -0.7164
   89SAPS  H11X 8654   5.010   1.964   9.470  0.5338 -0.0165  0.3018
   89SAPS  H11Y 8655   5.089   1.851   9.349  0.6831 -1.1355  1.8629
   89SAPS  C312 8656   5.085   2.046   9.284  0.0567  0.6209  0.0308
   89SAPS  H12X 8657   5.173   2.037   9.217  0.1464 -1.5909  0.4057
   89SAPS  H12Y 8658   5.075   2.152   9.316 -0.3284 -0.0516  2.2681
   89SAPS  C313 8659   4.961   2.010   9.190 -0.4687  0.0466 -1.0427
   89SAPS  H13X 8660   4.884   1.979   9.263 -1.1843 -0.4299 -1.9931
   89SAPS  H13Y 8661   4.970   1.919   9.127 -0.1628  0.5864 -1.7971
   89SAPS  C314 8662   4.904   2.133   9.102 -0.4253  0.3394 -0.4351
   89SAPS  H14X 8663   4.864   2.219   9.159 -1.0321 -0.9763  1.1771
   89SAPS  H14Y 8664   4.816   2.092   9.047 -1.0503 -0.5146  1.1473
   89SAPS  C315 8665   4.988   2.180   8.978 -0.3604 -0.1820  0.3196
   89SAPS  H15X 8666   5.023   2.087   8.928  0.3369 -0.5312  1.4521
   89SAPS  H15Y 8667   5.079   2.232   9.016  0.9890 -3.1074  1.2736
   89SAPS  C316 8668   4.911   2.274   8.874  0.0137 -0.6797 -0.7949
   89SAPS  H16X 8669   4.990   2.342   8.834 -0.8789  1.0139  0.2363
   89SAPS  H16Y 8670   4.842   2.329   8.942 -0.4525 -1.5384 -0.5712
   89SAPS  C317 8671   4.854   2.198   8.754  0.2374  0.5636  0.2879
   89SAPS  H17X 8672   4.929   2.138   8.698 -0.2160  1.0564 -0.8727
   89SAPS  H17Y 8673   4.812   2.275   8.686 -1.9244 -1.3399 -0.5991
   89SAPS  C318 8674   4.731   2.106   8.783 -0.8148 -0.2550 -0.0957
   89SAPS  H18X 8675   4.671   2.148   8.866  1.2364 -0.0070  1.3184
   89SAPS  H18Y 8676   4.760   2.008   8.826  2.4977  0.5490 -0.3597
   89SAPS  H18Z 8677   4.664   2.099   8.694  1.6265 -1.0884 -1.9491
   90SAPS     N 8678   1.148   1.645  10.654 -0.5399 -0.1874  0.2565
   90SAPS   HN1 8679   1.064   1.696  10.687 -0.8167 -1.1249  1.0071
   90SAPS   HN2 8680   1.220   1.700  10.705 -0.9711  0.1168  0.5278
   90SAPS   HN3 8681   1.174   1.648  10.553  1.3823  2.4307  0.7703
   90SAPS   C12 8682   1.138   1.500  10.703 -0.3725  0.1426 -0.5722
   90SAPS  H12A 8683   1.208   1.441  10.645  0.5850  0.9264 -0.2180
   90SAPS   C13 8684   1.172   1.481  10.853  0.3634  0.0914  0.5854
   90SAPS  O13A 8685   1.210   1.582  10.913  0.5129 -0.0027  0.1635
   90SAPS  O13B 8686   1.174   1.365  10.902 -0.0500  0.1913  0.3660
   90SAPS   C11 8687   0.989   1.466  10.676  0.4540 -0.3266 -0.1043
   90SAPS  H11A 8688   0.965   1.361  10.702 -0.7362 -0.4207 -1.5198
   90SAPS  H11B 8689   0.988   1.484  10.567  1.4127  0.4550  0.0102
   90SAPS     P 8690   0.747   1.531  10.750 -0.2122 -0.1629 -0.0198
   90SAPS   O13 8691   0.679   1.628  10.841 -0.2592  0.1633 -0.4001
   90SAPS   O14 8692   0.696   1.528  10.611 -0.0121 -0.7072 -0.4306
   90SAPS   O12 8693   0.906   1.558  10.745  0.3217 -0.0656  0.1586
   90SAPS   O11 8694   0.741   1.385  10.804 -0.3693 -0.4298 -0.2090
   90SAPS    C1 8695   0.652   1.289  10.775 -0.3051 -0.5395  0.5595
   90SAPS    HA 8696   0.591   1.271  10.866 -1.0231  0.6220  0.3124
   90SAPS    HB 8697   0.581   1.329  10.700  2.2308 -0.4832 -1.8979
   90SAPS    C2 8698   0.716   1.164  10.711  0.0198 -1.0657  0.4033
   90SAPS    HS 8699   0.816   1.130  10.748  0.3867 -2.1606 -1.5058
   90SAPS   O21 8700   0.728   1.195  10.567  0.2806 -0.7702  1.2411
   90SAPS   C21 8701   0.809   1.112  10.497  0.3037 -0.5770 -0.3623
   90SAPS   O22 8702   0.890   1.034  10.544  0.2056  0.3389 -0.5636
   90SAPS   C22 8703   0.790   1.137  10.348  0.3062  0.0994 -0.4176
   90SAPS   H2R 8704   0.690   1.179  10.326 -1.2421 -2.8617  0.6673
   90SAPS   H2S 8705   0.861   1.218  10.321 -0.7652  1.2505  0.1583
   90SAPS    C3 8706   0.618   1.045  10.729 -0.0573 -0.2970 -0.2824
   90SAPS    HX 8707   0.620   1.022  10.837  0.2484  1.2933  0.0463
   90SAPS    HY 8708   0.668   0.964  10.671  0.1691  0.5595 -1.2924
   90SAPS   O31 8709   0.482   1.081  10.693  0.8011 -0.0065 -0.5867
   90SAPS   C31 8710   0.456   1.060  10.562  0.1451  0.7841  0.5446
   90SAPS   O32 8711   0.515   0.984  10.488  0.0475  0.6103  0.7783
   90SAPS   C32 8712   0.352   1.158  10.513 -0.3583  0.1304 -0.2872
   90SAPS   H2X 8713   0.356   1.253  10.570 -1.4901  0.1761 -0.2767
   90SAPS   H2Y 8714   0.250   1.117  10.532 -0.2055  0.5286  1.4415
   90SAPS   C23 8715   0.812   1.006  10.270 -0.9759  0.2619 -0.5273
   90SAPS   H3R 8716   0.752   0.929  10.322  1.0339 -0.3438  0.9397
   90SAPS   H3S 8717   0.919   0.976  10.281 -1.2948 -0.7531 -0.1839
   90SAPS   C24 8718   0.777   1.018  10.122  0.6884  0.3038 -0.8221
   90SAPS   H4R 8719   0.807   0.924  10.071 -0.7421 -0.4754 -0.2524
   90SAPS   H4S 8720   0.830   1.101  10.070  0.1768  2.0880  1.4184
   90SAPS   C25 8721   0.627   1.041  10.115  0.6514  0.7009  0.1934
   90SAPS   H5R 8722   0.570   1.050  10.208  0.0231 -2.1007  0.1190
   90SAPS   C26 8723   0.561   1.051   9.996  0.2819 -0.1993  0.8455
   90SAPS   H6R 8724   0.452   1.064   9.993  0.5306  1.9440  0.5631
   90SAPS   C27 8725   0.619   1.037   9.858 -0.3009  0.7460 -0.5789
   90SAPS   H7R 8726   0.730   1.032   9.855 -0.1599  2.9622 -0.3713
   90SAPS   H7S 8727   0.600   1.130   9.800 -0.4897  1.3150  0.3779
   90SAPS   C28 8728   0.562   0.918   9.780 -0.1478  0.2468 -0.7291
   90SAPS   H8R 8729   0.492   0.853   9.835  0.7805 -0.3667 -0.2716
   90SAPS   C29 8730   0.576   0.884   9.647  0.0235  1.1729 -0.4184
   90SAPS   H9R 8731   0.537   0.788   9.611  0.8727  0.7699 -0.2869
   90SAPS  C210 8732   0.660   0.952   9.547  0.5354 -0.0490 -0.4711
   90SAPS  H10R 8733   0.739   1.012   9.597  0.5545 -0.6657  0.2432
   90SAPS  H10S 8734   0.599   1.017   9.480 -0.6408 -1.1929 -0.5322
   90SAPS  C211 8735   0.750   0.868   9.464  0.7090 -0.3620  0.0157
   90SAPS  H11R 8736   0.791   0.781   9.518  0.1404 -1.8743 -1.9067
   90SAPS  C212 8737   0.785   0.887   9.335 -0.2486 -0.8764  0.0361
   90SAPS  H12R 8738   0.854   0.809   9.299  0.7092 -1.1437  2.3556
   90SAPS  C213 8739   0.760   1.000   9.242  0.0586 -0.1445 -1.1126
   90SAPS  H13R 8740   0.742   1.094   9.299 -1.9804 -1.0203 -0.2868
   90SAPS  H13S 8741   0.662   0.988   9.192 -0.9188  2.0753  0.1728
   90SAPS  C214 8742   0.862   1.026   9.130  0.0530 -0.0657  0.1822
   90SAPS  H14R 8743   0.914   1.120   9.154  0.6451 -0.2652 -0.2971
   90SAPS  C215 8744   0.904   0.966   9.018 -0.2538 -0.7655 -0.0854
   90SAPS  H15R 8745   0.987   1.016   8.966 -2.9959  0.1402 -3.7909
   90SAPS  C216 8746   0.848   0.843   8.951 -0.0102 -0.7516 -0.1828
   90SAPS  H16R 8747   0.768   0.807   9.019  0.0378 -1.4177 -0.4701
   90SAPS  H16S 8748   0.932   0.771   8.942  0.6454 -0.0115 -0.0365
   90SAPS  C217 8749   0.794   0.878   8.812 -0.1437  0.5370  0.0573
   90SAPS  H17R 8750   0.759   0.784   8.764  0.6221 -0.2108  0.9564
   90SAPS  H17S 8751   0.872   0.906   8.738 -1.1679 -0.4612 -1.4206
   90SAPS  C218 8752   0.680   0.978   8.811 -0.3418  0.0982  0.3799
   90SAPS  H18R 8753   0.715   1.083   8.807 -0.8355  0.2383 -0.2147
   90SAPS  H18S 8754   0.608   0.967   8.894  1.0461  0.0681  1.6127
   90SAPS  C219 8755   0.608   0.969   8.673  0.2700  0.3699  0.6134
   90SAPS  H19R 8756   0.583   0.865   8.643 -0.6947  0.8916 -0.4241
   90SAPS  H19S 8757   0.681   1.008   8.599 -1.3421  0.3993 -0.9989
   90SAPS  C220 8758   0.481   1.054   8.673  0.4362  0.7422 -0.4273
   90SAPS  H20R 8759   0.430   1.049   8.575  0.7412  2.7603 -0.7079
   90SAPS  H20S 8760   0.503   1.158   8.703  0.0187  1.2895 -1.9449
   90SAPS  H20T 8761   0.410   1.012   8.747 -2.7221  2.1029 -2.5848
   90SAPS   C33 8762   0.368   1.184  10.365 -0.1218 -0.7205 -0.1690
   90SAPS   H3X 8763   0.356   1.092  10.303  0.6059 -0.4528 -0.7107
   90SAPS   H3Y 8764   0.464   1.228  10.329  1.0160 -0.5039  2.9428
   90SAPS   C34 8765   0.266   1.291  10.311  0.0475 -0.0149 -0.3356
   90SAPS   H4X 8766   0.277   1.381  10.375  1.6464 -0.5245  0.1461
   90SAPS   H4Y 8767   0.162   1.257  10.334  0.5502  0.9368  3.8877
   90SAPS   C35 8768   0.293   1.328  10.160  0.0427 -0.3003 -0.1762
   90SAPS   H5X 8769   0.297   1.237  10.096  0.7982 -0.7857  0.5398
   90SAPS   H5Y 8770   0.387   1.386  10.149 -1.4311  2.0416 -0.6665
   90SAPS   C36 8771   0.194   1.430  10.096 -0.1255 -0.0083 -0.1004
   90SAPS   H6X 8772   0.208   1.531  10.141  0.0534 -0.1669  0.2026
   90SAPS   H6Y 8773   0.089   1.408  10.125  0.6003 -1.0873  1.8058
   90SAPS   C37 8774   0.214   1.442   9.944  0.2967 -0.1654  0.6393
   90SAPS   H7X 8775   0.126   1.494   9.899 -1.2755 -3.0206  0.3005
   90SAPS   H7Y 8776   0.221   1.336   9.910  0.7083 -0.6396  2.1822
   90SAPS   C38 8777   0.342   1.510   9.912  0.0684 -0.2014  0.0812
   90SAPS   H8X 8778   0.400   1.523  10.006  1.7566 -0.3798 -0.9088
   90SAPS   H8Y 8779   0.335   1.616   9.877  0.3064 -0.4233 -0.6538
   90SAPS   C39 8780   0.427   1.433   9.801  0.4166 -0.2717 -0.4629
   90SAPS   H9X 8781   0.433   1.328   9.838  0.5127  0.0921  0.5642
   90SAPS   H9Y 8782   0.521   1.492   9.796 -1.6911  3.1821 -0.9387
   90SAPS  C310 8783   0.361   1.438   9.660  0.5486 -0.5657  0.6765
   90SAPS  H10X 8784   0.325   1.542   9.643 -0.7098 -1.3078 -1.3052
   90SAPS  H10Y 8785   0.270   1.375   9.658 -0.3257  0.7053 -0.0793
   90SAPS  C311 8786   0.449   1.385   9.543 -0.4732  0.5999  0.3180
   90SAPS  H11X 8787   0.506   1.292   9.563  1.4388  2.0734  1.8751
   90SAPS  H11Y 8788   0.529   1.462   9.531 -0.9189  1.1618  0.9304
   90SAPS  C312 8789   0.388   1.366   9.405 -0.0311  0.1662  0.4986
   90SAPS  H12X 8790   0.296   1.306   9.419 -0.0615  0.0057 -0.3657
   90SAPS  H12Y 8791   0.449   1.301   9.339  0.7298  0.1075  1.2374
   90SAPS  C313 8792   0.358   1.500   9.338  0.3089  0.3089  0.1592
   90SAPS  H13X 8793   0.445   1.569   9.342  1.7253 -1.3829 -0.6552
   90SAPS  H13Y 8794   0.266   1.549   9.377 -0.9060 -0.0419 -2.1508
   90SAPS  C314 8795   0.328   1.487   9.185 -0.1807  0.2391  0.2618
   90SAPS  H14X 8796   0.318   1.595   9.160 -0.0232 -0.1652 -1.6425
   90SAPS  H14Y 8797   0.231   1.444   9.152  1.2995 -1.6481 -1.8206
   90SAPS  C315 8798   0.450   1.448   9.097 -0.3221  0.8834  0.1142
   90SAPS  H15X 8799   0.458   1.337   9.096 -0.4439  0.8862 -1.2770
   90SAPS  H15Y 8800   0.538   1.494   9.146 -0.1945  0.7271  0.0305
   90SAPS  C316 8801   0.447   1.503   8.953 -0.1553  0.1915  0.2180
   90SAPS  H16X 8802   0.530   1.455   8.897 -0.1560  0.7412 -0.2574
   90SAPS  H16Y 8803   0.462   1.614   8.957 -2.7325  0.5143  2.2005
   90SAPS  C317 8804   0.324   1.477   8.876 -0.0560  0.8077  0.0918
   90SAPS  H17X 8805   0.235   1.525   8.923 -1.4224 -2.4128  0.9339
   90SAPS  H17Y 8806   0.317   1.366   8.871 -3.1900  0.9614 -0.3445
   90SAPS  C318 8807   0.329   1.524   8.729 -0.1678 -0.1347  0.3335
   90SAPS  H18X 8808   0.311   1.634   8.725 -0.1107 -0.1289  0.2337
   90SAPS  H18Y 8809   0.239   1.491   8.673 -0.8216  1.0269  0.6732
   90SAPS  H18Z 8810   0.421   1.501   8.672  0.2271  3.5401 -0.6682
   91SAPS     N 8811   5.981   6.097   5.826  0.1038  0.3229 -0.0885
   91SAPS   HN1 8812   5.983   6.196   5.858 -0.3596  0.2593  0.1440
   91SAPS   HN2 8813   6.011   6.033   5.902  2.3358  1.1261 -0.2421
   91SAPS   HN3 8814   6.057   6.090   5.755  1.5423  1.8136  1.2712
   91SAPS   C12 8815   5.837   6.077   5.785 -0.4656  0.5437  0.1667
   91SAPS  H12A 8816   5.784   6.164   5.821  0.8936  1.1222  0.7938
   91SAPS   C13 8817   5.804   6.044   5.640 -0.1453  0.0002  0.6208
   91SAPS  O13A 8818   5.889   6.033   5.545 -0.0345 -0.5875 -0.2360
   91SAPS  O13B 8819   5.685   6.055   5.612  0.1562  0.1865 -0.5999
   91SAPS   C11 8820   5.790   5.954   5.871  0.3561  0.3734  0.4500
   91SAPS  H11A 8821   5.861   5.873   5.848 -1.3279 -1.1438  0.5153
   91SAPS  H11B 8822   5.697   5.911   5.828  1.7160 -2.0085 -0.1596
   91SAPS     P 8823   5.680   6.047   6.099  0.2277 -0.2389  0.3261
   91SAPS   O13 8824   5.658   6.179   6.040  0.0441 -0.0980 -0.0057
   91SAPS   O14 8825   5.564   5.960   6.100 -0.4656  0.0442  0.2177
   91SAPS   O12 8826   5.794   5.969   6.014 -0.1321 -0.1517 -0.1875
   91SAPS   O11 8827   5.729   6.056   6.246 -0.3241 -0.4585 -0.4038
   91SAPS    C1 8828   5.858   6.112   6.282  0.0316 -0.1814 -0.2423
   91SAPS    HA 8829   5.929   6.029   6.299  0.5130  0.3134  0.1544
   91SAPS    HB 8830   5.899   6.176   6.201  0.3911 -0.5117 -0.3170
   91SAPS    C2 8831   5.831   6.210   6.404  0.6692  0.3415  0.2678
   91SAPS    HS 8832   5.926   6.267   6.414 -0.0440  1.5290  0.2877
   91SAPS   O21 8833   5.793   6.141   6.521 -0.0157  0.5098  0.0166
   91SAPS   C21 8834   5.872   6.158   6.632 -0.8336  0.2789  1.5378
   91SAPS   O22 8835   5.974   6.226   6.637  0.0693  0.0287  0.1083
   91SAPS   C22 8836   5.829   6.066   6.744  0.2382  0.6795  0.8722
   91SAPS   H2R 8837   5.720   6.050   6.734  0.2419  1.8726 -1.2435
   91SAPS   H2S 8838   5.872   5.965   6.725  0.3413  0.5341  1.8546
   91SAPS    C3 8839   5.723   6.313   6.370 -0.5386  0.0361  0.5711
   91SAPS    HX 8840   5.656   6.262   6.297  0.3859  2.9948 -2.4923
   91SAPS    HY 8841   5.774   6.396   6.316  2.1387 -1.3929  0.8239
   91SAPS   O31 8842   5.647   6.352   6.483 -0.6403  0.1037  0.3474
   91SAPS   C31 8843   5.620   6.483   6.491  0.1313 -0.3306 -0.2770
   91SAPS   O32 8844   5.641   6.555   6.400  0.5509 -0.0428  0.1464
   91SAPS   C32 8845   5.548   6.499   6.621  0.6515  0.2086 -0.0232
   91SAPS   H2X 8846   5.630   6.494   6.696 -1.6205 -2.5280  2.3810
   91SAPS   H2Y 8847   5.477   6.417   6.645 -0.0096  0.5889 -0.6683
   91SAPS   C23 8848   5.862   6.114   6.884 -0.1911 -0.6865 -0.4670
   91SAPS   H3R 8849   5.827   6.219   6.885  0.0493 -0.5480 -2.7339
   91SAPS   H3S 8850   5.971   6.105   6.901  0.0002  0.4737 -1.0662
   91SAPS   C24 8851   5.799   6.020   6.994 -0.0706 -0.3206 -0.3299
   91SAPS   H4R 8852   5.690   6.040   6.984 -0.1697 -1.0858 -0.8207
   91SAPS   H4S 8853   5.824   6.050   7.098 -0.7631 -2.9493  0.6226
   91SAPS   C25 8854   5.815   5.877   6.980 -0.0343  0.2894  0.0112
   91SAPS   H5R 8855   5.833   5.836   6.880 -1.5485 -2.3781  0.7570
   91SAPS   C26 8856   5.795   5.788   7.083 -0.6753 -0.6436 -0.5820
   91SAPS   H6R 8857   5.817   5.683   7.061 -0.3760 -0.7436  0.1928
   91SAPS   C27 8858   5.756   5.807   7.227  0.2938 -0.4648  0.1705
   91SAPS   H7R 8859   5.704   5.714   7.258 -1.1429 -0.5193 -2.2841
   91SAPS   H7S 8860   5.689   5.895   7.230  0.4045 -0.3826  0.2401
   91SAPS   C28 8861   5.867   5.834   7.326 -0.1591  0.9284  0.0839
   91SAPS   H8R 8862   5.956   5.888   7.288  0.4205  0.7201  1.1293
   91SAPS   C29 8863   5.877   5.786   7.450 -0.3742  0.4025 -1.0284
   91SAPS   H9R 8864   5.969   5.808   7.506 -1.1566  1.0200  0.0439
   91SAPS  C210 8865   5.777   5.693   7.520 -0.5934  0.3869  0.3552
   91SAPS  H10R 8866   5.831   5.622   7.587 -0.4627  0.5896  0.4628
   91SAPS  H10S 8867   5.728   5.624   7.448 -0.2544 -3.1677  3.3907
   91SAPS  C211 8868   5.669   5.764   7.585 -0.0465 -0.7219 -0.0868
   91SAPS  H11R 8869   5.579   5.778   7.524  0.7490  3.4448 -0.5168
   91SAPS  C212 8870   5.683   5.810   7.712  0.5962 -0.2710 -0.4736
   91SAPS  H12R 8871   5.601   5.870   7.752  0.4244 -0.6091 -0.3238
   91SAPS  C213 8872   5.796   5.799   7.804 -0.5888  0.0272 -0.4014
   91SAPS  H13R 8873   5.887   5.834   7.752  0.1422  1.4935  1.8320
   91SAPS  H13S 8874   5.801   5.690   7.823  2.1971  0.3637  0.9951
   91SAPS  C214 8875   5.775   5.874   7.928  0.2980 -0.4882  0.2160
   91SAPS  H14R 8876   5.777   5.983   7.910 -0.7648 -0.4301  0.4328
   91SAPS  C215 8877   5.780   5.836   8.058 -1.2646  0.5492 -0.8151
   91SAPS  H15R 8878   5.752   5.913   8.132  1.8342  2.5442 -1.6308
   91SAPS  C216 8879   5.798   5.697   8.111 -0.2660  0.4394 -0.1717
   91SAPS  H16R 8880   5.898   5.690   8.159  0.8664  1.1302 -2.3836
   91SAPS  H16S 8881   5.806   5.628   8.025  1.3227 -1.9321  1.7874
   91SAPS  C217 8882   5.688   5.649   8.205 -1.0785 -0.3479 -0.8425
   91SAPS  H17R 8883   5.652   5.725   8.277  1.4071  0.8627 -0.8193
   91SAPS  H17S 8884   5.730   5.565   8.265  0.5775  2.3522  1.9226
   91SAPS  C218 8885   5.564   5.596   8.131 -0.0282 -0.0812 -0.0864
   91SAPS  H18R 8886   5.601   5.510   8.071  2.8244 -0.7480  2.5508
   91SAPS  H18S 8887   5.518   5.661   8.053 -1.2858 -0.2125  0.5337
   91SAPS  C219 8888   5.449   5.554   8.218 -0.5422 -0.6052  0.1797
   91SAPS  H19R 8889   5.425   5.634   8.292  1.8898 -0.7277  1.1406
   91SAPS  H19S 8890   5.482   5.462   8.271 -1.0152 -1.4332 -0.9343
   91SAPS  C220 8891   5.316   5.525   8.138  0.4830 -0.2088 -1.1062
   91SAPS  H20R 8892   5.271   5.623   8.110  0.3014 -0.3301 -1.2426
   91SAPS  H20S 8893   5.240   5.478   8.204  0.3355  1.2975 -0.1718
   91SAPS  H20T 8894   5.345   5.473   8.044 -0.0583 -0.3923 -1.1718
   91SAPS   C33 8895   5.472   6.627   6.650  0.2552 -0.2825  0.6936
   91SAPS   H3X 8896   5.414   6.664   6.562 -0.0776 -0.2705  0.9185
   91SAPS   H3Y 8897   5.537   6.713   6.677  0.5533 -0.3198  0.1129
   91SAPS   C34 8898   5.380   6.620   6.768 -0.2713  0.6704 -1.2144
   91SAPS   H4X 8899   5.434   6.581   6.857 -0.4392  0.3881 -1.2362
   91SAPS   H4Y 8900   5.296   6.551   6.746  0.4816 -0.4877 -0.4972
   91SAPS   C35 8901   5.312   6.755   6.803 -0.3478  0.0916 -0.2993
   91SAPS   H5X 8902   5.296   6.815   6.710  1.3717  0.8002 -0.1617
   91SAPS   H5Y 8903   5.377   6.818   6.867 -1.3790 -0.0586  0.9121
   91SAPS   C36 8904   5.179   6.743   6.875  0.1179 -0.3368 -0.1950
   91SAPS   H6X 8905   5.121   6.671   6.814  0.5803 -0.5039 -0.4443
   91SAPS   H6Y 8906   5.135   6.843   6.861  1.4212  0.0586 -1.5504
   91SAPS   C37 8907   5.190   6.715   7.026  0.0571  0.3817 -0.0459
   91SAPS   H7X 8908   5.253   6.797   7.067 -0.5422  1.0957 -0.5211
   91SAPS   H7Y 8909   5.245   6.619   7.034  0.1732  0.5654  1.4387
   91SAPS   C38 8910   5.059   6.700   7.100 -0.2408 -0.4250 -0.3756
   91SAPS   H8X 8911   5.010   6.612   7.053  0.8682 -0.5893 -1.2369
   91SAPS   H8Y 8912   5.011   6.800   7.095  1.3037  0.4665  1.6388
   91SAPS   C39 8913   5.088   6.683   7.248 -0.1225  0.6683  0.7233
   91SAPS   H9X 8914   5.001   6.712   7.311 -2.8481 -3.7395 -0.7946
   91SAPS   H9Y 8915   5.167   6.754   7.281 -1.5780  3.0497 -0.7404
   91SAPS  C310 8916   5.135   6.548   7.298 -0.7540 -0.4938 -0.2992
   91SAPS  H10X 8917   5.227   6.507   7.251 -0.0283 -0.5178  1.1372
   91SAPS  H10Y 8918   5.055   6.475   7.274 -1.7048 -0.1677  1.7623
   91SAPS  C311 8919   5.157   6.539   7.445  0.3082  0.0564 -0.1176
   91SAPS  H11X 8920   5.068   6.544   7.511  1.3253 -0.9456  1.3587
   91SAPS  H11Y 8921   5.218   6.627   7.474  1.7648 -1.3409  1.1327
   91SAPS  C312 8922   5.235   6.417   7.496  0.3142 -0.7442 -0.2306
   91SAPS  H12X 8923   5.333   6.426   7.443  1.4245 -0.3351  1.8705
   91SAPS  H12Y 8924   5.168   6.333   7.466 -0.3453  0.0457 -1.0004
   91SAPS  C313 8925   5.236   6.411   7.651 -0.1918 -0.1765  0.2718
   91SAPS  H13X 8926   5.284   6.317   7.686  0.9574  1.3023  2.8109
   91SAPS  H13Y 8927   5.131   6.424   7.686 -0.5251  1.5775 -1.3284
   91SAPS  C314 8928   5.322   6.527   7.707  0.1790 -0.4797 -0.1663
   91SAPS  H14X 8929   5.271   6.626   7.711  1.6075  0.2305  0.7445
   91SAPS  H14Y 8930   5.415   6.536   7.647  0.8252  1.0782  1.0217
   91SAPS  C315 8931   5.357   6.507   7.859 -0.7605  0.0506  0.9431
   91SAPS  H15X 8932   5.429   6.585   7.893 -1.4177  0.6569  0.9740
   91SAPS  H15Y 8933   5.406   6.408   7.868  0.0468  0.4749  1.3020
   91SAPS  C316 8934   5.236   6.487   7.952  0.4343 -0.1102  0.0195
   91SAPS  H16X 8935   5.170   6.409   7.908 -1.1914  0.5194  1.3010
   91SAPS  H16Y 8936   5.184   6.584   7.960 -0.7873 -0.7225 -0.3969
   91SAPS  C317 8937   5.273   6.427   8.088 -0.8133  0.1235  0.0704
   91SAPS  H17X 8938   5.296   6.319   8.076 -1.0507  0.1442 -0.5588
   91SAPS  H17Y 8939   5.182   6.442   8.150 -1.6659  2.4985 -1.7026
   91SAPS  C318 8940   5.390   6.493   8.159  0.1743 -0.6158  0.2716
   91SAPS  H18X 8941   5.487   6.456   8.121  1.6886  0.2033  3.2063
   91SAPS  H18Y 8942   5.390   6.475   8.268  0.9924 -0.8857  0.2296
   91SAPS  H18Z 8943   5.402   6.603   8.147  0.6098 -0.7647 -0.7046
   92SAPS     N 8944   5.245   4.610   6.436  0.2116  0.1150 -0.4296
   92SAPS   HN1 8945   5.249   4.656   6.529 -0.9183  0.1902 -0.4141
   92SAPS   HN2 8946   5.344   4.585   6.416  0.3061 -0.3521  0.5702
   92SAPS   HN3 8947   5.214   4.678   6.364 -0.0993  0.0504 -0.3576
   92SAPS   C12 8948   5.152   4.490   6.430  0.3934  0.6716  0.8812
   92SAPS  H12A 8949   5.058   4.502   6.482 -0.0916 -0.5732  0.2972
   92SAPS   C13 8950   5.119   4.431   6.288 -0.0485  0.3272 -0.7843
   92SAPS  O13A 8951   5.162   4.479   6.186 -0.2278  0.1229  0.2726
   92SAPS  O13B 8952   5.041   4.332   6.283  0.0921 -0.0487 -0.0054
   92SAPS   C11 8953   5.226   4.375   6.504 -0.0068  0.9196  0.1939
   92SAPS  H11A 8954   5.162   4.283   6.502 -0.6672  1.3918 -0.9850
   92SAPS  H11B 8955   5.231   4.404   6.611  3.7031  2.4492 -0.3277
   92SAPS     P 8956   5.408   4.216   6.394  0.2030  0.2449 -0.3028
   92SAPS   O13 8957   5.372   4.195   6.248 -0.5085 -0.0443 -0.1823
   92SAPS   O14 8958   5.549   4.204   6.434 -0.6622  0.2804  0.2099
   92SAPS   O12 8959   5.355   4.354   6.448 -0.0552 -0.5069  0.4703
   92SAPS   O11 8960   5.324   4.117   6.488  0.1389 -0.0667  0.1866
   92SAPS    C1 8961   5.359   4.081   6.621  0.2411 -1.2136  0.1619
   92SAPS    HA 8962   5.469   4.083   6.630  0.2587 -0.4158 -0.1870
   92SAPS    HB 8963   5.315   4.150   6.697  0.3526 -0.5513 -0.3686
   92SAPS    C2 8964   5.317   3.937   6.660  0.7360 -0.4631  0.5866
   92SAPS    HS 8965   5.379   3.865   6.602  2.2813  1.7710 -0.6419
   92SAPS   O21 8966   5.177   3.923   6.640 -0.3610  0.2864  0.2112
   92SAPS   C21 8967   5.129   3.794   6.643 -0.1378  0.0481 -1.0019
   92SAPS   O22 8968   5.198   3.694   6.655  0.1728  0.1058  0.4738
   92SAPS   C22 8969   4.974   3.796   6.634 -0.1624 -0.4673  0.3628
   92SAPS   H2R 8970   4.928   3.874   6.570  0.0655 -1.0921 -0.5753
   92SAPS   H2S 8971   4.953   3.698   6.587 -0.6760 -0.9055  1.4975
   92SAPS    C3 8972   5.345   3.901   6.806 -0.2324 -0.1516 -0.1495
   92SAPS    HX 8973   5.300   3.806   6.841 -0.5413  0.2332  0.4979
   92SAPS    HY 8974   5.291   3.978   6.865 -0.7352  0.2198 -1.0896
   92SAPS   O31 8975   5.484   3.917   6.841 -0.2425  0.1424  0.2077
   92SAPS   C31 8976   5.559   3.814   6.801  0.1466 -1.0216 -1.0855
   92SAPS   O32 8977   5.527   3.707   6.758 -0.1021  0.9162  0.8441
   92SAPS   C32 8978   5.705   3.850   6.831  0.5707  0.1107  0.2252
   92SAPS   H2X 8979   5.736   3.934   6.766  1.2289 -2.1796 -2.5293
   92SAPS   H2Y 8980   5.776   3.767   6.812  0.1409 -0.0333 -0.7948
   92SAPS   C23 8981   4.903   3.797   6.770 -0.2656 -0.1280 -0.3914
   92SAPS   H3R 8982   4.897   3.696   6.816 -0.0930 -0.8163 -1.8817
   92SAPS   H3S 8983   4.800   3.834   6.755 -0.6302 -0.8777  0.2180
   92SAPS   C24 8984   4.953   3.905   6.867  0.4007  0.3525 -0.5442
   92SAPS   H4R 8985   4.918   4.006   6.836 -0.6700  0.4507  0.9373
   92SAPS   H4S 8986   5.064   3.916   6.864  0.7482 -1.4706  2.8430
   92SAPS   C25 8987   4.902   3.895   7.012  0.1819 -0.1486  0.4501
   92SAPS   H5R 8988   4.802   3.852   7.029 -0.4853  0.5519 -1.6380
   92SAPS   C26 8989   4.962   3.935   7.126 -0.0348 -0.2409  0.0627
   92SAPS   H6R 8990   4.912   3.920   7.222  0.4642 -1.1108  0.1848
   92SAPS   C27 8991   5.091   4.001   7.128 -0.2865  0.1838  0.1204
   92SAPS   H7R 8992   5.083   4.093   7.190  0.7684  0.2351  0.1985
   92SAPS   H7S 8993   5.127   4.030   7.027 -0.7837  0.0214 -0.1043
   92SAPS   C28 8994   5.187   3.891   7.173 -0.1923 -0.0261  0.1775
   92SAPS   H8R 8995   5.213   3.825   7.090  2.2846 -0.9169  1.6272
   92SAPS   C29 8996   5.247   3.871   7.293  0.2843  0.1380 -0.1124
   92SAPS   H9R 8997   5.314   3.785   7.306  1.6056  0.9151 -1.5306
   92SAPS  C210 8998   5.225   3.960   7.408  0.2573 -0.4353 -0.9436
   92SAPS  H10R 8999   5.124   4.004   7.393 -0.5361 -1.8700  0.0640
   92SAPS  H10S 9000   5.284   4.050   7.381 -2.3453  0.6486 -3.3596
   92SAPS  C211 9001   5.260   3.919   7.549 -0.0114  0.0157  0.1204
   92SAPS  H11R 9002   5.366   3.896   7.567 -0.2503 -1.0893  0.1506
   92SAPS  C212 9003   5.175   3.891   7.648 -0.4974 -0.1903  0.2242
   92SAPS  H12R 9004   5.215   3.854   7.744  2.0228  0.9396 -0.3332
   92SAPS  C213 9005   5.027   3.887   7.649  0.5127  0.9653  0.4490
   92SAPS  H13R 9006   4.996   3.833   7.742  0.1241 -2.3370 -1.5308
   92SAPS  H13S 9007   4.992   3.833   7.559  3.1912 -2.4402  1.3548
   92SAPS  C214 9008   4.964   4.024   7.651 -0.4127 -0.2744  0.4495
   92SAPS  H14R 9009   4.909   4.043   7.558  1.1039 -2.3478 -0.9123
   92SAPS  C215 9010   4.974   4.105   7.756 -0.0773 -0.4987 -0.5203
   92SAPS  H15R 9011   4.949   4.212   7.760 -0.6747 -0.6286 -0.7551
   92SAPS  C216 9012   5.035   4.082   7.887  0.1975  0.0679 -0.1135
   92SAPS  H16R 9013   5.137   4.126   7.890  0.3553 -0.2831 -0.2466
   92SAPS  H16S 9014   5.042   3.974   7.911 -3.0637 -0.1803 -0.0760
   92SAPS  C217 9015   4.957   4.155   8.005 -0.9185 -0.2217 -0.4025
   92SAPS  H17R 9016   4.849   4.132   7.998 -1.1623  0.9717 -0.7945
   92SAPS  H17S 9017   4.960   4.264   7.982 -2.1808 -0.1812 -0.3969
   92SAPS  C218 9018   5.028   4.128   8.138  0.2111 -1.0476 -0.2981
   92SAPS  H18R 9019   5.131   4.170   8.132  0.4749 -1.6864 -0.2007
   92SAPS  H18S 9020   5.037   4.018   8.148  1.8234 -0.8377  0.9007
   92SAPS  C219 9021   4.955   4.172   8.262 -0.6979  0.5503  0.4654
   92SAPS  H19R 9022   4.851   4.132   8.261 -0.3751 -0.3043  0.4167
   92SAPS  H19S 9023   4.958   4.282   8.253 -2.9229  0.5656 -0.4817
   92SAPS  C220 9024   5.022   4.119   8.390 -0.1350 -0.4343 -0.4644
   92SAPS  H20R 9025   4.955   4.140   8.476 -1.2882  1.6977 -1.8241
   92SAPS  H20S 9026   5.114   4.176   8.415 -0.4528 -0.2859  0.3930
   92SAPS  H20T 9027   5.050   4.012   8.383  2.2781  0.1490  0.0070
   92SAPS   C33 9028   5.722   3.888   6.981  0.6568  0.5208 -0.4543
   92SAPS   H3X 9029   5.660   3.976   7.009  1.0277  0.4128  0.7153
   92SAPS   H3Y 9030   5.830   3.910   6.997  1.1169 -1.0112 -1.3011
   92SAPS   C34 9031   5.693   3.774   7.080  0.6031  0.5198 -0.1584
   92SAPS   H4X 9032   5.749   3.682   7.051 -0.4887 -0.7407  1.6583
   92SAPS   H4Y 9033   5.586   3.749   7.062  0.4608  0.2599  1.0278
   92SAPS   C35 9034   5.715   3.807   7.232 -0.4303  0.3786  0.9724
   92SAPS   H5X 9035   5.650   3.896   7.242  0.8558  1.5080 -0.3473
   92SAPS   H5Y 9036   5.821   3.839   7.247  0.1202  0.3064 -2.4089
   92SAPS   C36 9037   5.672   3.685   7.320  0.7420 -0.3227  0.3168
   92SAPS   H6X 9038   5.742   3.601   7.300  2.4417  0.8058  1.4464
   92SAPS   H6Y 9039   5.566   3.656   7.302  1.2178 -3.0529  1.6427
   92SAPS   C37 9040   5.679   3.703   7.474  0.1425 -0.0405  0.4210
   92SAPS   H7X 9041   5.638   3.801   7.506 -2.4154 -1.1486  0.6781
   92SAPS   H7Y 9042   5.784   3.699   7.508 -0.3052 -0.6558  1.7395
   92SAPS   C38 9043   5.607   3.592   7.549  0.4701  0.3872  0.0669
   92SAPS   H8X 9044   5.671   3.502   7.561 -0.8324 -0.1978  2.9758
   92SAPS   H8Y 9045   5.513   3.574   7.493  0.7129  1.0571 -0.5655
   92SAPS   C39 9046   5.572   3.637   7.694  0.7185  0.4546  0.4649
   92SAPS   H9X 9047   5.524   3.553   7.749  0.6466 -0.5702 -1.1629
   92SAPS   H9Y 9048   5.495   3.714   7.671 -1.6586 -1.7875  0.7840
   92SAPS  C310 9049   5.681   3.714   7.768  0.7736 -0.5926 -0.4592
   92SAPS  H10X 9050   5.716   3.804   7.712  0.8952  0.4104  1.1971
   92SAPS  H10Y 9051   5.770   3.653   7.792  2.1923  1.5590 -0.0923
   92SAPS  C311 9052   5.640   3.776   7.904 -0.1592 -0.1499 -0.3857
   92SAPS  H11X 9053   5.621   3.685   7.964 -0.0610  0.3096  0.3576
   92SAPS  H11Y 9054   5.539   3.822   7.904  0.1128  0.4616 -1.3997
   92SAPS  C312 9055   5.743   3.877   7.967  0.2356  0.5584  0.1378
   92SAPS  H12X 9056   5.711   3.916   8.066  2.9919 -0.0277  1.2937
   92SAPS  H12Y 9057   5.743   3.957   7.890 -0.6575  0.6177  0.1926
   92SAPS  C313 9058   5.882   3.823   8.003 -0.2384 -0.2722 -0.5500
   92SAPS  H13X 9059   5.955   3.898   8.042 -1.5804  0.8091 -0.0470
   92SAPS  H13Y 9060   5.927   3.768   7.918 -0.9999 -2.8424  0.6641
   92SAPS  C314 9061   5.875   3.720   8.119  0.2503 -0.4706 -0.2896
   92SAPS  H14X 9062   5.961   3.650   8.109  0.4771 -0.5466  1.8500
   92SAPS  H14Y 9063   5.784   3.656   8.118  0.2569 -0.4787 -0.4735
   92SAPS  C315 9064   5.885   3.775   8.264  0.0556  1.4433 -0.0767
   92SAPS  H15X 9065   5.791   3.816   8.307 -0.4914  2.0906 -1.8593
   92SAPS  H15Y 9066   5.960   3.858   8.264  0.9855  0.6149 -1.1368
   92SAPS  C316 9067   5.929   3.667   8.365 -0.4167 -0.1095  0.6134
   92SAPS  H16X 9068   6.025   3.621   8.333 -0.9413  0.2023 -1.5525
   92SAPS  H16Y 9069   5.849   3.591   8.360 -0.3459 -0.2375  1.3809
   92SAPS  C317 9070   5.936   3.716   8.508  0.6235  0.2102  0.2800
   92SAPS  H17X 9071   5.963   3.618   8.553 -1.0147 -0.2401  0.3166
   92SAPS  H17Y 9072   5.837   3.745   8.548 -0.1683 -1.9484 -0.0819
   92SAPS  C318 9073   6.031   3.837   8.522 -0.2293  0.2730  0.7996
   92SAPS  H18X 9074   6.127   3.804   8.475 -1.0145 -0.7568 -0.0909
   92SAPS  H18Y 9075   6.056   3.851   8.629  0.4977 -1.3302  0.8685
   92SAPS  H18Z 9076   5.986   3.927   8.476 -1.7876  0.2023  2.1678
   93SAPS     N 9077   5.822   4.268   6.428  0.1681  0.1255 -0.0671
   93SAPS   HN1 9078   5.740   4.205   6.434  0.0002  0.2724 -0.7801
   93SAPS   HN2 9079   5.908   4.226   6.470  0.1742 -1.3761 -1.5242
   93SAPS   HN3 9080   5.808   4.355   6.482 -0.3239  1.6718 -2.5942
   93SAPS   C12 9081   5.846   4.312   6.286 -0.7818  0.0970 -0.5081
   93SAPS  H12A 9082   5.945   4.354   6.285 -0.8507  0.2560 -0.6032
   93SAPS   C13 9083   5.836   4.192   6.189 -0.5102  0.3951  0.5206
   93SAPS  O13A 9084   5.803   4.079   6.229 -0.1026  0.0198  0.1687
   93SAPS  O13B 9085   5.867   4.214   6.072 -0.6125  0.3813  0.2338
   93SAPS   C11 9086   5.750   4.428   6.257  0.4703  0.3663  0.4586
   93SAPS  H11A 9087   5.643   4.398   6.248 -0.1488  2.1802  1.6289
   93SAPS  H11B 9088   5.780   4.465   6.157  0.7354  1.4241  0.9281
   93SAPS     P 9089   5.667   4.592   6.442 -0.0456 -0.1340  0.3308
   93SAPS   O13 9090   5.722   4.715   6.509  0.1370  0.3651 -0.0119
   93SAPS   O14 9091   5.538   4.601   6.375  0.0383  0.3413 -0.1231
   93SAPS   O12 9092   5.773   4.531   6.352  0.2546 -0.3559  0.0914
   93SAPS   O11 9093   5.666   4.478   6.553  1.2235 -0.1115 -0.3010
   93SAPS    C1 9094   5.613   4.508   6.689  0.5277  0.3909 -0.9465
   93SAPS    HA 9095   5.690   4.549   6.758 -0.2568  1.0241 -0.4519
   93SAPS    HB 9096   5.533   4.584   6.681 -1.8332 -1.9929 -0.7411
   93SAPS    C2 9097   5.559   4.384   6.766 -0.2917 -0.0874  0.2796
   93SAPS    HS 9098   5.461   4.363   6.718 -0.9710  0.5097  1.3666
   93SAPS   O21 9099   5.530   4.411   6.905  0.0305 -0.8027 -0.0649
   93SAPS   C21 9100   5.467   4.314   6.972 -0.3392  1.0169 -0.7960
   93SAPS   O22 9101   5.413   4.218   6.918 -0.1876 -0.2007  0.3749
   93SAPS   C22 9102   5.467   4.342   7.122 -0.2939 -0.0139 -0.4885
   93SAPS   H2R 9103   5.538   4.423   7.149 -2.5167  0.7995  3.2380
   93SAPS   H2S 9104   5.365   4.381   7.140  0.6695  1.2474  2.4805
   93SAPS    C3 9105   5.661   4.263   6.769 -1.0448  0.3714 -0.8949
   93SAPS    HX 9106   5.705   4.252   6.668  2.6692 -1.8111  0.8669
   93SAPS    HY 9107   5.606   4.170   6.794  0.3573 -0.4201 -0.7007
   93SAPS   O31 9108   5.769   4.284   6.863 -0.7122  0.2740  0.3106
   93SAPS   C31 9109   5.895   4.288   6.810  0.7008  0.0819  0.1366
   93SAPS   O32 9110   5.918   4.283   6.692 -0.0655  0.3327  0.4347
   93SAPS   C32 9111   6.010   4.282   6.913 -0.2993 -0.6804  0.0211
   93SAPS   H2X 9112   6.005   4.379   6.966  1.5703 -0.7137  0.2958
   93SAPS   H2Y 9113   6.109   4.254   6.872 -0.3728 -1.3810  0.3075
   93SAPS   C23 9114   5.496   4.218   7.208  0.0549 -0.2382 -0.4089
   93SAPS   H3R 9115   5.462   4.129   7.151  0.8618 -1.0105  0.3067
   93SAPS   H3S 9116   5.435   4.217   7.301  0.9767 -0.0417  0.2082
   93SAPS   C24 9117   5.646   4.196   7.254 -0.1152  0.7137 -0.6495
   93SAPS   H4R 9118   5.716   4.218   7.170  1.2348 -0.0012  0.2760
   93SAPS   H4S 9119   5.654   4.093   7.294 -0.3489  1.5262  1.5133
   93SAPS   C25 9120   5.681   4.288   7.371 -0.3316 -1.1180  0.0394
   93SAPS   H5R 9121   5.734   4.378   7.337 -4.2667  1.4741  0.3683
   93SAPS   C26 9122   5.663   4.265   7.501 -0.2663  0.8459  0.1440
   93SAPS   H6R 9123   5.683   4.348   7.571 -1.5498  0.6218  0.7904
   93SAPS   C27 9124   5.585   4.153   7.570  0.0379 -0.1973  0.3906
   93SAPS   H7R 9125   5.650   4.117   7.653 -0.5537 -0.3219  0.8094
   93SAPS   H7S 9126   5.565   4.075   7.493  0.7443 -0.9618  0.9750
   93SAPS   C28 9127   5.454   4.204   7.628  0.1489 -0.3492 -0.0297
   93SAPS   H8R 9128   5.371   4.206   7.556 -1.7654  0.1793  2.1245
   93SAPS   C29 9129   5.416   4.227   7.757 -0.8057  0.0775 -0.3712
   93SAPS   H9R 9130   5.316   4.270   7.775  0.1703  1.6112  1.3816
   93SAPS  C210 9131   5.512   4.205   7.873  0.6300 -0.4835  0.0117
   93SAPS  H10R 9132   5.511   4.305   7.922 -0.4811 -0.6489  0.3597
   93SAPS  H10S 9133   5.616   4.181   7.843  0.7681  0.9289 -0.6763
   93SAPS  C211 9134   5.452   4.113   7.971  1.0457  0.2311  0.3499
   93SAPS  H11R 9135   5.416   4.015   7.935 -1.3328  0.9578  0.6757
   93SAPS  C212 9136   5.443   4.133   8.102 -0.0626 -0.3728 -0.5752
   93SAPS  H12R 9137   5.393   4.060   8.168  0.4503  0.9305  1.2925
   93SAPS  C213 9138   5.499   4.251   8.181 -0.7622 -0.0254  0.7592
   93SAPS  H13R 9139   5.439   4.274   8.272  0.5445  2.7946  0.9520
   93SAPS  H13S 9140   5.488   4.345   8.122 -1.8192 -1.0444 -0.7116
   93SAPS  C214 9141   5.643   4.225   8.208 -0.0079  0.0350 -0.1724
   93SAPS  H14R 9142   5.706   4.274   8.132 -1.0997  0.6106 -0.7304
   93SAPS  C215 9143   5.704   4.159   8.311  0.4814 -0.5584 -0.4033
   93SAPS  H15R 9144   5.814   4.158   8.314  0.5446  2.8209  0.6090
   93SAPS  C216 9145   5.623   4.103   8.429 -0.0090 -0.1661  0.0472
   93SAPS  H16R 9146   5.608   3.993   8.425 -2.9641  0.1768  0.6129
   93SAPS  H16S 9147   5.522   4.146   8.416  0.3927  0.8748  0.3486
   93SAPS  C217 9148   5.665   4.160   8.564  0.0650  0.2945 -0.3192
   93SAPS  H17R 9149   5.668   4.271   8.561  1.7228  0.2614 -0.6556
   93SAPS  H17S 9150   5.769   4.122   8.575  1.4296  3.0569 -2.8237
   93SAPS  C218 9151   5.560   4.133   8.667 -0.6474 -0.4496  0.2337
   93SAPS  H18R 9152   5.553   4.023   8.682 -0.1683 -0.1965  2.4846
   93SAPS  H18S 9153   5.461   4.175   8.639 -0.4158 -0.4582 -0.6028
   93SAPS  C219 9154   5.592   4.207   8.803  0.2510 -0.4274  0.4873
   93SAPS  H19R 9155   5.587   4.317   8.785  0.0061 -0.6382 -0.7770
   93SAPS  H19S 9156   5.687   4.174   8.850  0.1000  1.2291  2.0079
   93SAPS  C220 9157   5.480   4.177   8.901  0.5590 -0.0696 -0.0297
   93SAPS  H20R 9158   5.475   4.072   8.936 -1.9336 -0.5380 -1.6686
   93SAPS  H20S 9159   5.379   4.200   8.860  0.4329 -2.6392 -1.2186
   93SAPS  H20T 9160   5.500   4.235   8.994 -1.0107  0.0928  0.2176
   93SAPS   C33 9161   5.979   4.172   7.019 -0.2700 -0.7643  0.5376
   93SAPS   H3X 9162   6.001   4.071   6.979 -0.9277 -0.3398 -0.9124
   93SAPS   H3Y 9163   5.873   4.177   7.054 -0.0442 -4.0536  1.8742
   93SAPS   C34 9164   6.070   4.202   7.142  0.2973 -0.7389  0.4928
   93SAPS   H4X 9165   6.028   4.289   7.197 -1.1888 -1.9243  1.2642
   93SAPS   H4Y 9166   6.176   4.222   7.116 -0.4780 -0.5375 -2.7483
   93SAPS   C35 9167   6.074   4.087   7.252 -0.3173 -0.1802  0.2623
   93SAPS   H5X 9168   6.133   4.004   7.206  2.4936 -0.5169  4.1706
   93SAPS   H5Y 9169   5.968   4.060   7.272 -0.5406  0.3622 -0.1859
   93SAPS   C36 9170   6.131   4.129   7.388  0.6362  0.2173  0.8492
   93SAPS   H6X 9171   6.081   4.224   7.418 -1.4662 -0.6470  0.1881
   93SAPS   H6Y 9172   6.239   4.153   7.383 -0.0813  3.0254 -3.6066
   93SAPS   C37 9173   6.106   4.014   7.486 -0.0460 -0.2532  0.1773
   93SAPS   H7X 9174   6.163   3.925   7.452 -0.9156 -0.5576 -0.4912
   93SAPS   H7Y 9175   6.002   3.976   7.491 -0.0871 -0.1501  0.1212
   93SAPS   C38 9176   6.165   4.054   7.628  0.0465  0.2499  0.0376
   93SAPS   H8X 9177   6.082   4.121   7.659  1.0857  1.6580 -0.1723
   93SAPS   H8Y 9178   6.258   4.113   7.615  0.2709  0.3189  1.8927
   93SAPS   C39 9179   6.179   3.935   7.724 -0.2033 -0.4823  0.4001
   93SAPS   H9X 9180   6.272   3.876   7.709  0.7786  0.9836  0.7156
   93SAPS   H9Y 9181   6.086   3.874   7.730 -1.1280  0.6825 -1.4557
   93SAPS  C310 9182   6.194   3.992   7.863  0.3993 -0.5588  0.7170
   93SAPS  H10X 9183   6.107   4.052   7.897  0.3723 -0.0903 -0.1611
   93SAPS  H10Y 9184   6.278   4.065   7.856 -1.0641  1.1344  0.4468
   93SAPS  C311 9185   6.235   3.888   7.970  0.6407  0.5624  0.6410
   93SAPS  H11X 9186   6.331   3.849   7.930 -0.3600  0.4397 -1.7365
   93SAPS  H11Y 9187   6.159   3.808   7.988  1.8046 -0.8880 -0.7539
   93SAPS  C312 9188   6.264   3.958   8.095 -0.7516 -0.7135 -0.4117
   93SAPS  H12X 9189   6.168   3.959   8.150 -0.7461 -1.4736 -0.3896
   93SAPS  H12Y 9190   6.296   4.064   8.080 -2.3404 -0.5537 -3.0378
   93SAPS  C313 9191   6.371   3.885   8.185  0.0842 -0.7251 -0.2939
   93SAPS  H13X 9192   6.471   3.889   8.138  1.4223 -0.3264  2.4537
   93SAPS  H13Y 9193   6.348   3.777   8.200  0.0362 -0.8458 -1.2053
   93SAPS  C314 9194   6.391   3.957   8.323 -0.3097  0.3197 -0.0032
   93SAPS  H14X 9195   6.330   3.911   8.403 -2.1159  1.4466 -0.7160
   93SAPS  H14Y 9196   6.351   4.060   8.316  0.0709  0.5457  1.0643
   93SAPS  C315 9197   6.537   3.980   8.376 -0.3342  0.2439  0.2222
   93SAPS  H15X 9198   6.542   4.026   8.477  1.7452  1.1087 -0.2572
   93SAPS  H15Y 9199   6.592   4.050   8.309  2.0906 -0.4864  1.4155
   93SAPS  C316 9200   6.626   3.848   8.375 -0.6508  0.7638 -0.6425
   93SAPS  H16X 9201   6.650   3.831   8.268  0.3133  1.9619 -0.6218
   93SAPS  H16Y 9202   6.563   3.764   8.411  0.8680  0.2062  0.7532
   93SAPS  C317 9203   6.754   3.870   8.465 -0.1303  0.3628 -0.8837
   93SAPS  H17X 9204   6.726   3.951   8.536  0.0877 -0.7679  0.4923
   93SAPS  H17Y 9205   6.833   3.922   8.406  0.8884 -2.2724 -1.9079
   93SAPS  C318 9206   6.814   3.759   8.549  0.1189  0.7044 -0.8046
   93SAPS  H18X 9207   6.742   3.737   8.631  3.5128 -0.0237  2.0894
   93SAPS  H18Y 9208   6.897   3.801   8.609 -1.6883  1.2612  1.3547
   93SAPS  H18Z 9209   6.849   3.668   8.495  2.8101  0.4197  1.3207
   94SAPS     N 9210   5.256   0.113   5.417 -0.5640 -0.2278 -0.2982
   94SAPS   HN1 9211   5.185   0.041   5.392 -0.4530 -0.7582  0.8403
   94SAPS   HN2 9212   5.303   0.140   5.328 -0.3938  0.8167  0.1010
   94SAPS   HN3 9213   5.325   0.090   5.492 -0.8092 -0.4135 -0.1275
   94SAPS   C12 9214   5.181   0.241   5.463 -0.4317 -0.1802  0.1342
   94SAPS  H12A 9215   5.266   0.300   5.493  1.1153 -2.9257  1.3663
   94SAPS   C13 9216   5.080   0.309   5.357 -0.0635 -0.3831  0.8294
   94SAPS  O13A 9217   5.087   0.285   5.236 -0.6725 -0.1052  0.1778
   94SAPS  O13B 9218   5.004   0.396   5.396 -0.1879 -0.0088 -0.1413
   94SAPS   C11 9219   5.101   0.207   5.593  1.1029 -0.3248  0.4841
   94SAPS  H11A 9220   5.016   0.142   5.564 -1.1213  0.8190  4.0379
   94SAPS  H11B 9221   5.060   0.304   5.628  0.1181 -0.1401 -1.1382
   94SAPS     P 9222   5.124   0.097   5.826 -0.3528  0.3614 -0.3868
   94SAPS   O13 9223   4.996   0.026   5.797  0.1550 -0.6270 -0.0124
   94SAPS   O14 9224   5.227   0.027   5.911 -0.5359 -0.0558  0.2332
   94SAPS   O12 9225   5.190   0.143   5.692 -0.1674  0.3746  0.0651
   94SAPS   O11 9226   5.100   0.238   5.898  0.3014 -0.5884 -0.4711
   94SAPS    C1 9227   5.208   0.335   5.892  0.2171 -0.3699 -0.2298
   94SAPS    HA 9228   5.307   0.286   5.885  0.2975 -0.3905  1.0087
   94SAPS    HB 9229   5.196   0.393   5.798 -0.5078  2.2601  1.4407
   94SAPS    C2 9230   5.203   0.433   6.017  0.4760 -0.3333 -0.2157
   94SAPS    HS 9231   5.266   0.523   6.002 -0.5093  0.9781  2.9834
   94SAPS   O21 9232   5.234   0.368   6.141 -0.0930 -0.0348 -0.9494
   94SAPS   C21 9233   5.360   0.348   6.163  0.0940 -0.1210  0.9450
   94SAPS   O22 9234   5.452   0.390   6.095 -0.0761 -0.4966  0.0802
   94SAPS   C22 9235   5.374   0.247   6.276  0.3586  0.1805  0.3756
   94SAPS   H2R 9236   5.280   0.234   6.332  0.2086 -1.3425 -0.2012
   94SAPS   H2S 9237   5.413   0.153   6.232  0.6954  0.6028 -0.2450
   94SAPS    C3 9238   5.058   0.481   6.036  0.7485  0.0796 -0.2986
   94SAPS    HX 9239   4.994   0.390   6.039  0.4537  0.3197  1.9557
   94SAPS    HY 9240   5.034   0.538   5.943  0.2672  1.1412  0.4603
   94SAPS   O31 9241   5.035   0.575   6.143  0.0634 -0.6102 -0.1879
   94SAPS   C31 9242   4.994   0.520   6.259  0.6806 -0.6473 -0.0222
   94SAPS   O32 9243   4.955   0.403   6.272  0.0059  0.2070 -0.8356
   94SAPS   C32 9244   4.991   0.630   6.365 -0.0753  0.2260  0.8577
   94SAPS   H2X 9245   4.909   0.701   6.341  0.6708 -0.2341 -3.4767
   94SAPS   H2Y 9246   5.081   0.695   6.370 -1.4032  1.9704  2.7900
   94SAPS   C23 9247   5.495   0.296   6.359 -0.5296  0.0690 -0.1213
   94SAPS   H3R 9248   5.472   0.385   6.423 -0.5586 -0.0992  0.1042
   94SAPS   H3S 9249   5.574   0.332   6.290  0.9308  1.9856  2.4481
   94SAPS   C24 9250   5.568   0.197   6.453 -0.9404  0.4080 -0.3352
   94SAPS   H4R 9251   5.599   0.109   6.394  0.7783  1.4824 -1.0863
   94SAPS   H4S 9252   5.480   0.177   6.518  0.6343  2.6269  2.6078
   94SAPS   C25 9253   5.688   0.249   6.528  0.0217 -0.4544 -0.9226
   94SAPS   H5R 9254   5.763   0.284   6.456 -0.4209  0.4401 -0.9542
   94SAPS   C26 9255   5.701   0.269   6.662  0.2278  0.3526 -0.5426
   94SAPS   H6R 9256   5.794   0.314   6.700 -0.0117 -0.4455  1.0087
   94SAPS   C27 9257   5.602   0.254   6.772  0.1611 -0.4691 -0.6865
   94SAPS   H7R 9258   5.664   0.225   6.860  0.0808 -1.2222 -0.8790
   94SAPS   H7S 9259   5.547   0.160   6.751  0.9073 -0.3726 -3.2293
   94SAPS   C28 9260   5.505   0.366   6.788  0.4547  0.1608  0.2203
   94SAPS   H8R 9261   5.461   0.402   6.695  0.5257 -0.0273  0.1128
   94SAPS   C29 9262   5.470   0.422   6.903 -1.0023 -0.7605 -0.0131
   94SAPS   H9R 9263   5.403   0.509   6.911  0.9930  0.6727  1.8011
   94SAPS  C210 9264   5.523   0.381   7.040 -0.1528  0.8485  0.0756
   94SAPS  H10R 9265   5.566   0.472   7.086  1.8035  0.0901 -0.2134
   94SAPS  H10S 9266   5.606   0.306   7.041  0.0006  1.0155 -0.1057
   94SAPS  C211 9267   5.414   0.322   7.118  0.3355 -0.2200  0.1595
   94SAPS  H11R 9268   5.339   0.266   7.061 -0.4694  2.7206 -1.7444
   94SAPS  C212 9269   5.396   0.355   7.248  0.4477  0.2240 -0.0022
   94SAPS  H12R 9270   5.300   0.313   7.280  1.0558 -1.2944 -0.1339
   94SAPS  C213 9271   5.483   0.429   7.344 -0.3753  0.7696  0.4443
   94SAPS  H13R 9272   5.585   0.436   7.300 -1.4817  1.8495 -2.0118
   94SAPS  H13S 9273   5.492   0.372   7.439 -1.9721  0.3585  0.3668
   94SAPS  C214 9274   5.431   0.572   7.358  0.3385 -0.0797 -0.7543
   94SAPS  H14R 9275   5.452   0.636   7.271 -0.3516 -2.0909 -2.4394
   94SAPS  C215 9276   5.366   0.623   7.465  0.2542 -0.3752  0.8310
   94SAPS  H15R 9277   5.344   0.730   7.475  0.6875 -0.1542 -0.4924
   94SAPS  C216 9278   5.324   0.547   7.589  0.2362 -0.2425 -0.3771
   94SAPS  H16R 9279   5.331   0.438   7.569 -1.0853 -0.7246  1.6419
   94SAPS  H16S 9280   5.216   0.565   7.606  0.0346 -0.2777 -1.5994
   94SAPS  C217 9281   5.390   0.575   7.727 -0.2941 -0.8483 -0.8191
   94SAPS  H17R 9282   5.409   0.685   7.734  1.4707 -1.1563 -0.6338
   94SAPS  H17S 9283   5.490   0.527   7.726 -1.2317 -2.8528 -0.7398
   94SAPS  C218 9284   5.300   0.530   7.844  0.0628 -0.2712 -0.1145
   94SAPS  H18R 9285   5.275   0.422   7.838 -1.9890  0.2365 -1.1659
   94SAPS  H18S 9286   5.209   0.593   7.844  0.9589  1.0465  0.4618
   94SAPS  C219 9287   5.364   0.562   7.978  1.1316  0.1615  0.6790
   94SAPS  H19R 9288   5.394   0.668   7.984  1.8973  0.0187 -0.4231
   94SAPS  H19S 9289   5.454   0.497   7.985  0.3973 -0.9570 -0.0252
   94SAPS  C220 9290   5.277   0.523   8.104  0.1273  0.3316  0.1253
   94SAPS  H20R 9291   5.261   0.414   8.120  0.4716  0.4608  1.3563
   94SAPS  H20S 9292   5.182   0.580   8.092 -1.5539 -2.3117  0.4236
   94SAPS  H20T 9293   5.330   0.557   8.195 -0.3106 -1.1525  0.9596
   94SAPS   C33 9294   4.977   0.572   6.509  0.0849 -0.0384  0.0491
   94SAPS   H3X 9295   4.896   0.498   6.527 -0.0494  0.3114  0.8986
   94SAPS   H3Y 9296   4.944   0.656   6.573 -0.5524 -1.5853  1.8193
   94SAPS   C34 9297   5.102   0.505   6.560  0.3914 -0.4556 -0.6737
   94SAPS   H4X 9298   5.192   0.557   6.520 -1.3821  3.5622  0.4232
   94SAPS   H4Y 9299   5.093   0.406   6.509 -0.4929 -1.2219  0.9381
   94SAPS   C35 9300   5.108   0.475   6.712  0.3416  0.1500 -0.2397
   94SAPS   H5X 9301   5.139   0.568   6.763  0.8545 -0.6069  0.8513
   94SAPS   H5Y 9302   5.203   0.417   6.719 -1.0428 -2.1854 -0.3273
   94SAPS   C36 9303   4.981   0.424   6.783  0.0209  0.9912 -0.3254
   94SAPS   H6X 9304   4.929   0.344   6.727  1.9037 -0.9309  0.5831
   94SAPS   H6Y 9305   4.906   0.505   6.782 -1.1930 -0.1059 -0.0674
   94SAPS   C37 9306   5.017   0.351   6.921 -0.2538 -0.6006  0.0018
   94SAPS   H7X 9307   5.115   0.298   6.918  0.4038  0.6515 -0.7080
   94SAPS   H7Y 9308   4.945   0.266   6.932  0.0312 -0.8631 -0.1500
   94SAPS   C38 9309   5.026   0.434   7.051  0.2250 -0.4267  0.2558
   94SAPS   H8X 9310   4.938   0.502   7.046  1.1390  0.5526 -4.4944
   94SAPS   H8Y 9311   5.122   0.491   7.048 -0.4492  0.6656 -0.7224
   94SAPS   C39 9312   5.015   0.339   7.169 -0.0650 -0.3932 -0.1257
   94SAPS   H9X 9313   5.091   0.258   7.161  0.4560  0.0180  0.5707
   94SAPS   H9Y 9314   4.912   0.299   7.160 -0.5928  1.0848 -0.7964
   94SAPS  C310 9315   5.020   0.407   7.307  0.5309 -0.9224  0.3397
   94SAPS  H10X 9316   4.948   0.492   7.303 -0.4372 -1.6851  1.3765
   94SAPS  H10Y 9317   5.121   0.450   7.327  0.2909 -0.4653  0.5558
   94SAPS  C311 9318   4.982   0.321   7.424 -0.3074  0.3780 -0.0821
   94SAPS  H11X 9319   4.880   0.281   7.400 -0.3910 -0.1790  1.1479
   94SAPS  H11Y 9320   4.981   0.379   7.519  0.6615  1.0814 -0.4976
   94SAPS  C312 9321   5.073   0.203   7.450  0.2906 -0.1144 -0.4510
   94SAPS  H12X 9322   5.177   0.236   7.469  0.6327 -2.0078  1.0886
   94SAPS  H12Y 9323   5.079   0.134   7.363  0.8529  0.0085 -0.5064
   94SAPS  C313 9324   5.028   0.124   7.572 -0.7014 -0.1665 -0.2499
   94SAPS  H13X 9325   5.093   0.034   7.575  1.0187  1.0370  0.1315
   94SAPS  H13Y 9326   4.925   0.094   7.545 -2.0948  4.0423 -0.0553
   94SAPS  C314 9327   5.044   0.199   7.708  0.2342  0.0791  0.1104
   94SAPS  H14X 9328   4.969   0.280   7.717 -0.2691 -0.1162 -2.1247
   94SAPS  H14Y 9329   5.142   0.252   7.710  0.1425  0.2536 -0.0572
   94SAPS  C315 9330   5.022   0.119   7.842  0.2595  0.3205 -0.8362
   94SAPS  H15X 9331   5.080   0.025   7.828 -0.6414 -0.5590  1.1783
   94SAPS  H15Y 9332   4.916   0.089   7.859  1.3398 -2.2411  1.8990
   94SAPS  C316 9333   5.079   0.184   7.967 -0.3575  0.7560 -0.2283
   94SAPS  H16X 9334   5.037   0.285   7.985 -1.8369  0.1252 -0.0981
   94SAPS  H16Y 9335   5.188   0.205   7.954  0.0055 -1.7703 -1.5847
   94SAPS  C317 9336   5.057   0.096   8.091  0.0976 -0.9249 -0.0531
   94SAPS  H17X 9337   5.119   0.004   8.083  1.2479 -0.1041 -0.7247
   94SAPS  H17Y 9338   4.950   0.068   8.104 -0.0708  0.2117  0.9797
   94SAPS  C318 9339   5.100   0.172   8.218 -0.4160  0.8505  0.5404
   94SAPS  H18X 9340   5.203   0.211   8.204 -0.0716 -0.0899  0.4132
   94SAPS  H18Y 9341   5.095   0.103   8.306 -0.1649 -1.6197 -1.3217
   94SAPS  H18Z 9342   5.035   0.260   8.234 -0.6093  0.7597  0.2660
   95SAPS     N 9343   2.100   4.182   5.976  0.2591 -0.6489 -0.1037
   95SAPS   HN1 9344   2.023   4.114   5.992 -0.4252  0.6125  2.1461
   95SAPS   HN2 9345   2.167   4.134   5.913  1.2966  0.3318  0.2203
   95SAPS   HN3 9346   2.153   4.194   6.065 -1.6939 -0.5685  1.0888
   95SAPS   C12 9347   2.063   4.326   5.938  0.6786 -1.0131  0.7849
   95SAPS  H12A 9348   2.150   4.387   5.956  0.0562 -0.5063  2.0989
   95SAPS   C13 9349   2.019   4.345   5.790  0.5321 -0.8208  0.0473
   95SAPS  O13A 9350   2.037   4.251   5.705 -0.0525 -0.0396 -0.3109
   95SAPS  O13B 9351   2.002   4.464   5.750 -0.5524  0.4021 -0.0681
   95SAPS   C11 9352   1.939   4.383   6.018  0.3628 -0.5912  0.2417
   95SAPS  H11A 9353   1.871   4.295   6.027 -1.2474  0.5486 -0.4441
   95SAPS  H11B 9354   1.894   4.476   5.977  1.8727  0.5202  1.0977
   95SAPS     P 9355   1.972   4.547   6.224  0.2006 -0.2750 -0.2161
   95SAPS   O13 9356   2.107   4.579   6.279  0.1161  0.2143  0.1900
   95SAPS   O14 9357   1.907   4.651   6.142  0.1351  0.4134 -0.1969
   95SAPS   O12 9358   1.982   4.411   6.149 -0.1572  0.0195  0.0536
   95SAPS   O11 9359   1.875   4.493   6.333 -0.3174 -0.1459  0.4281
   95SAPS    C1 9360   1.824   4.579   6.438 -0.3158  0.5169 -0.3563
   95SAPS    HA 9361   1.902   4.644   6.483  3.2116 -4.5310  1.1331
   95SAPS    HB 9362   1.736   4.636   6.399  0.7432  0.5888 -2.6943
   95SAPS    C2 9363   1.782   4.486   6.559  0.0199 -0.1308 -0.3693
   95SAPS    HS 9364   1.771   4.563   6.638 -0.6986  0.9503 -1.5115
   95SAPS   O21 9365   1.901   4.405   6.596 -0.2054  0.1026 -0.5098
   95SAPS   C21 9366   1.898   4.359   6.721 -0.1465  0.0028 -0.3048
   95SAPS   O22 9367   1.814   4.385   6.802 -0.3166 -0.9929  0.0541
   95SAPS   C22 9368   2.011   4.260   6.739  0.2598  0.1079 -0.1698
   95SAPS   H2R 9369   1.990   4.167   6.682  0.5173  0.7959 -1.4142
   95SAPS   H2S 9370   2.094   4.304   6.679 -1.0379 -1.4262 -3.2075
   95SAPS    C3 9371   1.662   4.397   6.524  0.0950 -0.6108 -0.1781
   95SAPS    HX 9372   1.699   4.300   6.484  1.1403 -0.2201 -0.1706
   95SAPS    HY 9373   1.598   4.449   6.451  2.0588 -0.7638 -2.0627
   95SAPS   O31 9374   1.588   4.367   6.640 -0.0491  0.5352 -0.4560
   95SAPS   C31 9375   1.515   4.452   6.698 -0.0539 -0.7860 -0.4675
   95SAPS   O32 9376   1.498   4.570   6.668  0.2762 -0.3675  0.9576
   95SAPS   C32 9377   1.443   4.363   6.807 -0.2683  0.5304  0.5193
   95SAPS   H2X 9378   1.523   4.319   6.870  0.3671  3.5575  1.8731
   95SAPS   H2Y 9379   1.390   4.282   6.751  0.2032  0.3848  0.2781
   95SAPS   C23 9380   2.064   4.237   6.882  0.3371 -0.3927 -0.2291
   95SAPS   H3R 9381   2.077   4.331   6.940 -1.0598  1.7123 -3.2096
   95SAPS   H3S 9382   2.168   4.202   6.862  0.9703  0.5715  1.2426
   95SAPS   C24 9383   1.977   4.134   6.955  0.0297  0.4016 -0.2697
   95SAPS   H4R 9384   1.931   4.063   6.882  0.6450 -1.0862  0.7578
   95SAPS   H4S 9385   1.889   4.187   6.997 -0.6861 -1.0066  0.0730
   95SAPS   C25 9386   2.056   4.062   7.057  0.4449 -0.0130 -0.9116
   95SAPS   H5R 9387   2.110   3.973   7.022  0.9335 -0.5516  1.1258
   95SAPS   C26 9388   2.088   4.095   7.183 -0.3158 -0.9953 -0.0226
   95SAPS   H6R 9389   2.155   4.030   7.242 -0.0992 -1.8880 -1.2487
   95SAPS   C27 9390   2.035   4.218   7.244 -0.0305  0.0959 -0.2372
   95SAPS   H7R 9391   1.939   4.201   7.296  0.5946 -3.2275 -0.0133
   95SAPS   H7S 9392   2.011   4.297   7.170  0.7764 -0.0800 -0.7030
   95SAPS   C28 9393   2.132   4.281   7.337 -0.2497  0.6673  0.1990
   95SAPS   H8R 9394   2.219   4.320   7.282 -0.8992 -0.8498 -1.9552
   95SAPS   C29 9395   2.145   4.267   7.473  0.5299 -0.9091 -0.5656
   95SAPS   H9R 9396   2.211   4.340   7.523  3.0348 -2.2051 -1.9137
   95SAPS  C210 9397   2.049   4.196   7.570  0.7147  0.6083  0.0707
   95SAPS  H10R 9398   1.947   4.178   7.529 -0.1039 -0.6675  2.5437
   95SAPS  H10S 9399   2.031   4.269   7.651 -0.7650 -0.7016  0.9299
   95SAPS  C211 9400   2.101   4.066   7.629 -0.3863  0.1638 -0.0623
   95SAPS  H11R 9401   2.111   3.989   7.551 -1.4553  1.0295 -1.0725
   95SAPS  C212 9402   2.125   4.035   7.759 -0.9495 -0.5461 -1.0148
   95SAPS  H12R 9403   2.145   3.928   7.779 -1.1158 -0.4871 -0.5462
   95SAPS  C213 9404   2.118   4.124   7.877 -0.2334  0.4496 -0.0648
   95SAPS  H13R 9405   2.079   4.064   7.962  0.1276 -1.3683 -1.1727
   95SAPS  H13S 9406   2.041   4.205   7.873 -0.1807  0.6492  2.0357
   95SAPS  C214 9407   2.246   4.200   7.884  0.0107  0.1254 -0.1148
   95SAPS  H14R 9408   2.277   4.245   7.788 -0.5149 -0.4431 -0.5555
   95SAPS  C215 9409   2.317   4.234   7.997  0.0518 -0.6666  0.2477
   95SAPS  H15R 9410   2.408   4.292   7.976 -0.6523  1.7523  3.4984
   95SAPS  C216 9411   2.269   4.209   8.137 -0.2376 -0.5463  0.1019
   95SAPS  H16R 9412   2.340   4.143   8.190  0.6317  1.7406  1.8847
   95SAPS  H16S 9413   2.168   4.164   8.131 -0.7223  0.6176 -0.7486
   95SAPS  C217 9414   2.249   4.342   8.213  0.4230  0.2896 -0.4536
   95SAPS  H17R 9415   2.164   4.391   8.160 -0.7742 -1.5541 -0.3072
   95SAPS  H17S 9416   2.336   4.410   8.201  1.0347 -0.6281 -1.2912
   95SAPS  C218 9417   2.204   4.317   8.354 -0.3318 -0.7474 -0.3836
   95SAPS  H18R 9418   2.286   4.284   8.421 -1.1378  1.1811  1.6227
   95SAPS  H18S 9419   2.125   4.239   8.360 -1.1583  0.1317  0.3594
   95SAPS  C219 9420   2.130   4.433   8.428 -0.3466 -0.3448  0.0191
   95SAPS  H19R 9421   2.049   4.471   8.362  0.3087  1.3712  0.1878
   95SAPS  H19S 9422   2.202   4.517   8.428 -0.7043  0.0122  3.0852
   95SAPS  C220 9423   2.089   4.417   8.575  0.3072 -0.2021 -0.3493
   95SAPS  H20R 9424   1.992   4.362   8.580 -0.4248  1.0472 -0.4658
   95SAPS  H20S 9425   2.065   4.513   8.626 -0.1421 -1.9772  2.9064
   95SAPS  H20T 9426   2.169   4.365   8.633 -0.5180  0.3656  1.3497
   95SAPS   C33 9427   1.340   4.440   6.892 -0.1449  0.1948  0.8013
   95SAPS   H3X 9428   1.259   4.485   6.831  0.1725  0.1805  0.3615
   95SAPS   H3Y 9429   1.394   4.530   6.927 -2.3213  1.5849  0.6210
   95SAPS   C34 9430   1.289   4.352   7.012  0.0166 -0.4372  0.3279
   95SAPS   H4X 9431   1.381   4.335   7.073  1.0745  0.4295 -0.9973
   95SAPS   H4Y 9432   1.265   4.258   6.958 -1.1975  1.7481 -3.1224
   95SAPS   C35 9433   1.181   4.406   7.103  0.4312 -0.7434 -0.4573
   95SAPS   H5X 9434   1.190   4.338   7.190  1.7200 -1.4692 -1.1456
   95SAPS   H5Y 9435   1.083   4.403   7.050 -0.2446  0.0932  0.7183
   95SAPS   C36 9436   1.209   4.550   7.155  0.3868  0.5634 -0.3280
   95SAPS   H6X 9437   1.191   4.628   7.078  1.7666  2.4944  1.2708
   95SAPS   H6Y 9438   1.315   4.550   7.187  0.1047  1.9901  0.6618
   95SAPS   C37 9439   1.126   4.571   7.282  0.2032  0.3300 -0.3404
   95SAPS   H7X 9440   1.028   4.520   7.272 -1.3949  2.8236  1.8948
   95SAPS   H7Y 9441   1.094   4.675   7.303 -0.9412  0.1860 -1.2927
   95SAPS   C38 9442   1.191   4.536   7.410 -0.6357  0.0936 -0.4477
   95SAPS   H8X 9443   1.297   4.567   7.400 -1.3709  2.8733 -0.0148
   95SAPS   H8Y 9444   1.196   4.427   7.431 -0.0521 -0.1802 -1.9737
   95SAPS   C39 9445   1.125   4.608   7.527  0.0973  0.2912 -0.3136
   95SAPS   H9X 9446   1.118   4.717   7.513  1.0295  0.3822 -0.1245
   95SAPS   H9Y 9447   1.193   4.613   7.615 -0.8247 -0.1327  0.4357
   95SAPS  C310 9448   0.991   4.535   7.564  0.0138  1.1079 -0.5456
   95SAPS  H10X 9449   0.983   4.425   7.549 -0.9627  1.2485 -1.1155
   95SAPS  H10Y 9450   0.909   4.576   7.501 -1.2953 -1.7124 -0.7604
   95SAPS  C311 9451   0.944   4.567   7.704  0.4738 -0.2227 -0.9271
   95SAPS  H11X 9452   0.855   4.503   7.722  0.4514  0.0693  0.0408
   95SAPS  H11Y 9453   0.914   4.674   7.709 -0.7846 -0.5742 -0.7318
   95SAPS  C312 9454   1.047   4.551   7.818 -0.4903 -0.0823 -0.3092
   95SAPS  H12X 9455   1.129   4.625   7.804  0.1636 -0.7067  0.1729
   95SAPS  H12Y 9456   1.075   4.444   7.809  0.2529  0.0886 -0.0517
   95SAPS  C313 9457   0.996   4.579   7.961  0.5206  0.2702  0.2475
   95SAPS  H13X 9458   1.044   4.502   8.025  1.7100  2.0430  1.5260
   95SAPS  H13Y 9459   0.891   4.544   7.970  0.1716  1.5132  1.3109
   95SAPS  C314 9460   1.024   4.720   8.008 -0.9709 -0.0951 -0.3858
   95SAPS  H14X 9461   0.972   4.793   7.941  2.2082  2.5017 -0.1407
   95SAPS  H14Y 9462   1.133   4.741   8.004 -0.0888 -4.0692  0.8720
   95SAPS  C315 9463   0.987   4.748   8.154 -0.6109 -0.5329 -0.0760
   95SAPS  H15X 9464   0.876   4.748   8.151 -0.5897  0.7449 -1.0291
   95SAPS  H15Y 9465   1.029   4.848   8.175  2.8227 -1.8544 -0.3927
   95SAPS  C316 9466   1.043   4.661   8.260  0.0053 -0.3623 -0.4307
   95SAPS  H16X 9467   1.153   4.680   8.256 -0.1955  1.0674  0.4165
   95SAPS  H16Y 9468   1.033   4.552   8.242 -0.3605 -0.7992  2.2295
   95SAPS  C317 9469   0.995   4.681   8.402  0.2129  0.1822  0.0709
   95SAPS  H17X 9470   1.042   4.603   8.466  0.8603 -0.6332 -1.3768
   95SAPS  H17Y 9471   0.885   4.662   8.399  0.3264 -0.4806  0.0152
   95SAPS  C318 9472   1.016   4.811   8.467  0.2406 -0.1618  0.3753
   95SAPS  H18X 9473   0.955   4.824   8.558 -1.7871  0.2266 -1.0013
   95SAPS  H18Y 9474   0.984   4.885   8.390 -1.0943 -2.1262 -1.0093
   95SAPS  H18Z 9475   1.122   4.831   8.495  0.3573 -0.7999  0.3902
   96SAPS     N 9476   2.926   5.763   6.010  0.4161  0.6704 -0.0653
   96SAPS   HN1 9477   2.888   5.817   6.091 -1.3675 -1.8225  0.8371
   96SAPS   HN2 9478   2.995   5.693   6.045 -0.3560  0.6031  1.3710
   96SAPS   HN3 9479   2.972   5.829   5.945 -0.5644  1.7608  0.3301
   96SAPS   C12 9480   2.820   5.669   5.967 -0.0371 -0.0184  0.1012
   96SAPS  H12A 9481   2.744   5.726   5.916  1.6077  3.1471  1.0490
   96SAPS   C13 9482   2.880   5.565   5.866  0.3390 -0.0582  0.5643
   96SAPS  O13A 9483   3.000   5.560   5.834 -0.1056 -0.2680 -0.0466
   96SAPS  O13B 9484   2.804   5.473   5.833 -0.2537 -0.6019 -0.0611
   96SAPS   C11 9485   2.753   5.604   6.093  0.7307 -0.3445 -0.5866
   96SAPS  H11A 9486   2.832   5.551   6.151  2.8120  0.8358 -2.2860
   96SAPS  H11B 9487   2.683   5.524   6.059  0.2830 -0.3479  0.3093
   96SAPS     P 9488   2.619   5.646   6.328  0.4337 -0.4891  0.5879
   96SAPS   O13 9489   2.543   5.761   6.383  0.2932  0.5983 -0.0669
   96SAPS   O14 9490   2.545   5.525   6.306 -0.4909 -0.0242  0.4395
   96SAPS   O12 9491   2.679   5.692   6.184  0.4749  0.9399  0.7728
   96SAPS   O11 9492   2.744   5.612   6.417 -0.5741  0.2913 -0.0371
   96SAPS    C1 9493   2.806   5.726   6.487  0.3727  1.0023 -0.0461
   96SAPS    HA 9494   2.915   5.732   6.464  0.2374  1.5535 -0.5499
   96SAPS    HB 9495   2.760   5.824   6.461 -1.4685  0.5346  1.3307
   96SAPS    C2 9496   2.793   5.709   6.644  0.4070  0.5487  0.1903
   96SAPS    HS 9497   2.858   5.624   6.674  0.1827  0.3128  0.0151
   96SAPS   O21 9498   2.662   5.671   6.688  0.1114 -0.1023  0.4849
   96SAPS   C21 9499   2.643   5.547   6.722  0.5062  0.0665 -0.0760
   96SAPS   O22 9500   2.719   5.458   6.715 -0.2082  0.5509  0.1028
   96SAPS   C22 9501   2.489   5.540   6.754  0.4083 -0.0556 -0.0260
   96SAPS   H2R 9502   2.443   5.640   6.742  1.8166  0.4103 -1.7185
   96SAPS   H2S 9503   2.448   5.478   6.671 -1.6831  3.9665 -2.1421
   96SAPS    C3 9504   2.845   5.837   6.720 -0.1809 -0.2821 -0.1792
   96SAPS    HX 9505   2.790   5.922   6.675 -1.1679 -0.3746  0.8237
   96SAPS    HY 9506   2.953   5.853   6.703 -0.1298  0.1007  0.4814
   96SAPS   O31 9507   2.818   5.844   6.866 -0.1483  0.3148  0.2836
   96SAPS   C31 9508   2.872   5.749   6.943  0.3723  0.5244  0.3966
   96SAPS   O32 9509   2.937   5.652   6.899  0.2320 -0.8663  0.2433
   96SAPS   C32 9510   2.850   5.777   7.090 -0.6777  0.0154 -0.3098
   96SAPS   H2X 9511   2.741   5.776   7.111 -0.5207  0.4949  0.5837
   96SAPS   H2Y 9512   2.884   5.877   7.123 -0.2521 -0.5211  0.9381
   96SAPS   C23 9513   2.474   5.481   6.895 -0.3933  0.9334 -0.0670
   96SAPS   H3R 9514   2.514   5.377   6.895 -0.0190  1.0744 -0.5791
   96SAPS   H3S 9515   2.367   5.467   6.922 -0.7916  1.6922 -1.2096
   96SAPS   C24 9516   2.524   5.571   6.999  0.1988 -0.4539  0.5529
   96SAPS   H4R 9517   2.623   5.615   6.974 -0.1805  0.1579  0.1364
   96SAPS   H4S 9518   2.533   5.515   7.095 -2.1930  0.3269  1.2522
   96SAPS   C25 9519   2.441   5.696   7.023 -0.5910 -0.3049  0.1576
   96SAPS   H5R 9520   2.403   5.752   6.936 -1.3769  0.2917  0.8885
   96SAPS   C26 9521   2.408   5.748   7.139 -0.7483  0.1744  0.0539
   96SAPS   H6R 9522   2.350   5.841   7.147  1.3021  1.4547  0.2771
   96SAPS   C27 9523   2.464   5.694   7.271 -0.0190 -0.3325 -0.1087
   96SAPS   H7R 9524   2.503   5.777   7.334  1.0303 -1.0477  0.2001
   96SAPS   H7S 9525   2.548   5.623   7.258 -0.4505 -1.1517  1.5017
   96SAPS   C28 9526   2.365   5.612   7.347  0.4105 -0.3774 -0.5023
   96SAPS   H8R 9527   2.282   5.569   7.289  1.9916  0.3065 -3.3587
   96SAPS   C29 9528   2.381   5.594   7.486  0.6698  0.8141 -0.4735
   96SAPS   H9R 9529   2.312   5.524   7.535 -1.0578  3.0378  0.3731
   96SAPS  C210 9530   2.488   5.641   7.574  0.1266 -0.0588 -0.7077
   96SAPS  H10R 9531   2.493   5.751   7.560  1.1233  0.2198  1.4869
   96SAPS  H10S 9532   2.581   5.591   7.538  1.1338  1.1400  0.1505
   96SAPS  C211 9533   2.468   5.602   7.719  0.6158  0.3750  0.0377
   96SAPS  H11R 9534   2.424   5.502   7.731 -0.4440  0.9630  1.3070
   96SAPS  C212 9535   2.493   5.674   7.832  0.4112  0.0304  0.0348
   96SAPS  H12R 9536   2.453   5.626   7.923 -1.7767 -1.3335 -1.5762
   96SAPS  C213 9537   2.556   5.804   7.839  0.7461 -0.4159  1.4043
   96SAPS  H13R 9538   2.480   5.885   7.832  1.4396  0.1243 -0.3980
   96SAPS  H13S 9539   2.618   5.833   7.751  0.5085  1.5801  1.8633
   96SAPS  C214 9540   2.652   5.820   7.953 -0.4347  0.2953 -0.6644
   96SAPS  H14R 9541   2.756   5.794   7.926 -0.1548 -0.4815  1.1015
   96SAPS  C215 9542   2.615   5.854   8.078 -0.2335  0.0707  0.2156
   96SAPS  H15R 9543   2.698   5.880   8.146  0.5375  0.9660 -1.0386
   96SAPS  C216 9544   2.479   5.889   8.120  0.4775  0.3582  0.4637
   96SAPS  H16R 9545   2.456   5.820   8.205  0.2998  1.8675  1.6621
   96SAPS  H16S 9546   2.398   5.877   8.046 -0.4537  3.0689  0.9875
   96SAPS  C217 9547   2.480   6.030   8.195 -0.6090  0.4349  0.7630
   96SAPS  H17R 9548   2.513   6.098   8.114  0.3563  1.5532  2.0891
   96SAPS  H17S 9549   2.558   6.041   8.273  2.2659 -2.9983 -1.4724
   96SAPS  C218 9550   2.345   6.062   8.249 -0.0489  0.1725  0.5431
   96SAPS  H18R 9551   2.274   6.027   8.171  0.6352  1.2911 -0.6029
   96SAPS  H18S 9552   2.323   6.171   8.245  1.7512  0.4705 -3.1761
   96SAPS  C219 9553   2.309   6.002   8.381  0.8088  0.0678  0.3456
   96SAPS  H19R 9554   2.387   6.044   8.449  2.4589 -0.6067 -1.0891
   96SAPS  H19S 9555   2.300   5.891   8.388  0.7670 -0.1562 -2.6820
   96SAPS  C220 9556   2.176   6.055   8.445 -0.1437  0.2472 -0.2921
   96SAPS  H20R 9557   2.143   5.987   8.527 -0.0501 -3.4054 -3.1151
   96SAPS  H20S 9558   2.097   6.042   8.368  0.7095  0.0355 -1.1319
   96SAPS  H20T 9559   2.200   6.159   8.474  4.2376 -1.0203  1.0285
   96SAPS   C33 9560   2.913   5.670   7.180  0.3199 -0.4070  0.2455
   96SAPS   H3X 9561   3.023   5.660   7.172  0.9093  2.4621  3.5317
   96SAPS   H3Y 9562   2.877   5.573   7.140  0.7107 -0.4561  0.0156
   96SAPS   C34 9563   2.879   5.690   7.326  0.0989 -0.3528  0.2057
   96SAPS   H4X 9564   2.776   5.731   7.329  0.6391  1.0386  0.1379
   96SAPS   H4Y 9565   2.946   5.777   7.346  1.7365 -1.2434 -1.2421
   96SAPS   C35 9566   2.891   5.569   7.415 -0.0650  0.1859 -0.4603
   96SAPS   H5X 9567   2.988   5.520   7.392 -1.3326 -1.6288 -2.2183
   96SAPS   H5Y 9568   2.805   5.507   7.380 -1.0309  1.0118  0.4324
   96SAPS   C36 9569   2.880   5.596   7.561 -0.0087  0.0529  0.8052
   96SAPS   H6X 9570   2.884   5.499   7.615 -1.1060 -0.0986  0.6363
   96SAPS   H6Y 9571   2.782   5.645   7.581  0.6133  0.5951  2.6087
   96SAPS   C37 9572   2.993   5.687   7.613  0.7200  0.4380  0.3289
   96SAPS   H7X 9573   3.014   5.777   7.550  2.1140  1.1895  1.8289
   96SAPS   H7Y 9574   3.086   5.626   7.613 -0.0173 -0.7000 -0.3848
   96SAPS   C38 9575   2.968   5.730   7.749  0.1748 -0.2185 -0.3348
   96SAPS   H8X 9576   2.971   5.647   7.822 -3.0843  0.4955  0.6675
   96SAPS   H8Y 9577   2.868   5.776   7.755  0.6997  0.9362 -0.3213
   96SAPS   C39 9578   3.066   5.838   7.790 -0.3349  0.1458 -0.4394
   96SAPS   H9X 9579   3.062   5.915   7.710  1.7680 -0.0825 -0.7901
   96SAPS   H9Y 9580   3.173   5.807   7.784 -0.5717 -0.7833 -0.0345
   96SAPS  C310 9581   3.030   5.895   7.933  0.2755 -0.2732  0.0362
   96SAPS  H10X 9582   2.919   5.908   7.931  0.6366  3.2491 -0.3078
   96SAPS  H10Y 9583   3.082   5.993   7.939 -1.3803  0.6227  0.1845
   96SAPS  C311 9584   3.080   5.807   8.047 -0.5873  0.1257 -0.1827
   96SAPS  H11X 9585   3.190   5.823   8.055 -0.4278 -0.9560 -0.1611
   96SAPS  H11Y 9586   3.053   5.703   8.020 -0.1950 -0.2675  0.9257
   96SAPS  C312 9587   3.022   5.832   8.183 -0.1028 -0.6125  0.0544
   96SAPS  H12X 9588   3.085   5.785   8.261 -1.1402 -0.4815  0.9681
   96SAPS  H12Y 9589   2.924   5.781   8.183  0.6788 -2.2187 -2.5835
   96SAPS  C313 9590   2.985   5.979   8.215  0.4661  0.2181  0.2169
   96SAPS  H13X 9591   2.911   6.013   8.139  1.5020  0.4862 -0.6955
   96SAPS  H13Y 9592   3.077   6.039   8.201  1.3972 -1.7065 -2.4227
   96SAPS  C314 9593   2.919   6.004   8.350  0.2007 -1.1330 -0.6986
   96SAPS  H14X 9594   2.995   5.994   8.430 -1.7105  2.1257  1.6316
   96SAPS  H14Y 9595   2.834   5.933   8.366 -0.1596 -0.5313  0.0632
   96SAPS  C315 9596   2.863   6.146   8.354 -0.8410  0.0005  0.6053
   96SAPS  H15X 9597   2.793   6.164   8.269 -2.2879 -0.1795  1.7202
   96SAPS  H15Y 9598   2.944   6.219   8.334 -1.8264  0.8226 -0.4861
   96SAPS  C316 9599   2.802   6.177   8.492  0.8788  0.3508  0.7845
   96SAPS  H16X 9600   2.886   6.157   8.563  1.5577  0.7711  0.1088
   96SAPS  H16Y 9601   2.717   6.109   8.514  0.4694  0.5111 -0.2821
   96SAPS  C317 9602   2.745   6.314   8.514  0.1591 -0.0797  0.2266
   96SAPS  H17X 9603   2.831   6.381   8.494  1.5023 -1.7980  0.0945
   96SAPS  H17Y 9604   2.725   6.322   8.622 -2.4271 -1.1267 -0.1272
   96SAPS  C318 9605   2.624   6.336   8.424  0.1771  0.0834 -0.1263
   96SAPS  H18X 9606   2.654   6.339   8.317 -0.6173 -0.0745 -0.3575
   96SAPS  H18Y 9607   2.577   6.435   8.440  0.6303  0.1321  0.8944
   96SAPS  H18Z 9608   2.551   6.253   8.433 -0.4903  0.7756  0.9729
   97SAPS     N 9609   3.149   3.914   6.322  0.4977  0.4914  0.4376
   97SAPS   HN1 9610   3.070   3.874   6.376  0.7688 -0.6665 -0.0106
   97SAPS   HN2 9611   3.185   3.984   6.391  1.2581 -0.6937  1.2655
   97SAPS   HN3 9612   3.121   3.961   6.234 -1.1271  0.3691  0.8786
   97SAPS   C12 9613   3.253   3.794   6.301  0.9114  0.0089  0.1030
   97SAPS  H12A 9614   3.198   3.706   6.270  3.4438 -1.5745  0.0027
   97SAPS   C13 9615   3.368   3.822   6.203  0.2061 -0.8459  0.8081
   97SAPS  O13A 9616   3.366   3.931   6.138 -0.4564  0.3876  0.6951
   97SAPS  O13B 9617   3.439   3.726   6.166  0.1404  0.1272  0.8397
   97SAPS   C11 9618   3.317   3.765   6.448 -0.0517 -0.4672  0.0277
   97SAPS  H11A 9619   3.389   3.681   6.435 -0.0869 -0.5024  0.0597
   97SAPS  H11B 9620   3.229   3.737   6.510  0.2282 -0.4371  0.4467
   97SAPS     P 9621   3.496   3.897   6.595  0.0151 -0.2579 -0.2432
   97SAPS   O13 9622   3.615   3.865   6.513 -0.0002  0.4796  0.5042
   97SAPS   O14 9623   3.489   4.029   6.667  0.2941 -0.1618 -0.0938
   97SAPS   O12 9624   3.376   3.884   6.498  0.4325 -0.5264 -0.6643
   97SAPS   O11 9625   3.469   3.775   6.690  0.8149 -0.7887  0.0766
   97SAPS    C1 9626   3.368   3.777   6.794  0.7338  0.3953 -0.3073
   97SAPS    HA 9627   3.272   3.829   6.770  0.7070  0.8473  0.7361
   97SAPS    HB 9628   3.334   3.671   6.803  1.8117  0.1550  1.1447
   97SAPS    C2 9629   3.424   3.827   6.925 -0.4964  0.2571  0.0856
   97SAPS    HS 9630   3.467   3.929   6.913 -2.1189  0.9399 -0.0948
   97SAPS   O21 9631   3.516   3.727   6.974 -0.3371  0.1524 -0.1329
   97SAPS   C21 9632   3.623   3.780   7.021 -0.4348 -0.0184  0.5725
   97SAPS   O22 9633   3.651   3.897   7.029 -0.2752  0.0876 -0.0182
   97SAPS   C22 9634   3.725   3.674   7.061 -0.4831  0.4292  0.2168
   97SAPS   H2R 9635   3.680   3.574   7.045  0.1382 -0.0378  1.3777
   97SAPS   H2S 9636   3.817   3.701   7.005 -0.7051  1.4919  0.3444
   97SAPS    C3 9637   3.312   3.817   7.034 -0.1859  0.7382  0.6644
   97SAPS    HX 9638   3.286   3.710   7.050  2.7761 -0.1643 -0.2194
   97SAPS    HY 9639   3.222   3.872   6.999 -1.5108 -0.7364  1.6957
   97SAPS   O31 9640   3.358   3.872   7.165  0.6287  0.4009  0.0015
   97SAPS   C31 9641   3.329   4.000   7.182  0.7287  0.7544 -0.4235
   97SAPS   O32 9642   3.277   4.075   7.100  0.0905  0.3540 -0.4285
   97SAPS   C32 9643   3.392   4.044   7.313  0.6398  0.1117  0.5345
   97SAPS   H2X 9644   3.476   4.109   7.281 -1.2293  2.8070  0.9209
   97SAPS   H2Y 9645   3.420   3.955   7.373 -1.0679  0.2022  1.5299
   97SAPS   C23 9646   3.765   3.686   7.208 -0.1764  0.1226  0.1908
   97SAPS   H3R 9647   3.675   3.655   7.266 -0.7754  1.6932  0.1413
   97SAPS   H3S 9648   3.772   3.793   7.237 -1.2274  0.3174 -0.2391
   97SAPS   C24 9649   3.879   3.605   7.268 -0.1778 -0.2852  0.6190
   97SAPS   H4R 9650   3.832   3.505   7.276 -0.4357 -0.3666 -1.4958
   97SAPS   H4S 9651   3.906   3.640   7.370  3.6411 -0.9650 -0.0805
   97SAPS   C25 9652   3.991   3.604   7.173  0.1727 -0.3718  0.0790
   97SAPS   H5R 9653   3.963   3.556   7.078  0.2711 -2.5773  1.1296
   97SAPS   C26 9654   4.110   3.653   7.192 -0.7098 -1.3489 -0.1863
   97SAPS   H6R 9655   4.181   3.652   7.108  0.3131 -0.2005  0.6400
   97SAPS   C27 9656   4.172   3.741   7.305 -0.1162 -0.5265 -0.3808
   97SAPS   H7R 9657   4.266   3.780   7.261 -0.8521  1.9035  0.1650
   97SAPS   H7S 9658   4.195   3.673   7.391  0.0119 -0.7266 -0.5715
   97SAPS   C28 9659   4.090   3.859   7.340 -0.3197 -0.6461  0.6683
   97SAPS   H8R 9660   4.055   3.923   7.257  0.5276 -1.1977 -0.1273
   97SAPS   C29 9661   4.072   3.902   7.464  0.2068 -1.1261 -0.2400
   97SAPS   H9R 9662   4.014   3.994   7.478  1.7074 -0.2435  0.2823
   97SAPS  C210 9663   4.125   3.847   7.590  0.4151  0.5998 -0.5137
   97SAPS  H10R 9664   4.134   3.918   7.675  0.9596 -0.7386  0.5790
   97SAPS  H10S 9665   4.230   3.818   7.568  0.2213 -0.7271  0.2276
   97SAPS  C211 9666   4.041   3.734   7.639  0.2368  0.8947  0.0798
   97SAPS  H11R 9667   3.985   3.678   7.562  2.7741 -1.1126 -0.3589
   97SAPS  C212 9668   4.041   3.686   7.767  0.5215  0.3871 -1.1782
   97SAPS  H12R 9669   3.974   3.605   7.798  0.9422  0.9084  1.2140
   97SAPS  C213 9670   4.128   3.749   7.879  0.2527 -0.0218 -0.0529
   97SAPS  H13R 9671   4.211   3.807   7.834  0.8324  0.4843  1.6466
   97SAPS  H13S 9672   4.177   3.670   7.941 -0.7360 -1.2934 -0.8604
   97SAPS  C214 9673   4.047   3.836   7.971 -0.3868 -0.3231  0.4299
   97SAPS  H14R 9674   4.033   3.934   7.924 -1.3157 -0.7520 -0.2109
   97SAPS  C215 9675   3.994   3.803   8.095  0.3445 -0.7020  0.2927
   97SAPS  H15R 9676   3.950   3.875   8.166  0.9909 -1.1582  1.1525
   97SAPS  C216 9677   4.007   3.669   8.164 -0.5177  0.3642  0.1561
   97SAPS  H16R 9678   4.042   3.684   8.268  0.2721 -0.2710 -0.0186
   97SAPS  H16S 9679   4.087   3.602   8.127 -1.3752  0.2258 -1.5122
   97SAPS  C217 9680   3.885   3.574   8.153  0.0013  0.3788 -0.3577
   97SAPS  H17R 9681   3.798   3.640   8.174  2.1800  2.8050  1.4210
   97SAPS  H17S 9682   3.896   3.493   8.228  1.6980  1.1096  0.2080
   97SAPS  C218 9683   3.870   3.503   8.016 -0.5508  0.7745 -0.3096
   97SAPS  H18R 9684   3.968   3.480   7.968 -1.4425  1.9341 -2.7650
   97SAPS  H18S 9685   3.814   3.580   7.958 -2.3371 -0.0060  0.3404
   97SAPS  C219 9686   3.803   3.371   8.015  0.4094  0.3713 -0.2909
   97SAPS  H19R 9687   3.865   3.311   8.086  0.4386 -1.2937 -1.7080
   97SAPS  H19S 9688   3.800   3.328   7.913 -1.5197  2.5366 -1.2134
   97SAPS  C220 9689   3.654   3.385   8.051  0.4419 -0.5275 -0.3028
   97SAPS  H20R 9690   3.604   3.476   8.012  1.3551 -0.2643 -0.8754
   97SAPS  H20S 9691   3.652   3.393   8.162  2.0915  1.5506 -0.3871
   97SAPS  H20T 9692   3.590   3.299   8.023 -1.6898  0.8220  0.2917
   97SAPS   C33 9693   3.314   4.143   7.403 -0.2694 -0.0746  0.1694
   97SAPS   H3X 9694   3.214   4.094   7.403 -0.4161  0.1774 -1.8444
   97SAPS   H3Y 9695   3.299   4.244   7.357  2.8979 -0.1304 -1.0725
   97SAPS   C34 9696   3.359   4.167   7.551  0.4080 -0.8277 -0.1141
   97SAPS   H4X 9697   3.468   4.187   7.561  0.4467 -1.9410  2.1042
   97SAPS   H4Y 9698   3.332   4.073   7.603  1.1107 -0.8637  0.1923
   97SAPS   C35 9699   3.275   4.269   7.625 -0.0684  0.1471  0.4412
   97SAPS   H5X 9700   3.266   4.247   7.734 -0.9553  0.2287  0.3904
   97SAPS   H5Y 9701   3.171   4.264   7.586 -0.3915  0.8023  1.1964
   97SAPS   C36 9702   3.336   4.414   7.612 -0.3075 -0.1496 -0.1352
   97SAPS   H6X 9703   3.342   4.420   7.502  3.9240 -0.8330 -0.0440
   97SAPS   H6Y 9704   3.437   4.437   7.652 -0.7514  2.7491 -0.5909
   97SAPS   C37 9705   3.246   4.516   7.672  0.5755 -0.0737 -0.0883
   97SAPS   H7X 9706   3.140   4.507   7.640 -0.7258  2.9024  3.0141
   97SAPS   H7Y 9707   3.285   4.615   7.640  3.6425 -0.9410  0.7928
   97SAPS   C38 9708   3.245   4.506   7.821 -0.1755  0.9503 -0.0539
   97SAPS   H8X 9709   3.211   4.407   7.859 -1.7648  1.1571 -0.8744
   97SAPS   H8Y 9710   3.161   4.569   7.858  0.0297  2.1840 -1.6310
   97SAPS   C39 9711   3.378   4.557   7.882  0.5210 -1.0920  0.5890
   97SAPS   H9X 9712   3.381   4.662   7.846 -1.1789 -0.7103  1.5128
   97SAPS   H9Y 9713   3.464   4.501   7.839  1.7356  0.1911  1.3144
   97SAPS  C310 9714   3.377   4.549   8.029  1.0725 -0.1466 -0.6606
   97SAPS  H10X 9715   3.379   4.443   8.060 -1.1345  0.5927  2.2065
   97SAPS  H10Y 9716   3.276   4.575   8.069  1.8627 -0.6235  1.6946
   97SAPS  C311 9717   3.486   4.630   8.089  0.1376 -0.9096  0.4134
   97SAPS  H11X 9718   3.469   4.736   8.061 -1.3538 -1.4158 -0.6065
   97SAPS  H11Y 9719   3.580   4.590   8.046 -0.3552 -1.1828 -0.4052
   97SAPS  C312 9720   3.500   4.606   8.242  0.3683  0.0493  0.0518
   97SAPS  H12X 9721   3.591   4.660   8.276  0.7152 -0.4095 -0.1446
   97SAPS  H12Y 9722   3.522   4.498   8.260 -0.8965 -0.6431 -2.3194
   97SAPS  C313 9723   3.381   4.641   8.332  0.6352  0.0781 -0.0806
   97SAPS  H13X 9724   3.290   4.603   8.282  1.6886 -3.4565  0.5721
   97SAPS  H13Y 9725   3.376   4.750   8.356  2.5557 -0.0518  1.0267
   97SAPS  C314 9726   3.380   4.579   8.472  0.4057 -0.0943 -0.2785
   97SAPS  H14X 9727   3.369   4.470   8.456  0.7394 -0.1445 -0.1761
   97SAPS  H14Y 9728   3.293   4.616   8.530 -1.6631 -3.2302 -1.2535
   97SAPS  C315 9729   3.507   4.597   8.558 -0.1108  0.3953 -0.0666
   97SAPS  H15X 9730   3.542   4.702   8.566 -0.4712  0.3415  2.5579
   97SAPS  H15Y 9731   3.590   4.539   8.514  1.3288  3.2724 -1.2813
   97SAPS  C316 9732   3.494   4.538   8.699 -0.4881  0.5301 -0.0460
   97SAPS  H16X 9733   3.586   4.549   8.760  0.1629 -0.3327 -0.8598
   97SAPS  H16Y 9734   3.487   4.427   8.698 -0.3291  0.4966  1.5980
   97SAPS  C317 9735   3.382   4.591   8.782 -0.1705  0.1103  0.3967
   97SAPS  H17X 9736   3.370   4.516   8.863  1.4281  0.1154  0.6359
   97SAPS  H17Y 9737   3.278   4.580   8.743 -0.3498  1.3979  0.4839
   97SAPS  C318 9738   3.393   4.731   8.838 -0.4412 -0.2072  0.4645
   97SAPS  H18X 9739   3.293   4.740   8.885 -1.2186  2.5561 -1.6005
   97SAPS  H18Y 9740   3.412   4.796   8.751 -1.1505  1.7951  1.7634
   97SAPS  H18Z 9741   3.474   4.733   8.915 -0.2330  0.4470  0.2314
   98SAPS     N 9742   1.478   4.173   5.885 -0.4531 -0.1824 -0.0275
   98SAPS   HN1 9743   1.508   4.236   5.963 -0.2943 -0.2938  0.0012
   98SAPS   HN2 9744   1.376   4.181   5.867 -0.3358 -0.5407 -0.8842
   98SAPS   HN3 9745   1.496   4.078   5.921 -1.9376 -0.9174 -1.1733
   98SAPS   C12 9746   1.562   4.203   5.774  0.4257 -0.0435  0.6598
   98SAPS  H12A 9747   1.522   4.160   5.683  1.8766  1.3907 -0.6897
   98SAPS   C13 9748   1.563   4.361   5.739  0.4833  0.0395 -0.1161
   98SAPS  O13A 9749   1.478   4.438   5.794  0.0541 -0.1168 -0.2039
   98SAPS  O13B 9750   1.646   4.398   5.656 -0.8144 -0.3878 -0.4394
   98SAPS   C11 9751   1.708   4.164   5.809  0.1466 -0.1813  0.3108
   98SAPS  H11A 9752   1.727   4.229   5.897 -0.3590  2.7993 -1.7223
   98SAPS  H11B 9753   1.777   4.182   5.724  1.7321 -0.1002  1.6003
   98SAPS     P 9754   1.772   3.960   5.966 -0.0386  0.4404 -0.1134
   98SAPS   O13 9755   1.717   3.821   5.973  0.3073  0.0420  0.8283
   98SAPS   O14 9756   1.916   3.965   5.946  0.3030 -0.1469  0.0640
   98SAPS   O12 9757   1.706   4.028   5.854  0.3223 -0.1033  0.0952
   98SAPS   O11 9758   1.731   4.042   6.093 -0.2128 -0.3732 -0.0263
   98SAPS    C1 9759   1.826   4.040   6.199 -0.3553 -0.2289  0.0555
   98SAPS    HA 9760   1.902   3.959   6.198 -0.2967 -0.1890 -1.9233
   98SAPS    HB 9761   1.877   4.138   6.191 -0.3775 -0.3478 -1.7747
   98SAPS    C2 9762   1.758   4.020   6.335  0.3963 -0.3902  0.7067
   98SAPS    HS 9763   1.736   3.912   6.350  0.5078 -0.5771 -0.3950
   98SAPS   O21 9764   1.639   4.104   6.330 -0.1985  0.0561  0.4441
   98SAPS   C21 9765   1.534   4.043   6.378  0.2847  0.1868  0.1392
   98SAPS   O22 9766   1.530   3.933   6.428  0.0268 -0.1439  0.5389
   98SAPS   C22 9767   1.415   4.134   6.366  0.7981 -0.2355 -0.6520
   98SAPS   H2R 9768   1.453   4.238   6.371  1.8166 -0.6741  1.0140
   98SAPS   H2S 9769   1.365   4.113   6.269 -2.4924  1.3364  0.6358
   98SAPS    C3 9770   1.862   4.047   6.446  0.7968 -0.3552  0.9944
   98SAPS    HX 9771   1.924   4.138   6.428  0.4361 -0.1261  0.8955
   98SAPS    HY 9772   1.932   3.961   6.450 -0.1753 -1.3123 -1.4447
   98SAPS   O31 9773   1.798   4.071   6.570  0.4274  0.2170  0.4627
   98SAPS   C31 9774   1.768   3.965   6.649 -0.3826 -0.8279 -0.2297
   98SAPS   O32 9775   1.820   3.855   6.637 -0.2278 -0.0577 -0.1412
   98SAPS   C32 9776   1.675   4.010   6.762 -0.2823  0.4060 -0.2501
   98SAPS   H2X 9777   1.578   4.037   6.715  0.2347  0.9609 -1.0083
   98SAPS   H2Y 9778   1.725   4.095   6.815 -1.8505  1.0657  0.2008
   98SAPS   C23 9779   1.315   4.105   6.481  0.0513  0.3029  0.0037
   98SAPS   H3R 9780   1.353   4.113   6.585  1.1491  1.5318 -0.4722
   98SAPS   H3S 9781   1.288   3.997   6.476  0.4059  0.2335 -0.4134
   98SAPS   C24 9782   1.185   4.191   6.469 -0.5853 -0.5276  0.0232
   98SAPS   H4R 9783   1.117   4.157   6.550 -2.5340  1.3138 -0.7914
   98SAPS   H4S 9784   1.132   4.161   6.376 -1.3296 -1.7352  0.8340
   98SAPS   C25 9785   1.210   4.338   6.488 -0.6539 -0.0562 -0.0423
   98SAPS   H5R 9786   1.274   4.384   6.412 -1.0587  0.5989  0.0044
   98SAPS   C26 9787   1.147   4.421   6.577  0.6400  0.5908 -0.0184
   98SAPS   H6R 9788   1.174   4.527   6.572  1.2997  0.4597  0.7125
   98SAPS   C27 9789   1.041   4.383   6.676 -0.4240  0.1647  0.0270
   98SAPS   H7R 9790   1.075   4.428   6.772 -1.3127  2.3809 -0.6708
   98SAPS   H7S 9791   1.035   4.273   6.693  0.5585  0.1574  0.3460
   98SAPS   C28 9792   0.906   4.425   6.624 -0.6463  0.3647  0.1006
   98SAPS   H8R 9793   0.887   4.395   6.520  2.2261  0.1022 -0.3800
   98SAPS   C29 9794   0.817   4.504   6.690 -0.3568  0.1143 -0.3431
   98SAPS   H9R 9795   0.725   4.535   6.638  1.3786  1.6145 -2.5869
   98SAPS  C210 9796   0.835   4.550   6.834  0.1092  0.6291 -0.4673
   98SAPS  H10R 9797   0.781   4.647   6.844 -0.5655  0.0272  1.8409
   98SAPS  H10S 9798   0.943   4.565   6.857  0.6349  0.2256 -2.4899
   98SAPS  C211 9799   0.769   4.452   6.924  0.8395  0.4292  0.1198
   98SAPS  H11R 9800   0.750   4.354   6.877 -1.2583  0.8871 -0.0581
   98SAPS  C212 9801   0.735   4.474   7.050 -0.0846  0.4387  0.8124
   98SAPS  H12R 9802   0.697   4.387   7.105  0.9642 -0.5373  0.0076
   98SAPS  C213 9803   0.756   4.597   7.136 -0.4860 -0.1221 -0.4818
   98SAPS  H13R 9804   0.837   4.651   7.082 -0.6594  1.8157  1.1761
   98SAPS  H13S 9805   0.788   4.574   7.240  1.6157  2.3815 -0.5272
   98SAPS  C214 9806   0.622   4.669   7.137 -0.3239  1.2217 -0.8421
   98SAPS  H14R 9807   0.570   4.657   7.040 -0.9898 -2.3042 -0.1324
   98SAPS  C215 9808   0.562   4.735   7.237 -0.8208  0.4260 -0.3550
   98SAPS  H15R 9809   0.461   4.777   7.224 -0.4220  1.5665  0.1586
   98SAPS  C216 9810   0.619   4.760   7.378 -0.5492  0.2255  0.0430
   98SAPS  H16R 9811   0.584   4.861   7.409 -1.2073  0.2501 -0.7706
   98SAPS  H16S 9812   0.730   4.765   7.377 -0.6003  1.7916 -1.7283
   98SAPS  C217 9813   0.562   4.668   7.487  0.5325 -0.5613  0.4345
   98SAPS  H17R 9814   0.581   4.560   7.467  2.2592 -0.2912  0.5110
   98SAPS  H17S 9815   0.452   4.683   7.482  0.3834 -1.9385 -0.9745
   98SAPS  C218 9816   0.604   4.703   7.630 -0.0241 -0.2702  0.4533
   98SAPS  H18R 9817   0.567   4.805   7.657 -2.5050 -0.9629 -0.2167
   98SAPS  H18S 9818   0.714   4.694   7.648  0.1265 -0.2090 -0.4045
   98SAPS  C219 9819   0.543   4.611   7.744  0.2977 -0.9458 -0.2642
   98SAPS  H19R 9820   0.573   4.505   7.735  0.2775 -1.1331  1.6630
   98SAPS  H19S 9821   0.432   4.615   7.746  0.3563  0.0808  1.9406
   98SAPS  C220 9822   0.587   4.664   7.880 -0.2018  0.2735 -0.0993
   98SAPS  H20R 9823   0.509   4.641   7.957  0.6640 -0.1012  0.6743
   98SAPS  H20S 9824   0.607   4.773   7.872 -1.4953  0.3536 -2.8386
   98SAPS  H20T 9825   0.677   4.611   7.918 -1.5818 -2.2844 -0.3117
   98SAPS   C33 9826   1.646   3.895   6.860 -0.3276 -0.2932 -0.5782
   98SAPS   H3X 9827   1.747   3.860   6.891 -0.3499 -0.6509 -0.9070
   98SAPS   H3Y 9828   1.591   3.821   6.799 -1.0150  0.9038 -1.4352
   98SAPS   C34 9829   1.556   3.945   6.970 -0.3264 -0.0017  0.7060
   98SAPS   H4X 9830   1.524   3.864   7.039 -1.1148 -0.8577 -0.6365
   98SAPS   H4Y 9831   1.458   3.981   6.933 -1.4765 -2.4795  1.1707
   98SAPS   C35 9832   1.621   4.040   7.074  0.7745  1.0080 -0.3840
   98SAPS   H5X 9833   1.653   4.129   7.017  0.1834  0.3999 -1.6750
   98SAPS   H5Y 9834   1.707   3.983   7.117 -0.8057 -1.2920 -0.1603
   98SAPS   C36 9835   1.542   4.067   7.205 -0.3566 -0.3812 -0.2096
   98SAPS   H6X 9836   1.532   3.974   7.265  1.1920 -0.1555  0.4021
   98SAPS   H6Y 9837   1.440   4.108   7.186  0.4088  1.0136 -1.3724
   98SAPS   C37 9838   1.614   4.171   7.294  0.0736 -0.6962 -0.8610
   98SAPS   H7X 9839   1.613   4.269   7.241 -1.4771 -0.4953 -0.4789
   98SAPS   H7Y 9840   1.720   4.140   7.307  0.4874  0.3491 -1.6602
   98SAPS   C38 9841   1.532   4.173   7.416 -0.1775 -0.4182  0.4352
   98SAPS   H8X 9842   1.542   4.082   7.479  0.2292 -1.7466 -1.5014
   98SAPS   H8Y 9843   1.424   4.175   7.392  0.0121  3.0899 -0.3801
   98SAPS   C39 9844   1.581   4.289   7.511  0.1301  0.7442 -0.2693
   98SAPS   H9X 9845   1.546   4.390   7.477  0.8964  1.2041  0.2999
   98SAPS   H9Y 9846   1.691   4.296   7.513  0.2273 -1.0123  3.4155
   98SAPS  C310 9847   1.544   4.263   7.656  0.3836 -0.0282  0.3671
   98SAPS  H10X 9848   1.593   4.330   7.730 -2.3659 -0.0732  2.3150
   98SAPS  H10Y 9849   1.589   4.165   7.684  1.4013  0.1457 -0.6657
   98SAPS  C311 9850   1.395   4.278   7.684 -0.2715 -0.0796 -0.4730
   98SAPS  H11X 9851   1.338   4.209   7.617  1.4051 -0.2787 -1.7207
   98SAPS  H11Y 9852   1.366   4.382   7.659  0.5945  0.4803  0.7925
   98SAPS  C312 9853   1.345   4.259   7.831 -0.0116  0.0516  0.4014
   98SAPS  H12X 9854   1.363   4.160   7.878  0.4173  0.3083  0.7761
   98SAPS  H12Y 9855   1.237   4.285   7.836  0.3842  1.3982  1.9748
   98SAPS  C313 9856   1.408   4.356   7.940 -0.4786  0.6946 -0.1097
   98SAPS  H13X 9857   1.387   4.459   7.904  1.0316  0.4514 -1.7559
   98SAPS  H13Y 9858   1.517   4.337   7.930 -0.0400  2.1148  1.7367
   98SAPS  C314 9859   1.356   4.328   8.081  0.1789 -0.0969  0.6670
   98SAPS  H14X 9860   1.350   4.218   8.095  2.7877 -0.8171 -3.0706
   98SAPS  H14Y 9861   1.252   4.365   8.098  0.3628  0.5274  0.4507
   98SAPS  C315 9862   1.459   4.393   8.179  0.5088  0.1958  0.0460
   98SAPS  H15X 9863   1.485   4.491   8.134  0.7656  0.5191  0.8902
   98SAPS  H15Y 9864   1.557   4.340   8.176  0.0859 -0.5826 -0.0795
   98SAPS  C316 9865   1.401   4.413   8.313  0.5257 -0.0372 -1.0351
   98SAPS  H16X 9866   1.358   4.319   8.353 -1.8690  0.8483 -1.4185
   98SAPS  H16Y 9867   1.323   4.490   8.294 -1.0939 -0.5362  2.9832
   98SAPS  C317 9868   1.508   4.461   8.412 -0.5615  0.1733  0.1184
   98SAPS  H17X 9869   1.534   4.565   8.380 -0.6319 -0.3517 -1.7191
   98SAPS  H17Y 9870   1.596   4.394   8.412 -1.2705 -0.7954 -1.3950
   98SAPS  C318 9871   1.465   4.473   8.557 -0.4499 -0.2147 -1.0143
   98SAPS  H18X 9872   1.362   4.513   8.558 -0.2361  0.3558 -1.3018
   98SAPS  H18Y 9873   1.543   4.525   8.616 -2.2972 -0.1596  1.4433
   98SAPS  H18Z 9874   1.455   4.368   8.593  0.5099  0.7260  2.1136
   99SAPS     N 9875   0.118   1.413   5.974 -0.5211  0.0087 -0.6660
   99SAPS   HN1 9876   0.122   1.506   6.020 -0.6714 -0.7143  0.8174
   99SAPS   HN2 9877   0.196   1.391   5.908  0.8132 -2.3484  1.5964
   99SAPS   HN3 9878   0.031   1.404   5.917 -0.5578  2.7804 -1.1391
   99SAPS   C12 9879   0.134   1.309   6.085 -0.2305  0.7433  0.1773
   99SAPS  H12A 9880   0.034   1.285   6.117 -0.4733  0.0205 -1.0908
   99SAPS   C13 9881   0.198   1.173   6.022  0.2111 -0.0865 -0.6945
   99SAPS  O13A 9882   0.223   1.168   5.901 -0.9826  0.1089  0.1216
   99SAPS  O13B 9883   0.212   1.074   6.099  0.0877 -0.0753 -0.4955
   99SAPS   C11 9884   0.237   1.360   6.195 -0.6426 -0.0114 -0.2852
   99SAPS  H11A 9885   0.252   1.277   6.266 -0.7446  0.7010  0.5819
   99SAPS  H11B 9886   0.187   1.444   6.249  0.7201  0.3443  0.4496
   99SAPS     P 9887   0.501   1.378   6.210  0.4146 -0.0654  0.0011
   99SAPS   O13 9888   0.535   1.239   6.177  0.1754 -0.4155  0.0751
   99SAPS   O14 9889   0.603   1.483   6.180  0.0029 -0.2657 -0.0246
   99SAPS   O12 9890   0.359   1.410   6.135 -0.0658 -0.6563 -0.0195
   99SAPS   O11 9891   0.467   1.378   6.362 -0.6210  0.6375 -0.1246
   99SAPS    C1 9892   0.421   1.494   6.431 -0.1049 -0.8077 -0.3433
   99SAPS    HA 9893   0.420   1.581   6.362 -2.6173 -0.8335 -0.3678
   99SAPS    HB 9894   0.316   1.481   6.464 -0.3414 -0.8204 -1.1044
   99SAPS    C2 9895   0.506   1.531   6.551  0.3210 -0.6100  0.0906
   99SAPS    HS 9896   0.610   1.542   6.513 -0.4172 -0.0450 -1.8291
   99SAPS   O21 9897   0.488   1.429   6.652 -0.4306  0.1455  0.5332
   99SAPS   C21 9898   0.587   1.419   6.744  0.1574 -0.7716  0.7841
   99SAPS   O22 9899   0.696   1.478   6.734  0.1669  0.3960 -0.8666
   99SAPS   C22 9900   0.545   1.340   6.860  0.2843 -0.5433  0.0459
   99SAPS   H2R 9901   0.629   1.334   6.932  0.1460  0.2486  0.2717
   99SAPS   H2S 9902   0.468   1.387   6.924 -0.2543 -1.8786  0.3960
   99SAPS    C3 9903   0.449   1.667   6.606  0.4160  0.0947  0.0089
   99SAPS    HX 9904   0.343   1.645   6.632 -0.2574  2.0367 -0.9590
   99SAPS    HY 9905   0.448   1.742   6.524  0.0461 -0.1358 -0.1968
   99SAPS   O31 9906   0.511   1.719   6.719 -0.1862 -0.8013 -0.6346
   99SAPS   C31 9907   0.636   1.768   6.703  0.1932  0.0949 -0.2785
   99SAPS   O32 9908   0.692   1.772   6.594 -0.6582 -0.1862 -0.0095
   99SAPS   C32 9909   0.706   1.786   6.833  0.5162 -0.1375 -0.2544
   99SAPS   H2X 9910   0.754   1.688   6.853 -1.6240 -0.7549  2.0607
   99SAPS   H2Y 9911   0.630   1.801   6.912 -0.1634 -0.1030 -0.9080
   99SAPS   C23 9912   0.502   1.195   6.813  0.3982 -0.4672 -0.1676
   99SAPS   H3R 9913   0.579   1.142   6.752  0.4116  0.7875 -1.2851
   99SAPS   H3S 9914   0.410   1.207   6.752 -0.4905 -0.4875  1.1460
   99SAPS   C24 9915   0.461   1.110   6.935  0.3095 -0.0474 -0.4298
   99SAPS   H4R 9916   0.441   1.014   6.883  1.5970  0.7017 -2.3737
   99SAPS   H4S 9917   0.368   1.149   6.980 -1.8361 -0.6148 -4.1152
   99SAPS   C25 9918   0.569   1.066   7.031 -0.5836  0.0299  0.4923
   99SAPS   H5R 9919   0.669   1.052   6.988 -0.4005 -2.4088  1.6216
   99SAPS   C26 9920   0.554   1.050   7.162 -0.4731 -0.2007  0.3217
   99SAPS   H6R 9921   0.647   1.033   7.217 -0.6485  1.2620  1.0998
   99SAPS   C27 9922   0.431   1.067   7.245 -0.0810 -0.1377 -0.1039
   99SAPS   H7R 9923   0.458   1.009   7.336 -1.9405  0.2240  0.6899
   99SAPS   H7S 9924   0.339   1.016   7.210  1.7647 -3.2962 -0.5524
   99SAPS   C28 9925   0.408   1.213   7.269 -0.1865 -0.8257 -0.4992
   99SAPS   H8R 9926   0.434   1.288   7.193 -2.1869  0.3898 -0.0246
   99SAPS   C29 9927   0.352   1.267   7.382  0.1916  0.2097  0.3394
   99SAPS   H9R 9928   0.349   1.373   7.410 -0.1149  0.8857 -2.1640
   99SAPS  C210 9929   0.293   1.186   7.492  0.2826 -0.2409  0.1095
   99SAPS  H10R 9930   0.362   1.112   7.537 -0.6238 -0.7315  0.7106
   99SAPS  H10S 9931   0.206   1.130   7.451  1.7339 -0.6252 -2.5417
   99SAPS  C211 9932   0.248   1.267   7.617  0.2266 -0.1619  0.0159
   99SAPS  H11R 9933   0.162   1.334   7.604 -0.3454 -1.3284 -2.4949
   99SAPS  C212 9934   0.295   1.258   7.745  0.2517 -0.4006 -0.1118
   99SAPS  H12R 9935   0.247   1.317   7.825 -1.2715 -2.9075  0.8790
   99SAPS  C213 9936   0.405   1.167   7.792 -0.0248  0.8585  0.6895
   99SAPS  H13R 9937   0.491   1.233   7.816  0.2384  1.2564 -1.2703
   99SAPS  H13S 9938   0.444   1.098   7.715 -2.6878  0.5493 -0.4585
   99SAPS  C214 9939   0.355   1.082   7.905  0.5841  0.0383 -0.2730
   99SAPS  H14R 9940   0.330   0.978   7.880 -2.0373  0.3612  0.8421
   99SAPS  C215 9941   0.345   1.120   8.034 -0.2030 -0.0740  0.2887
   99SAPS  H15R 9942   0.312   1.050   8.113 -3.1039 -2.6007 -2.9829
   99SAPS  C216 9943   0.396   1.253   8.088 -0.0260  0.3890  0.7502
   99SAPS  H16R 9944   0.340   1.340   8.049  1.1159  2.2780  3.2091
   99SAPS  H16S 9945   0.501   1.273   8.057 -0.5509  0.4280 -1.0902
   99SAPS  C217 9946   0.384   1.255   8.244  0.1383  0.4577  0.5890
   99SAPS  H17R 9947   0.405   1.362   8.264 -1.7690  1.8345 -3.9380
   99SAPS  H17S 9948   0.464   1.194   8.290  0.6936 -1.4537 -2.7467
   99SAPS  C218 9949   0.242   1.223   8.301  0.2845  0.3185 -0.2497
   99SAPS  H18R 9950   0.216   1.116   8.282 -0.0998  0.2268  0.7850
   99SAPS  H18S 9951   0.174   1.288   8.242 -0.6617 -1.4180 -1.1024
   99SAPS  C219 9952   0.239   1.259   8.447 -0.1137  0.1242 -0.2578
   99SAPS  H19R 9953   0.260   1.366   8.465  3.0480 -0.4763 -0.1462
   99SAPS  H19S 9954   0.312   1.208   8.514  0.7254  3.1494  1.2034
   99SAPS  C220 9955   0.104   1.217   8.519 -0.4553 -0.4523  0.0104
   99SAPS  H20R 9956   0.095   1.272   8.615 -1.0689 -0.6804  0.0828
   99SAPS  H20S 9957   0.111   1.109   8.546 -0.8219 -0.4247  0.2232
   99SAPS  H20T 9958   0.021   1.222   8.445  0.7795  1.1647 -1.3167
   99SAPS   C33 9959   0.797   1.903   6.838 -0.5933  0.4035  0.1846
   99SAPS   H3X 9960   0.735   1.994   6.820 -0.0886  0.7134  0.0176
   99SAPS   H3Y 9961   0.878   1.893   6.763 -2.4443  1.3769 -2.0282
   99SAPS   C34 9962   0.868   1.905   6.976  0.2885 -0.2283  0.3622
   99SAPS   H4X 9963   0.797   1.931   7.057  1.2919 -0.1101  1.2149
   99SAPS   H4Y 9964   0.946   1.985   6.972 -1.8534  1.8478 -1.4254
   99SAPS   C35 9965   0.935   1.774   7.004  0.8364  0.2027  0.5598
   99SAPS   H5X 9966   0.982   1.732   6.912 -2.9699 -1.8681 -0.5525
   99SAPS   H5Y 9967   0.858   1.697   7.025  0.8411  0.5574  1.8902
   99SAPS   C36 9968   1.033   1.780   7.124  0.2398 -0.3189 -0.6956
   99SAPS   H6X 9969   0.982   1.822   7.213  1.2481 -0.3137 -0.1089
   99SAPS   H6Y 9970   1.118   1.846   7.096  1.4040 -1.0342  1.0267
   99SAPS   C37 9971   1.094   1.642   7.155  0.1465 -0.1545 -0.7111
   99SAPS   H7X 9972   1.166   1.622   7.072 -0.8742 -1.1459 -1.3691
   99SAPS   H7Y 9973   1.024   1.558   7.173  1.2629 -0.9420  0.0070
   99SAPS   C38 9974   1.181   1.654   7.279 -0.3978  0.1254 -1.3208
   99SAPS   H8X 9975   1.263   1.727   7.264  0.3237 -0.3345  0.2687
   99SAPS   H8Y 9976   1.235   1.557   7.273 -0.7989 -0.2845  1.1578
   99SAPS   C39 9977   1.098   1.653   7.408  0.2431 -0.4241 -0.4329
   99SAPS   H9X 9978   1.031   1.565   7.403 -0.9895  0.4282  0.7098
   99SAPS   H9Y 9979   1.034   1.744   7.410  2.0766  0.8959 -0.6033
   99SAPS  C310 9980   1.194   1.634   7.533  0.5310  0.2171  0.3492
   99SAPS  H10X 9981   1.253   1.728   7.536  1.2462 -0.2642  1.5829
   99SAPS  H10Y 9982   1.257   1.544   7.523 -1.2148 -1.0034  0.1042
   99SAPS  C311 9983   1.100   1.619   7.656  1.1125 -0.7082  0.5039
   99SAPS  H11X 9984   1.046   1.522   7.657  2.3200 -1.4144 -0.7323
   99SAPS  H11Y 9985   1.023   1.700   7.656  1.4451 -0.3902  0.9272
   99SAPS  C312 9986   1.182   1.624   7.791 -0.4017  0.4664 -0.1693
   99SAPS  H12X 9987   1.278   1.568   7.782 -0.5990  0.0289  0.3703
   99SAPS  H12Y 9988   1.128   1.577   7.876  0.9846  0.0947  0.5247
   99SAPS  C313 9989   1.223   1.772   7.840  0.6249  0.0256 -0.5192
   99SAPS  H13X 9990   1.136   1.841   7.832  1.4822  0.8264 -3.9309
   99SAPS  H13Y 9991   1.302   1.801   7.767 -0.1912  0.4532 -1.2431
   99SAPS  C314 9992   1.271   1.780   7.988  0.4206 -0.3916  0.0408
   99SAPS  H14X 9993   1.382   1.773   7.986  0.4121 -0.3232 -1.2966
   99SAPS  H14Y 9994   1.237   1.691   8.046 -0.7734  0.5606  0.8303
   99SAPS  C315 9995   1.239   1.914   8.041  0.4316 -1.2180  0.3523
   99SAPS  H15X 9996   1.130   1.934   8.048  0.3616 -1.2179 -0.5595
   99SAPS  H15Y 9997   1.286   1.989   7.973 -0.4874  0.5076  1.5770
   99SAPS  C316 9998   1.296   1.925   8.185 -0.3283  0.5946  0.5313
   99SAPS  H16X 9999   1.381   1.997   8.182  0.6656 -0.6409 -1.9757
   99SAPS  H16Y10000   1.335   1.823   8.204  3.2554  1.5563 -1.1378
   99SAPS  C31710001   1.186   1.962   8.290 -0.0433  0.0261 -0.0086
   99SAPS  H17X10002   1.135   1.872   8.330 -2.9495  2.0117  0.9438
   99SAPS  H17Y10003   1.104   2.020   8.244  1.7189  1.1267 -1.8752
   99SAPS  C31810004   1.226   2.047   8.407  0.2327  1.1871 -0.0530
   99SAPS  H18X10005   1.301   2.123   8.377 -0.1128  1.1018 -1.1695
   99SAPS  H18Y10006   1.282   1.991   8.486  0.9812  0.0067 -1.3884
   99SAPS  H18Z10007   1.142   2.096   8.459 -1.0864 -0.5666 -0.4658
  100SAPS     N10008   3.464   2.952   5.706 -0.2056 -0.3087  0.8511
  100SAPS   HN110009   3.445   2.865   5.759 -0.6974  0.2450  1.6019
  100SAPS   HN210010   3.462   2.944   5.602 -0.0159  2.4391  0.5975
  100SAPS   HN310011   3.551   3.000   5.735 -0.6841  0.3003  1.2839
  100SAPS   C1210012   3.353   3.047   5.734 -1.0732 -0.4966  0.7441
  100SAPS  H12A10013   3.379   3.148   5.705 -2.0410 -0.5863 -0.4774
  100SAPS   C1310014   3.218   3.025   5.673  0.5908 -0.3074 -0.2919
  100SAPS  O13A10015   3.203   2.924   5.600  0.4550  0.0351 -0.0403
  100SAPS  O13B10016   3.123   3.104   5.691  0.0050 -0.0209  0.0483
  100SAPS   C1110017   3.336   3.054   5.887  0.3669  0.2098 -0.7796
  100SAPS  H11A10018   3.281   2.967   5.929  1.5822  0.1754  0.7831
  100SAPS  H11B10019   3.267   3.141   5.896 -2.4677 -2.1101  0.9915
  100SAPS     P10020   3.482   3.179   6.065 -0.0802  0.3957  0.1930
  100SAPS   O1310021   3.599   3.259   6.021 -0.8992  0.3281  0.8972
  100SAPS   O1410022   3.351   3.243   6.094 -0.0082  0.7527 -1.1123
  100SAPS   O1210023   3.455   3.062   5.962  0.0532  0.1540  0.5151
  100SAPS   O1110024   3.517   3.101   6.199 -0.4528 -0.1601  0.2550
  100SAPS    C110025   3.428   3.017   6.265  0.1541 -0.1421 -1.0609
  100SAPS    HA10026   3.351   3.085   6.307  1.5520  0.0600  1.3134
  100SAPS    HB10027   3.381   2.944   6.196 -0.5118 -1.6967  0.9655
  100SAPS    C210028   3.496   2.940   6.378  0.6008  0.1982 -0.0430
  100SAPS    HS10029   3.424   2.892   6.447 -2.7039  4.3001 -0.4490
  100SAPS   O2110030   3.580   3.029   6.458 -0.3442  0.5918  0.3237
  100SAPS   C2110031   3.528   3.084   6.564  0.1605  0.2795  0.2066
  100SAPS   O2210032   3.407   3.078   6.592 -0.2692 -0.5939 -0.4050
  100SAPS   C2210033   3.628   3.171   6.641 -0.1528  0.3591 -0.0975
  100SAPS   H2R10034   3.704   3.199   6.564 -0.0951  0.8755  0.1476
  100SAPS   H2S10035   3.582   3.268   6.668  1.8595  1.0372  0.9794
  100SAPS    C310036   3.598   2.842   6.305  0.0353  0.5478 -0.0622
  100SAPS    HX10037   3.684   2.908   6.281  0.4905  0.8348  2.2102
  100SAPS    HY10038   3.557   2.799   6.211  0.9508 -1.1971  0.3320
  100SAPS   O3110039   3.639   2.741   6.394  0.6562  0.2487  0.2650
  100SAPS   C3110040   3.554   2.633   6.392 -0.2585  0.0397  0.2335
  100SAPS   O3210041   3.447   2.631   6.332 -0.0832  0.0967  0.0522
  100SAPS   C3210042   3.600   2.519   6.483 -0.5236  0.0263 -0.0363
  100SAPS   H2X10043   3.673   2.463   6.421 -1.0418  0.2233 -0.8344
  100SAPS   H2Y10044   3.510   2.457   6.500 -1.2433  1.0305 -0.1114
  100SAPS   C2310045   3.690   3.116   6.768 -0.2949  0.1307  0.3817
  100SAPS   H3R10046   3.767   3.041   6.739  0.4351  0.5995  1.0782
  100SAPS   H3S10047   3.626   3.063   6.841 -0.4363 -0.8116 -0.4203
  100SAPS   C2410048   3.767   3.231   6.849  0.7401  0.5852  0.8169
  100SAPS   H4R10049   3.786   3.311   6.775  0.3819 -0.2217 -0.1557
  100SAPS   H4S10050   3.864   3.196   6.890  0.2774 -0.6203  0.9077
  100SAPS   C2510051   3.682   3.288   6.962 -0.4260  0.3610 -0.0937
  100SAPS   H5R10052   3.632   3.383   6.936  1.6297  2.1254  2.1855
  100SAPS   C2610053   3.680   3.233   7.080 -0.3611  0.9554 -0.6360
  100SAPS   H6R10054   3.622   3.275   7.164  0.3617 -0.0701  0.3840
  100SAPS   C2710055   3.749   3.100   7.130 -0.1537  0.5832 -0.1107
  100SAPS   H7R10056   3.827   3.136   7.200  1.8759 -1.6780 -1.1783
  100SAPS   H7S10057   3.783   3.045   7.040  1.1608  1.6524 -0.2787
  100SAPS   C2810058   3.649   3.005   7.200  0.2204  0.1718  0.1575
  100SAPS   H8R10059   3.631   2.912   7.143 -2.5682  0.1108  1.0173
  100SAPS   C2910060   3.592   3.030   7.326  0.7879 -0.3444 -0.1703
  100SAPS   H9R10061   3.519   2.953   7.355 -0.5435 -0.1405 -2.8344
  100SAPS  C21010062   3.619   3.152   7.408  0.3450  0.1389  0.4397
  100SAPS  H10R10063   3.525   3.181   7.460 -0.8519  2.1869 -2.7033
  100SAPS  H10S10064   3.661   3.240   7.355  5.6546 -0.3200  3.5411
  100SAPS  C21110065   3.721   3.105   7.513 -0.0649 -0.1435  0.0834
  100SAPS  H11R10066   3.731   2.996   7.518  0.0986 -0.3064 -2.9353
  100SAPS  C21210067   3.776   3.189   7.606 -0.2464  0.6285 -0.3240
  100SAPS  H12R10068   3.842   3.142   7.680  1.6158 -0.1002 -2.3841
  100SAPS  C21310069   3.761   3.338   7.608  0.0961  0.2290  0.2829
  100SAPS  H13R10070   3.781   3.380   7.507 -1.9554 -1.0929 -0.6990
  100SAPS  H13S10071   3.836   3.382   7.677  0.5764  0.7465 -0.5714
  100SAPS  C21410072   3.621   3.370   7.652  0.0103 -0.0608 -0.4263
  100SAPS  H14R10073   3.568   3.299   7.718 -0.6527 -0.4950 -1.4101
  100SAPS  C21510074   3.555   3.479   7.615 -0.1255 -0.2736 -0.7351
  100SAPS  H15R10075   3.465   3.501   7.675  0.1365 -1.6398  0.1638
  100SAPS  C21610076   3.598   3.592   7.524 -0.3223  0.3315 -0.2715
  100SAPS  H16R10077   3.527   3.588   7.439 -0.5441  0.3118 -0.0848
  100SAPS  H16S10078   3.701   3.570   7.487 -0.8207  0.5798 -1.8417
  100SAPS  C21710079   3.603   3.728   7.591 -0.4136  0.4012 -0.6604
  100SAPS  H17R10080   3.505   3.767   7.626  0.0079  0.2281  0.7611
  100SAPS  H17S10081   3.639   3.815   7.532  2.0927  0.4207  0.8247
  100SAPS  C21810082   3.692   3.725   7.715 -0.6884  0.7488 -0.2025
  100SAPS  H18R10083   3.761   3.812   7.725 -2.0830  2.1792 -2.3646
  100SAPS  H18S10084   3.752   3.632   7.711 -1.7781 -0.0089  0.8578
  100SAPS  C21910085   3.611   3.723   7.846 -0.3925 -0.1157 -1.0302
  100SAPS  H19R10086   3.614   3.627   7.902 -0.5238 -0.2478 -1.2486
  100SAPS  H19S10087   3.502   3.730   7.822 -0.4867  0.2788 -0.5070
  100SAPS  C22010088   3.661   3.831   7.940 -0.1036 -0.3912 -0.7031
  100SAPS  H20R10089   3.663   3.931   7.891 -0.0196 -0.1753 -0.2629
  100SAPS  H20S10090   3.766   3.812   7.973  1.2513  1.0310 -3.9336
  100SAPS  H20T10091   3.596   3.840   8.030 -0.6910 -1.0379 -1.0607
  100SAPS   C3310092   3.660   2.561   6.619  1.1413 -0.2295 -0.3337
  100SAPS   H3X10093   3.741   2.634   6.599  2.1325 -1.6158 -1.5255
  100SAPS   H3Y10094   3.711   2.478   6.673 -2.4518 -1.2856  1.5948
  100SAPS   C3410095   3.566   2.629   6.717  0.3068  0.3579  0.4339
  100SAPS   H4X10096   3.474   2.569   6.730  0.7798 -0.6758 -0.8549
  100SAPS   H4Y10097   3.534   2.726   6.674 -1.1980  0.4981  1.8411
  100SAPS   C3510098   3.637   2.658   6.850  0.3971 -0.6346  0.5275
  100SAPS   H5X10099   3.581   2.741   6.898  2.1114  0.1295  1.2408
  100SAPS   H5Y10100   3.743   2.684   6.832 -0.7181  1.8445 -3.0393
  100SAPS   C3610101   3.623   2.540   6.952  0.5701 -0.3231  0.6295
  100SAPS   H6X10102   3.679   2.459   6.900 -0.5858  1.2661 -3.2823
  100SAPS   H6Y10103   3.517   2.506   6.960  0.3031  0.2573 -0.3851
  100SAPS   C3710104   3.673   2.578   7.089 -0.2560  0.3231  0.2761
  100SAPS   H7X10105   3.656   2.492   7.157 -1.4787  2.0586  2.2364
  100SAPS   H7Y10106   3.620   2.669   7.126  1.6027  0.9512  1.4540
  100SAPS   C3810107   3.825   2.597   7.098  0.3313 -0.3865 -0.3141
  100SAPS   H8X10108   3.857   2.671   7.021  1.5640  0.4344  0.9536
  100SAPS   H8Y10109   3.879   2.501   7.082  1.1191 -0.1860  0.9963
  100SAPS   C3910110   3.878   2.667   7.228 -0.4991 -0.2262  0.4898
  100SAPS   H9X10111   3.843   2.772   7.222 -1.1714 -0.3710  1.7878
  100SAPS   H9Y10112   3.989   2.675   7.227 -0.3766 -1.7211  0.3787
  100SAPS  C31010113   3.831   2.613   7.365  0.1078 -0.3335  0.2108
  100SAPS  H10X10114   3.888   2.520   7.385  0.1260 -0.0698  1.3957
  100SAPS  H10Y10115   3.724   2.583   7.363 -0.2128  0.8119 -1.2827
  100SAPS  C31110116   3.852   2.712   7.480 -0.1005  0.8835  0.3711
  100SAPS  H11X10117   3.795   2.805   7.461 -2.0240 -0.1031  1.1861
  100SAPS  H11Y10118   3.960   2.738   7.494  0.4534 -0.7581 -0.6611
  100SAPS  C31210119   3.793   2.654   7.615  0.1417  0.0038 -0.4555
  100SAPS  H12X10120   3.846   2.560   7.638  2.6072  1.6689  0.8635
  100SAPS  H12Y10121   3.684   2.634   7.606  0.0570 -0.8902  2.1688
  100SAPS  C31310122   3.815   2.757   7.722 -0.0246 -0.2779  0.5280
  100SAPS  H13X10123   3.745   2.841   7.700 -1.8528 -1.6027  1.1654
  100SAPS  H13Y10124   3.920   2.789   7.739 -0.6988  0.4585  3.7121
  100SAPS  C31410125   3.776   2.710   7.864 -0.3863 -0.7100 -0.5432
  100SAPS  H14X10126   3.855   2.644   7.906  0.5201  1.3066  1.0464
  100SAPS  H14Y10127   3.681   2.653   7.856 -1.6598  1.5295 -2.0054
  100SAPS  C31510128   3.761   2.825   7.966 -0.9552 -0.0860 -0.0997
  100SAPS  H15X10129   3.724   2.767   8.053  1.1965 -0.5197  0.5652
  100SAPS  H15Y10130   3.673   2.872   7.918 -1.1067  1.3185  1.5092
  100SAPS  C31610131   3.880   2.913   8.011  0.5238  0.7456 -0.3923
  100SAPS  H16X10132   3.903   2.970   7.919  2.1535  1.2962  0.3361
  100SAPS  H16Y10133   3.972   2.855   8.035  0.5840  1.0147  0.0331
  100SAPS  C31710134   3.849   3.003   8.132 -0.5197  0.0438 -0.0533
  100SAPS  H17X10135   3.759   3.063   8.108 -0.9189 -1.4550 -2.4626
  100SAPS  H17Y10136   3.929   3.072   8.164  0.2326 -1.3414  1.1584
  100SAPS  C31810137   3.805   2.931   8.251 -0.1267  0.0522 -0.5418
  100SAPS  H18X10138   3.866   2.838   8.253  0.8047  0.6832  0.4648
  100SAPS  H18Y10139   3.697   2.904   8.245 -0.4712  1.4467 -0.6038
  100SAPS  H18Z10140   3.827   2.995   8.338 -0.3900  0.1081 -0.5152
  101OSM      N10141   2.625   3.473  11.129  0.3771 -0.2029 -0.0276
  101OSM    C1510142   2.554   3.533  11.249 -0.0658 -0.6657 -0.1102
  101OSM   H15A10143   2.617   3.530  11.337  1.4362 -0.9426 -1.1721
  101OSM   H15B10144   2.458   3.487  11.267 -1.8917  2.8969 -0.3108
  101OSM   H15C10145   2.530   3.637  11.234  1.0208 -0.4490 -0.4211
  101OSM    C1410146   2.764   3.538  11.119  0.1361 -0.0921  0.7294
  101OSM   H14A10147   2.818   3.508  11.208 -0.3151  0.4277  1.1839
  101OSM   H14B10148   2.756   3.646  11.122 -2.8618 -0.3057  2.8420
  101OSM   H14C10149   2.810   3.511  11.026 -1.8803  0.0346 -0.3321
  101OSM    C1310150   2.649   3.328  11.157  0.5365 -0.9544  0.5324
  101OSM   H13A10151   2.561   3.275  11.192 -0.7944  0.7671 -0.1205
  101OSM   H13B10152   2.720   3.324  11.238 -0.1656  1.2924  1.3008
  101OSM   H13C10153   2.679   3.299  11.058 -0.4667  0.2924 -0.1483
  101OSM    C1210154   2.544   3.477  11.000  0.3627  0.4695  0.2029
  101OSM   H12A10155   2.547   3.577  10.958  0.6631  0.7626  0.9063
  101OSM   H12B10156   2.446   3.441  11.026 -0.1288  0.5936 -1.4262
  101OSM    C1110157   2.601   3.403  10.878  0.0412  0.7216 -0.5217
  101OSM   H11A10158   2.532   3.406  10.791  0.8617 -1.8300 -1.3052
  101OSM   H11B10159   2.591   3.294  10.898 -1.7800  0.7897 -0.9084
  101OSM      P10160   2.735   3.585  10.754 -0.1019  0.0534  0.3801
  101OSM    O1310161   2.676   3.697  10.824  0.0812  0.0489 -0.3940
  101OSM    O1410162   2.874   3.614  10.713  0.3324 -0.0398 -0.5516
  101OSM    O1110163   2.646   3.556  10.628  0.0174 -0.0235  0.5248
  101OSM    O1210164   2.734   3.449  10.840  0.3956  0.7332  0.1700
  101OSM    C1S10165   2.584   3.652  10.546  0.1049 -0.4321  0.0423
  101OSM    H1S10166   2.561   3.745  10.603 -2.3809 -0.1806 -1.2894
  101OSM    H1T10167   2.481   3.614  10.533 -0.2720 -0.3443  2.5269
  101OSM     NF10168   2.586   3.788  10.335  0.9927  0.5015 -0.4148
  101OSM    HNF10169   2.552   3.751  10.248  1.9893  0.7459 -0.9167
  101OSM    C2S10170   2.653   3.685  10.415  0.2407  0.1833 -0.2935
  101OSM    H2S10171   2.751   3.730  10.442 -0.0194  1.7167 -1.7807
  101OSM    C3S10172   2.674   3.549  10.332 -0.5936 -0.0210  0.7517
  101OSM    H3S10173   2.578   3.500  10.306  0.9641 -1.8860 -1.8141
  101OSM     O310174   2.738   3.456  10.411  0.3645 -0.8262  0.0223
  101OSM    HO310175   2.718   3.481  10.501 -0.4984 -1.7404  0.0930
  101OSM    C4S10176   2.747   3.576  10.201  0.5418  0.1702 -0.1784
  101OSM    H4S10177   2.679   3.586  10.115  1.4874 -0.6125 -1.0268
  101OSM    C5S10178   2.878   3.586  10.183 -1.1384  0.0420 -0.7764
  101OSM    H5S10179   2.947   3.562  10.264 -0.4005 -0.5668 -1.5783
  101OSM    C6S10180   2.961   3.624  10.065  0.3907  0.0170  0.1701
  101OSM    H6S10181   3.040   3.546  10.061  0.5795  0.2788 -1.5829
  101OSM    H6T10182   3.010   3.719  10.095  0.3813  0.5872 -1.5649
  101OSM    C7S10183   2.887   3.648   9.936 -0.2910  0.4410 -0.0750
  101OSM    H7S10184   2.808   3.726   9.946 -1.0769 -0.5477  1.7640
  101OSM    H7T10185   2.840   3.555   9.898  2.7230 -0.5154 -1.5985
  101OSM    C8S10186   2.965   3.706   9.823 -0.6360  0.1665 -0.0289
  101OSM    H8S10187   3.049   3.640   9.792  0.3184  0.7908  1.1420
  101OSM    H8T10188   2.993   3.808   9.857 -0.5331 -0.1353  0.8045
  101OSM    C9S10189   2.882   3.737   9.695 -0.6105  0.1753 -0.0530
  101OSM    H9S10190   2.954   3.783   9.624 -0.6359 -0.0073 -0.1984
  101OSM    H9T10191   2.806   3.813   9.724  0.0837  1.3655 -1.2863
  101OSM   C10S10192   2.796   3.630   9.626  0.3689 -0.1678  0.2863
  101OSM   H10S10193   2.736   3.586   9.709 -0.2070  1.1482  0.5830
  101OSM   H10T10194   2.869   3.557   9.585 -0.8335 -0.2569 -1.7701
  101OSM   C11S10195   2.704   3.668   9.511  0.1106 -0.1100  0.4191
  101OSM   H11S10196   2.633   3.749   9.535  1.1136  0.1002  2.8151
  101OSM   H11T10197   2.636   3.583   9.486  1.0702 -0.1159 -2.3531
  101OSM   C12S10198   2.769   3.706   9.372 -0.2044 -0.4539  0.2730
  101OSM   H12S10199   2.839   3.627   9.337  0.7221  0.3418  0.3145
  101OSM   H12T10200   2.832   3.797   9.384  1.9722 -2.0054  0.8685
  101OSM   C13S10201   2.663   3.709   9.258  0.1302  0.9654 -0.3043
  101OSM   H13S10202   2.584   3.782   9.285 -0.0812  0.5467  0.2375
  101OSM   H13T10203   2.615   3.609   9.250  1.8933 -0.0087  0.9964
  101OSM   C14S10204   2.711   3.759   9.123 -0.0046  0.1602 -0.2453
  101OSM   H14S10205   2.794   3.690   9.093  0.1329 -0.0333  0.5809
  101OSM   H14T10206   2.752   3.862   9.134 -0.7179  0.3157  0.9315
  101OSM   C15S10207   2.603   3.746   9.010 -1.2753  0.3226  0.3271
  101OSM   H15S10208   2.630   3.812   8.925 -0.9121 -0.8251 -0.4729
  101OSM   H15T10209   2.509   3.789   9.050 -1.8460 -2.2746  1.9283
  101OSM   C16S10210   2.571   3.607   8.961 -0.4025 -0.1024  0.4865
  101OSM   H16S10211   2.487   3.574   9.027 -1.7973 -0.1810 -1.2983
  101OSM   H16T10212   2.654   3.535   8.978 -0.8631 -0.8059 -0.2183
  101OSM   C17S10213   2.525   3.606   8.813  0.4012 -0.3772 -0.1550
  101OSM   H17S10214   2.520   3.508   8.762  0.8641  0.3532 -1.6405
  101OSM   H17T10215   2.604   3.652   8.751  1.0180 -1.0881  0.1036
  101OSM   C18S10216   2.395   3.683   8.785 -0.0759  0.5326 -0.0658
  101OSM   H18S10217   2.318   3.622   8.838  1.5588 -0.4301  1.2360
  101OSM   H18T10218   2.381   3.681   8.675 -3.2757  2.5432  0.2216
  101OSM   H18U10219   2.397   3.788   8.822 -1.3411  0.6493 -0.2788
  101OSM    C1F10220   2.563   3.915  10.377  0.0743 -0.2614  0.1540
  101OSM     OF10221   2.611   3.961  10.482  0.1356  0.0527  0.7068
  101OSM    C2F10222   2.469   3.998  10.285 -0.0506  0.1634 -0.0241
  101OSM    H2F10223   2.365   3.958  10.276 -0.4949  0.7087  2.2871
  101OSM    H2G10224   2.519   3.987  10.187  1.2502 -1.0737  0.7572
  101OSM    C3F10225   2.466   4.146  10.307  0.6964  0.3243  0.3165
  101OSM    H3F10226   2.559   4.199  10.277 -1.0344  3.9970  1.1459
  101OSM    H3G10227   2.452   4.151  10.417  3.2142 -1.4526  0.7534
  101OSM    C4F10228   2.340   4.212  10.248 -0.2445  0.2847 -0.2627
  101OSM    H4F10229   2.350   4.318  10.278  1.9832  0.1518 -0.4380
  101OSM    H4G10230   2.252   4.156  10.287  0.8197 -0.5147  1.0607
  101OSM    C5F10231   2.332   4.210  10.092  0.4464  0.0626  0.3951
  101OSM    H5F10232   2.340   4.104  10.062 -2.2821 -0.5928  1.7868
  101OSM    H5G10233   2.419   4.263  10.047  0.2617  0.3893  0.4178
  101OSM    C6F10234   2.210   4.271  10.032  1.0635  0.1212 -0.7060
  101OSM    H6F10235   2.207   4.382  10.041 -1.2844  0.0761 -0.6810
  101OSM    H6G10236   2.121   4.241  10.091  1.6690  0.7943  0.5725
  101OSM    C7F10237   2.197   4.222   9.888  0.2837 -0.0867 -0.5518
  101OSM    H7F10238   2.181   4.112   9.890 -2.1670  0.2793  2.0596
  101OSM    H7G10239   2.277   4.246   9.815  1.2492  1.6298  1.0569
  101OSM    C8F10240   2.050   4.275   9.834 -0.3624 -0.1064 -0.7320
  101OSM    H8F10241   1.974   4.254   9.913  3.4270 -3.0554  2.3302
  101OSM    H8G10242   2.012   4.213   9.750 -0.0328 -1.1905 -0.0878
  101OSM    C9F10243   2.059   4.422   9.797  0.1440 -0.8221  1.3250
  101OSM    H9F10244   2.047   4.484   9.887  1.2663  2.3210 -0.5928
  101OSM   C10F10245   2.085   4.469   9.670 -0.0862  0.4598 -0.5449
  101OSM   H10F10246   2.113   4.575   9.660  2.7806 -0.1928  0.3609
  101OSM   C11F10247   2.108   4.385   9.544 -0.6133 -0.6885 -0.2285
  101OSM   H11F10248   2.116   4.278   9.572 -0.5831 -0.3084  1.2095
  101OSM   H11G10249   2.212   4.404   9.511 -1.0033  2.7339  0.3094
  101OSM   C12F10250   2.005   4.412   9.435 -0.8352 -0.1592  0.0733
  101OSM   H12F10251   1.902   4.399   9.474 -0.5279  1.6512  1.5699
  101OSM   H12G10252   2.005   4.335   9.355 -3.3206  0.8860 -1.0014
  101OSM   C13F10253   2.026   4.555   9.370  0.6994 -0.4171 -0.2470
  101OSM   H13F10254   2.136   4.568   9.360  0.4009  1.2922 -1.4788
  101OSM   H13G10255   2.003   4.647   9.428 -0.2686 -1.7201  1.4701
  101OSM   C14F10256   1.966   4.568   9.225  0.5291 -0.2890 -0.6009
  101OSM   H14F10257   1.965   4.675   9.194  2.2874 -0.0431  0.1104
  101OSM   H14G10258   1.858   4.544   9.232  0.3905  0.1553 -1.1611
  101OSM   C15F10259   2.019   4.492   9.110 -0.2585  0.5343  0.7623
  101OSM   H15F10260   2.054   4.394   9.151 -0.4181 -0.2625 -0.9460
  101OSM   H15G10261   2.105   4.551   9.071 -0.2107 -0.5217 -0.7747
  101OSM   C16F10262   1.914   4.469   8.995  0.0638 -0.3607  0.2254
  101OSM   H16F10263   1.842   4.403   9.047  2.5622 -2.8181  0.7059
  101OSM   H16G10264   1.966   4.423   8.908  0.0217  0.0456 -0.0190
  101OSM   C17F10265   1.863   4.604   8.938 -0.0665 -0.5922  0.3200
  101OSM   H17F10266   1.943   4.669   8.899  1.0382 -0.9369  1.9630
  101OSM   H17G10267   1.799   4.663   9.007 -0.7308 -0.0527 -0.7349
  101OSM   C18F10268   1.786   4.576   8.808 -0.4230  0.5616  0.2662
  101OSM   H18F10269   1.719   4.489   8.825 -1.0997  1.4213  2.1210
  101OSM   H18G10270   1.851   4.544   8.724 -1.7121 -1.1436 -0.1138
  101OSM   H18H10271   1.737   4.667   8.768 -2.7439 -0.6029  0.4117
  102OSM      N10272   2.016   3.158  10.892  0.3026 -0.0842 -0.0703
  102OSM    C1510273   1.985   3.187  11.039 -0.2005  0.0566  0.6447
  102OSM   H15A10274   1.984   3.095  11.095 -0.4012 -0.3875 -0.0845
  102OSM   H15B10275   1.886   3.231  11.050  0.7044  2.8987 -1.9034
  102OSM   H15C10276   2.061   3.253  11.079  0.7962 -0.6754 -0.0439
  102OSM    C1410277   2.120   3.056  10.879 -0.1680 -0.1563  0.1499
  102OSM   H14A10278   2.117   3.032  10.774  0.6538  0.7989 -0.1050
  102OSM   H14B10279   2.096   2.962  10.926 -0.2345 -1.8321 -3.0961
  102OSM   H14C10280   2.218   3.093  10.905 -1.0473  0.6611  2.4099
  102OSM    C1310281   1.882   3.105  10.855 -0.3752 -0.0234  0.2724
  102OSM   H13A10282   1.869   3.077  10.751  3.7542 -0.3024 -0.2887
  102OSM   H13B10283   1.803   3.173  10.880  0.2570 -0.2655  3.0560
  102OSM   H13C10284   1.857   3.016  10.910  1.5826 -0.9576 -0.2906
  102OSM    C1210285   2.037   3.288  10.819  0.0288 -0.1824  0.0494
  102OSM   H12A10286   2.131   3.327  10.856 -0.1403  0.0265  0.2623
  102OSM   H12B10287   1.954   3.354  10.840  0.9655  0.8582  0.5380
  102OSM    C1110288   2.048   3.291  10.664 -0.0251 -0.3061 -0.2823
  102OSM   H11A10289   2.030   3.393  10.624 -1.0724 -0.8609 -1.2381
  102OSM   H11B10290   1.967   3.230  10.619  0.1276 -1.1406  0.5651
  102OSM      P10291   2.297   3.332  10.599 -0.0131  0.0573  0.2487
  102OSM    O1310292   2.271   3.465  10.654 -0.5281  0.2403 -0.0494
  102OSM    O1410293   2.420   3.258  10.639  0.6088 -0.0437  0.1683
  102OSM    O1110294   2.299   3.346  10.435 -0.1990  0.0233 -0.1134
  102OSM    O1210295   2.175   3.238  10.628  0.2917 -0.4680  1.2442
  102OSM    C1S10296   2.210   3.436  10.372  0.3657  0.6425  0.1195
  102OSM    H1S10297   2.237   3.542  10.393  2.1647  0.4360 -1.0929
  102OSM    H1T10298   2.112   3.431  10.425  1.3753 -2.6221  1.8207
  102OSM     NF10299   2.074   3.503  10.175  0.0187  0.0176  0.1227
  102OSM    HNF10300   1.980   3.472  10.163 -0.7308  2.7307 -1.4750
  102OSM    C2S10301   2.182   3.416  10.215  0.2328 -0.6040 -0.4918
  102OSM    H2S10302   2.274   3.454  10.165 -0.5407  1.6181 -0.2582
  102OSM    C3S10303   2.148   3.269  10.189  0.1638  0.9167  0.3233
  102OSM    H3S10304   2.067   3.244  10.261  0.5118 -1.3048 -0.0183
  102OSM     O310305   2.251   3.181  10.234  0.3277  0.4726  0.8018
  102OSM    HO310306   2.278   3.214  10.320 -1.8154 -3.3177  3.0944
  102OSM    C4S10307   2.111   3.248  10.046 -0.1995 -0.2069 -0.2164
  102OSM    H4S10308   2.008   3.285  10.041 -0.1939  0.2167  1.9598
  102OSM    C5S10309   2.191   3.204   9.947  0.0520 -0.6176  0.0399
  102OSM    H5S10310   2.299   3.190   9.965  0.0976 -2.1425 -1.2856
  102OSM    C6S10311   2.143   3.174   9.805 -0.2393  0.3539 -0.4665
  102OSM    H6S10312   2.209   3.227   9.733  0.2427 -1.6499 -1.5099
  102OSM    H6T10313   2.036   3.200   9.797 -1.1820 -3.0296  0.4198
  102OSM    C7S10314   2.159   3.023   9.779  0.7682  0.9590  0.6779
  102OSM    H7S10315   2.102   2.971   9.859  0.4604  2.5860  1.5327
  102OSM    H7T10316   2.265   3.000   9.804  0.5378  0.9405  1.6610
  102OSM    C8S10317   2.130   2.978   9.639 -0.0481 -0.6055  0.1873
  102OSM    H8S10318   2.020   2.974   9.622 -0.2312  1.8043  0.7514
  102OSM    H8T10319   2.179   2.879   9.626  2.7330  0.8354 -0.6628
  102OSM    C9S10320   2.193   3.063   9.526  0.7107 -0.2785  0.6063
  102OSM    H9S10321   2.301   3.079   9.544  0.8880 -2.6420  1.8831
  102OSM    H9T10322   2.141   3.161   9.518 -1.6886 -1.6022 -0.5545
  102OSM   C10S10323   2.172   2.999   9.390 -0.2768 -0.4365 -0.1508
  102OSM   H10S10324   2.201   2.893   9.380  1.4009 -0.0331  0.2660
  102OSM   H10T10325   2.240   3.058   9.324 -1.1266  2.3673  1.3984
  102OSM   C11S10326   2.024   3.014   9.340 -0.3809 -0.0766 -0.7001
  102OSM   H11S10327   1.984   3.113   9.370  0.8086  0.3226 -0.3875
  102OSM   H11T10328   1.962   2.937   9.389  2.3333 -2.7878 -1.4161
  102OSM   C12S10329   2.002   2.995   9.188  0.1503  0.7809  0.4916
  102OSM   H12S10330   2.048   3.078   9.130  0.4424  0.4945  0.3227
  102OSM   H12T10331   1.893   2.979   9.170  0.6067 -1.4068 -0.3644
  102OSM   C13S10332   2.071   2.865   9.130 -0.3151 -0.5233 -0.7684
  102OSM   H13S10333   2.035   2.781   9.194  3.0713 -1.4855  0.0073
  102OSM   H13T10334   2.182   2.873   9.134 -0.3501  0.0027 -0.9120
  102OSM   C14S10335   2.027   2.835   8.987 -0.6474 -0.2165  0.0829
  102OSM   H14S10336   1.917   2.821   8.987 -0.8186  1.0992  0.8946
  102OSM   H14T10337   2.075   2.743   8.946  2.7246  1.2677  0.5138
  102OSM   C15S10338   2.063   2.941   8.884 -0.2070  0.2186 -0.4349
  102OSM   H15S10339   2.172   2.928   8.867 -0.3911 -1.8529 -0.2073
  102OSM   H15T10340   2.046   3.046   8.914 -0.1758  0.1072 -0.0267
  102OSM   C16S10341   1.985   2.939   8.755  0.3670 -0.1169 -0.5421
  102OSM   H16S10342   1.876   2.933   8.773  0.6598 -1.6223  0.8968
  102OSM   H16T10343   2.006   2.848   8.695 -1.8197 -1.4108  0.6088
  102OSM   C17S10344   2.021   3.053   8.656 -0.1439 -0.2608 -0.4928
  102OSM   H17S10345   2.132   3.053   8.652  0.0212  0.6767  2.7251
  102OSM   H17T10346   1.995   3.151   8.702  0.6216 -0.1925 -0.2098
  102OSM   C18S10347   1.970   3.039   8.521 -0.3009  0.2812 -0.1325
  102OSM   H18S10348   1.953   3.138   8.473  0.0112  1.2999  1.8370
  102OSM   H18T10349   1.873   2.986   8.529 -1.1387  2.0087  1.4850
  102OSM   H18U10350   2.032   2.969   8.460 -1.3231  0.9571 -2.0054
  102OSM    C1F10351   2.067   3.639  10.180 -0.6120  1.0252 -0.3207
  102OSM     OF10352   2.173   3.702  10.183  0.1345 -0.3292 -0.3671
  102OSM    C2F10353   1.932   3.708  10.182  0.4504 -0.1261 -0.7607
  102OSM    H2F10354   1.887   3.702  10.284 -0.9533  0.5445 -1.3257
  102OSM    H2G10355   1.870   3.653  10.108 -0.1394 -0.5609  0.0497
  102OSM    C3F10356   1.923   3.860  10.128  0.4261 -0.5511 -0.0727
  102OSM    H3F10357   1.994   3.919  10.190 -1.3756  2.2705 -0.6477
  102OSM    H3G10358   1.818   3.891  10.146  0.8988  0.8345  0.3166
  102OSM    C4F10359   1.961   3.886   9.983  0.0415  0.3348 -0.4706
  102OSM    H4F10360   2.069   3.858   9.989  0.3177  1.4111 -0.3917
  102OSM    H4G10361   1.957   3.996   9.968  1.0797  0.6466  1.3993
  102OSM    C5F10362   1.880   3.810   9.871  0.1271 -0.2960  0.6979
  102OSM    H5F10363   1.773   3.832   9.890  0.3532  2.4036 -0.8869
  102OSM    H5G10364   1.902   3.703   9.851  0.2680 -0.9223  4.0127
  102OSM    C6F10365   1.906   3.888   9.737 -0.8345 -0.2891  0.0778
  102OSM    H6F10366   2.010   3.874   9.698 -0.2685  0.9559  1.1081
  102OSM    H6G10367   1.874   3.994   9.746  0.4260  0.0952  0.1328
  102OSM    C7F10368   1.822   3.835   9.621  0.1238 -0.3680  0.2927
  102OSM    H7F10369   1.715   3.844   9.652  0.1585  0.8170  0.1155
  102OSM    H7G10370   1.845   3.728   9.605  2.0635  0.5497 -3.6817
  102OSM    C8F10371   1.854   3.896   9.489  0.2642  0.3231  0.4439
  102OSM    H8F10372   1.963   3.877   9.480  0.5345  0.6653  2.8701
  102OSM    H8G10373   1.853   4.007   9.496 -2.0046  0.4335 -1.0128
  102OSM    C9F10374   1.782   3.842   9.367  0.2497 -0.1553  0.2789
  102OSM    H9F10375   1.735   3.743   9.376 -1.4940  0.6634  0.3374
  102OSM   C10F10376   1.788   3.891   9.245  0.4087 -0.2348  0.3862
  102OSM   H10F10377   1.724   3.852   9.164  2.7267 -0.3254 -1.4477
  102OSM   C11F10378   1.864   4.017   9.212  0.2055 -0.3102  0.1485
  102OSM   H11F10379   1.914   4.001   9.114 -1.4101 -0.5331 -0.6588
  102OSM   H11G10380   1.953   4.029   9.277  0.4877  0.7298 -0.4227
  102OSM   C12F10381   1.784   4.145   9.208  0.0960 -0.1144  0.4193
  102OSM   H12F10382   1.846   4.235   9.190 -1.4044  0.9788  0.6322
  102OSM   H12G10383   1.740   4.174   9.306  2.2391  2.1396  0.7425
  102OSM   C13F10384   1.671   4.152   9.104  1.0247  0.3246  0.9263
  102OSM   H13F10385   1.601   4.224   9.152 -1.4242 -0.5649 -1.2259
  102OSM   H13G10386   1.612   4.059   9.114  1.8099 -0.2031  0.6403
  102OSM   C14F10387   1.698   4.178   8.958  0.0799 -0.6823 -0.2579
  102OSM   H14F10388   1.797   4.131   8.939 -0.0826 -1.7309  1.3799
  102OSM   H14G10389   1.704   4.288   8.941 -1.1184 -0.3218  1.5628
  102OSM   C15F10390   1.580   4.126   8.876  0.0927 -0.2675  0.4224
  102OSM   H15F10391   1.487   4.163   8.926 -0.0812  0.6230 -0.5474
  102OSM   H15G10392   1.583   4.016   8.881 -0.3644 -0.3982 -1.7803
  102OSM   C16F10393   1.596   4.175   8.727  0.3200  1.1342 -0.5965
  102OSM   H16F10394   1.696   4.153   8.685  0.7013  1.0340  0.3538
  102OSM   H16G10395   1.568   4.282   8.714  2.1389  1.4906 -1.7482
  102OSM   C17F10396   1.516   4.077   8.640 -0.0612  0.4003 -0.8378
  102OSM   H17F10397   1.413   4.104   8.670 -0.1640 -2.1344  1.2513
  102OSM   H17G10398   1.536   3.976   8.681  0.9570  0.5862 -0.8747
  102OSM   C18F10399   1.533   4.081   8.489 -0.8936 -0.3208 -1.1613
  102OSM   H18F10400   1.446   4.027   8.445 -2.2658 -0.0063  1.0770
  102OSM   H18G10401   1.631   4.039   8.457  0.0621  0.8486  0.1631
  102OSM   H18H10402   1.537   4.180   8.440  1.4431 -0.2939 -0.9721
  103OSM      N10403   3.252   5.347  10.870 -0.2515  0.3216 -0.3237
  103OSM    C1510404   3.223   5.292  10.735 -0.4469  0.1053 -0.4226
  103OSM   H15A10405   3.123   5.254  10.726  0.5883 -3.2221  1.3297
  103OSM   H15B10406   3.292   5.212  10.713  2.0319  2.0826 -0.0552
  103OSM   H15C10407   3.245   5.372  10.666 -0.7171  1.4401  1.0193
  103OSM    C1410408   3.213   5.246  10.973 -0.8249  0.2237 -0.0384
  103OSM   H14A10409   3.276   5.159  10.964  0.6440  1.4008 -1.4713
  103OSM   H14B10410   3.117   5.200  10.958  0.7973 -2.6977 -1.7927
  103OSM   H14C10411   3.210   5.281  11.075 -0.1222  0.2358 -0.0205
  103OSM    C1310412   3.404   5.386  10.881  1.4680  0.5441 -0.1890
  103OSM   H13A10413   3.432   5.435  10.973  0.5220 -3.3800  2.2964
  103OSM   H13B10414   3.429   5.447  10.795 -2.2071 -0.0108 -1.7176
  103OSM   H13C10415   3.460   5.294  10.884  0.5752  0.0346  1.4498
  103OSM    C1210416   3.169   5.473  10.883  0.1048 -0.5054 -0.6899
  103OSM   H12A10417   3.066   5.443  10.874 -0.4332  0.8577  0.6343
  103OSM   H12B10418   3.198   5.550  10.812  3.8005 -2.2909 -1.2628
  103OSM    C1110419   3.167   5.556  11.022 -0.5684  0.2538  0.2021
  103OSM   H11A10420   3.131   5.480  11.095  0.1936 -0.0481  0.2681
  103OSM   H11B10421   3.092   5.638  11.028  0.0094  0.8229 -0.1933
  103OSM      P10422   3.346   5.740  11.053 -0.4113  0.2168  0.0296
  103OSM    O1310423   3.237   5.825  11.107  0.1700 -0.2554  0.4459
  103OSM    O1410424   3.470   5.754  11.116  0.0411 -0.5700 -0.4145
  103OSM    O1110425   3.350   5.749  10.897  0.6211  0.5507  0.0428
  103OSM    O1210426   3.296   5.591  11.076 -0.1922 -0.0554 -0.4392
  103OSM    C1S10427   3.326   5.863  10.822  0.1206 -0.0905 -0.3147
  103OSM    H1S10428   3.391   5.948  10.852 -0.7571  1.5709 -2.9466
  103OSM    H1T10429   3.222   5.897  10.839  0.2017 -1.1045  2.5693
  103OSM     NF10430   3.289   5.972  10.605  0.3993  0.1857 -0.4937
  103OSM    HNF10431   3.207   5.967  10.548 -0.5448 -1.4479  0.9739
  103OSM    C2S10432   3.344   5.850  10.664 -0.1129 -0.0969 -0.3044
  103OSM    H2S10433   3.452   5.848  10.636 -0.2808 -1.6591 -0.8542
  103OSM    C3S10434   3.279   5.717  10.617  0.2932 -1.4955  0.1715
  103OSM    H3S10435   3.180   5.729  10.667  1.2890  3.4664  1.2184
  103OSM     O310436   3.350   5.604  10.668 -0.0235  0.1617 -0.3233
  103OSM    HO310437   3.394   5.638  10.745 -2.4256  0.6659  0.8745
  103OSM    C4S10438   3.279   5.709  10.470  0.1085  0.2205 -0.1813
  103OSM    H4S10439   3.383   5.717  10.435  0.5471 -0.4834  0.9489
  103OSM    C5S10440   3.177   5.701  10.379 -0.8671 -0.4423  0.2658
  103OSM    H5S10441   3.070   5.697  10.404 -0.9843 -2.6977 -0.4980
  103OSM    C6S10442   3.196   5.686  10.235 -0.2284  0.0500 -0.1699
  103OSM    H6S10443   3.161   5.585  10.205  0.6806 -0.9251  1.9230
  103OSM    H6T10444   3.304   5.696  10.211  0.1272 -0.5766  1.1364
  103OSM    C7S10445   3.127   5.786  10.143  0.4002 -0.3105  1.3684
  103OSM    H7S10446   3.131   5.887  10.188  1.2539  2.1266 -3.8616
  103OSM    H7T10447   3.020   5.761  10.123  0.6676  0.8240 -1.6970
  103OSM    C8S10448   3.196   5.795  10.006  0.0110  0.1077  0.3375
  103OSM    H8S10449   3.305   5.778  10.012 -0.0839 -1.2646 -1.3830
  103OSM    H8T10450   3.163   5.892   9.962  0.7955  0.1576 -0.1367
  103OSM    C9S10451   3.135   5.689   9.915  0.0150 -0.3704  0.2945
  103OSM    H9S10452   3.026   5.704   9.901 -0.0549 -0.5442  0.6363
  103OSM    H9T10453   3.164   5.591   9.960 -0.0312 -0.7385 -0.4708
  103OSM   C10S10454   3.202   5.691   9.774  0.1661  0.0825  1.0464
  103OSM   H10S10455   3.278   5.609   9.776 -2.6685 -2.6574  1.9572
  103OSM   H10T10456   3.247   5.788   9.747 -1.3094  0.3958 -0.3906
  103OSM   C11S10457   3.107   5.652   9.667  0.5820  0.5251 -0.5088
  103OSM   H11S10458   3.028   5.729   9.669  0.5308  0.4467  0.6986
  103OSM   H11T10459   3.052   5.562   9.703  0.2833  0.5537 -0.8955
  103OSM   C12S10460   3.178   5.640   9.533 -0.3116 -0.5685  0.2042
  103OSM   H12S10461   3.285   5.613   9.542 -0.3880 -0.8698  0.2131
  103OSM   H12T10462   3.163   5.743   9.495  0.4710  0.0646  1.5677
  103OSM   C13S10463   3.125   5.519   9.454 -0.7832  0.2484 -0.0143
  103OSM   H13S10464   3.015   5.526   9.437 -0.5481  3.0197 -0.5651
  103OSM   H13T10465   3.159   5.420   9.491 -1.8680 -0.4836 -0.9001
  103OSM   C14S10466   3.182   5.520   9.305 -0.4355  0.2430  0.1362
  103OSM   H14S10467   3.163   5.418   9.266  1.8542  0.3010 -1.2123
  103OSM   H14T10468   3.293   5.532   9.297 -0.5357  1.1347 -0.0124
  103OSM   C15S10469   3.107   5.629   9.210  0.1492 -0.2852 -1.0896
  103OSM   H15S10470   3.125   5.733   9.244  1.1651 -1.2209  1.3075
  103OSM   H15T10471   2.999   5.602   9.221  0.2612 -0.5361 -0.5786
  103OSM   C16S10472   3.158   5.622   9.066 -1.1961  0.3783  0.4640
  103OSM   H16S10473   3.145   5.519   9.025  0.5683 -0.2497  1.4024
  103OSM   H16T10474   3.268   5.639   9.069 -1.0586  0.8388 -3.4542
  103OSM   C17S10475   3.092   5.733   8.978  0.4458 -0.0797  0.9510
  103OSM   H17S10476   3.108   5.832   9.024 -0.8977  0.0456  1.1868
  103OSM   H17T10477   2.982   5.715   8.973  0.5398 -0.0991 -2.1131
  103OSM   C18S10478   3.152   5.733   8.844 -0.0013 -0.6276 -0.1564
  103OSM   H18S10479   3.127   5.634   8.801  3.0596 -2.2481  1.6550
  103OSM   H18T10480   3.262   5.745   8.848 -0.2586  1.5787  1.1665
  103OSM   H18U10481   3.112   5.813   8.777  0.4803 -0.1823  0.0849
  103OSM    C1F10482   3.341   6.096  10.620  0.3217 -0.0976 -0.3291
  103OSM     OF10483   3.456   6.106  10.658  0.1856  0.1141  0.4389
  103OSM    C2F10484   3.246   6.210  10.600 -0.9129  0.1553  0.4342
  103OSM    H2F10485   3.249   6.266  10.696 -0.6339 -0.2526  0.6630
  103OSM    H2G10486   3.142   6.170  10.597 -0.4710 -0.9396 -0.7264
  103OSM    C3F10487   3.284   6.300  10.478  0.1707  0.9454  0.1528
  103OSM    H3F10488   3.379   6.356  10.491  0.1264  0.3953  3.0860
  103OSM    H3G10489   3.204   6.375  10.457 -0.6144 -0.4008 -1.8132
  103OSM    C4F10490   3.292   6.210  10.350  0.0380 -0.2095 -0.2907
  103OSM    H4F10491   3.199   6.151  10.349 -0.7491  0.9174  1.8906
  103OSM    H4G10492   3.368   6.130  10.362  2.2254  1.9208  0.5416
  103OSM    C5F10493   3.328   6.295  10.222 -0.9971 -0.3783 -0.4235
  103OSM    H5F10494   3.436   6.318  10.226 -1.0044 -0.3417 -0.4276
  103OSM    H5G10495   3.271   6.390  10.213 -0.4995 -0.1317 -0.9594
  103OSM    C6F10496   3.282   6.223  10.086 -0.1282  0.0650  0.2306
  103OSM    H6F10497   3.172   6.212  10.078 -0.0482  0.6460 -2.0359
  103OSM    H6G10498   3.323   6.121  10.101  1.1384  0.4317 -0.6626
  103OSM    C7F10499   3.341   6.274   9.954  0.6138 -0.5195  0.2312
  103OSM    H7F10500   3.451   6.260   9.947  0.5850 -0.6061 -0.0492
  103OSM    H7G10501   3.317   6.382   9.952  0.7910 -0.4878 -0.2476
  103OSM    C8F10502   3.276   6.200   9.833  0.5059  0.1669  0.6197
  103OSM    H8F10503   3.166   6.201   9.842  0.4647 -1.0212  0.2620
  103OSM    H8G10504   3.302   6.093   9.843  1.3734  0.1978 -0.9989
  103OSM    C9F10505   3.317   6.244   9.697 -0.1063 -0.3074  0.7126
  103OSM    H9F10506   3.397   6.319   9.695  0.2923 -0.7236  1.3261
  103OSM   C10F10507   3.255   6.209   9.586  0.1191  0.5694  0.4786
  103OSM   H10F10508   3.297   6.246   9.492  1.2717  0.5526  0.9847
  103OSM   C11F10509   3.142   6.115   9.562 -0.1271  0.5509 -0.6187
  103OSM   H11F10510   3.046   6.163   9.591  0.3101  0.9307  0.2213
  103OSM   H11G10511   3.150   6.017   9.613  2.7727  1.1744  0.1983
  103OSM   C12F10512   3.124   6.061   9.419  0.0762 -0.0254 -0.2334
  103OSM   H12F10513   3.033   5.998   9.415  0.1512 -0.2926  1.8153
  103OSM   H12G10514   3.207   5.991   9.395  2.8274  3.2851 -0.8198
  103OSM   C13F10515   3.128   6.164   9.301 -0.0663  0.1016 -0.2399
  103OSM   H13F10516   3.052   6.242   9.319 -0.6038 -0.1307 -1.4817
  103OSM   H13G10517   3.228   6.212   9.298  0.5176 -0.8303  2.8113
  103OSM   C14F10518   3.091   6.091   9.170 -0.2716 -0.2906  0.9607
  103OSM   H14F10519   2.986   6.054   9.169 -0.6572  0.7340  1.9680
  103OSM   H14G10520   3.162   6.008   9.150 -1.6810 -1.6241  1.3679
  103OSM   C15F10521   3.110   6.201   9.058 -0.2308  0.4817  0.8162
  103OSM   H15F10522   3.209   6.245   9.082  0.9739 -0.6597 -1.8640
  103OSM   H15G10523   3.032   6.280   9.066  0.6522  1.5003 -0.3507
  103OSM   C16F10524   3.093   6.134   8.923  0.2361  0.5153 -0.2198
  103OSM   H16F10525   2.984   6.113   8.925  0.4298 -0.4126  2.4580
  103OSM   H16G10526   3.144   6.036   8.931 -1.1636 -0.0962  1.6406
  103OSM   C17F10527   3.123   6.220   8.802  0.0735  0.0001  0.7876
  103OSM   H17F10528   3.099   6.153   8.716 -1.4120 -0.3119  1.4422
  103OSM   H17G10529   3.228   6.254   8.791 -0.3361  0.6566 -1.4314
  103OSM   C18F10530   3.034   6.338   8.768 -0.0440  0.1155  0.1464
  103OSM   H18F10531   3.035   6.367   8.661  0.7287 -1.8759 -0.4060
  103OSM   H18G10532   3.069   6.419   8.835  0.4085  0.7486 -0.8510
  103OSM   H18H10533   2.927   6.318   8.792  0.2206 -1.1906  0.2922
  104OSM      N10534   0.450   5.048  10.958 -0.4436  0.1145 -0.4354
  104OSM    C1510535   0.578   5.029  11.035  0.0666  0.8825 -0.5522
  104OSM   H15A10536   0.556   5.018  11.140  1.5236  4.1540  0.1630
  104OSM   H15B10537   0.633   5.121  11.018 -0.6282  1.0423 -1.9923
  104OSM   H15C10538   0.630   4.951  10.982  0.4048  0.8726 -0.2150
  104OSM    C1410539   0.356   4.928  10.982 -0.1720  0.1798 -0.3632
  104OSM   H14A10540   0.326   4.936  11.085  1.7978  1.1599  0.1524
  104OSM   H14B10541   0.397   4.828  10.971 -1.5554 -0.3791 -0.6052
  104OSM   H14C10542   0.264   4.927  10.925  0.1435  0.3064 -0.8724
  104OSM    C1310543   0.374   5.164  11.002 -0.1107 -0.2942 -0.1569
  104OSM   H13A10544   0.284   5.168  10.942  0.7880 -0.6730 -1.5603
  104OSM   H13B10545   0.427   5.257  10.987  1.3950 -1.1408 -0.2320
  104OSM   H13C10546   0.330   5.151  11.100 -1.3677 -0.7855 -0.7839
  104OSM    C1210547   0.480   5.062  10.807  0.2934 -1.0724 -0.2114
  104OSM   H12A10548   0.510   5.163  10.784 -0.7580 -1.0901 -1.7551
  104OSM   H12B10549   0.397   5.048  10.739 -1.4222  1.3973  1.2703
  104OSM    C1110550   0.594   4.971  10.748  0.3534  0.4214  0.1540
  104OSM   H11A10551   0.584   4.978  10.638  1.6213  3.1632  0.1579
  104OSM   H11B10552   0.575   4.864  10.771  0.0033  0.7898  1.6355
  104OSM      P10553   0.847   4.981  10.702 -0.0655 -0.0432  0.2492
  104OSM    O1310554   0.971   5.039  10.770 -0.1109  0.3362 -0.2263
  104OSM    O1410555   0.860   4.837  10.670  0.6450  0.0577 -0.0980
  104OSM    O1110556   0.818   5.059  10.569  0.1304  0.2772  0.3745
  104OSM    O1210557   0.718   5.014  10.795  0.4956 -0.4596 -0.1272
  104OSM    C1S10558   0.827   5.198  10.559 -0.5735 -0.1439 -0.3464
  104OSM    H1S10559   0.929   5.228  10.590 -0.4620 -1.5611  0.6944
  104OSM    H1T10560   0.765   5.243  10.639 -0.4862 -0.0326 -0.3433
  104OSM     NF10561   0.837   5.396  10.402  0.3265  0.3763 -0.4682
  104OSM    HNF10562   0.758   5.455  10.419 -2.2618 -3.1312  0.3093
  104OSM    C2S10563   0.804   5.250  10.418  0.2945  0.3791  0.0107
  104OSM    H2S10564   0.876   5.199  10.350  0.8765  0.9919  0.1620
  104OSM    C3S10565   0.660   5.214  10.375 -0.1568 -0.4410 -0.1521
  104OSM    H3S10566   0.594   5.267  10.448  2.5065  1.5619  0.8535
  104OSM     O310567   0.622   5.075  10.390  0.0843 -0.2048 -0.7023
  104OSM    HO310568   0.686   5.041  10.453  0.2610 -2.9221 -2.2963
  104OSM    C4S10569   0.630   5.255  10.234 -0.2742  0.5342 -0.3996
  104OSM    H4S10570   0.585   5.355  10.227 -2.4309 -0.5449 -2.8387
  104OSM    C5S10571   0.657   5.187  10.116 -0.3929  0.3076 -0.2668
  104OSM    H5S10572   0.701   5.087  10.110 -0.9421 -0.0885  1.8875
  104OSM    C6S10573   0.616   5.241   9.983  0.2493  0.6937  0.4196
  104OSM    H6S10574   0.571   5.156   9.928  1.0710  0.4280  0.1477
  104OSM    H6T10575   0.699   5.275   9.917 -0.5331  0.3399 -0.7445
  104OSM    C7S10576   0.515   5.360   9.990 -0.3413  0.1802  0.5655
  104OSM    H7S10577   0.566   5.446  10.037  3.6927 -0.8484 -1.6673
  104OSM    H7T10578   0.424   5.352  10.053 -1.6609  1.5250 -1.1082
  104OSM    C8S10579   0.455   5.395   9.854  0.4405  0.0901 -0.4572
  104OSM    H8S10580   0.377   5.472   9.873  0.6199  0.0336  0.5278
  104OSM    H8T10581   0.411   5.301   9.816  0.8738  0.0784 -0.9369
  104OSM    C9S10582   0.556   5.464   9.767  0.0644  0.1703 -0.2153
  104OSM    H9S10583   0.650   5.409   9.743 -1.2475 -2.3067  0.1546
  104OSM    H9T10584   0.583   5.557   9.821 -0.6389 -1.3449  2.8616
  104OSM   C10S10585   0.492   5.519   9.637 -0.4282 -0.4723 -1.6117
  104OSM   H10S10586   0.568   5.592   9.601  0.8339 -2.2985 -2.7336
  104OSM   H10T10587   0.402   5.581   9.658  0.0700  0.0309 -0.9614
  104OSM   C11S10588   0.470   5.411   9.533  0.1278  0.1715  0.0619
  104OSM   H11S10589   0.365   5.381   9.552 -0.6203  1.4138 -2.0094
  104OSM   H11T10590   0.546   5.330   9.533 -0.2156 -0.1768  1.3444
  104OSM   C12S10591   0.480   5.458   9.387 -0.4336 -0.0197 -0.2587
  104OSM   H12S10592   0.574   5.514   9.366 -0.0102 -1.3257 -1.9448
  104OSM   H12T10593   0.400   5.534   9.376  0.7895  1.1306 -1.3310
  104OSM   C13S10594   0.453   5.354   9.286 -0.5102 -0.2519 -0.0387
  104OSM   H13S10595   0.364   5.297   9.321 -1.2159  1.5643  1.1631
  104OSM   H13T10596   0.535   5.279   9.285 -0.6039 -0.4117  2.1931
  104OSM   C14S10597   0.428   5.406   9.149 -0.6908  0.1235 -0.6041
  104OSM   H14S10598   0.518   5.463   9.117  0.0282 -0.6811 -0.0381
  104OSM   H14T10599   0.337   5.469   9.145  0.5088  1.9567  0.0481
  104OSM   C15S10600   0.400   5.286   9.063 -0.0395 -0.1812 -0.1086
  104OSM   H15S10601   0.323   5.223   9.111  1.5995 -1.5855  0.7172
  104OSM   H15T10602   0.493   5.226   9.049  0.3771  0.4867 -0.2554
  104OSM   C16S10603   0.339   5.330   8.933  0.1945 -0.0880  0.7106
  104OSM   H16S10604   0.240   5.373   8.959 -0.2348  0.1081 -1.1262
  104OSM   H16T10605   0.327   5.238   8.871  1.2356  1.9779 -2.7196
  104OSM   C17S10606   0.421   5.431   8.854  0.3466 -0.4572 -0.2185
  104OSM   H17S10607   0.523   5.388   8.857  0.1056 -1.1078 -0.9699
  104OSM   H17T10608   0.436   5.533   8.894 -1.1558 -1.1846  2.3135
  104OSM   C18S10609   0.366   5.439   8.704 -0.1373  0.0621  0.0446
  104OSM   H18S10610   0.432   5.514   8.658  0.2972 -0.1343  0.3457
  104OSM   H18T10611   0.259   5.471   8.700 -0.5519 -0.8429  2.6175
  104OSM   H18U10612   0.380   5.336   8.664  1.6080  0.4816 -0.4517
  104OSM    C1F10613   0.961   5.441  10.399 -0.4339  0.2112  0.2467
  104OSM     OF10614   1.053   5.360  10.407  0.5895 -0.4195 -0.0349
  104OSM    C2F10615   0.993   5.591  10.392 -0.1835  0.3430  0.1739
  104OSM    H2F10616   1.103   5.600  10.376 -0.0843  1.2405  1.2692
  104OSM    H2G10617   0.970   5.642  10.488 -1.8087 -3.1095  1.6882
  104OSM    C3F10618   0.905   5.668  10.295 -0.0691 -0.3607 -0.0705
  104OSM    H3F10619   0.929   5.775  10.309  1.3765 -1.0812  3.2308
  104OSM    H3G10620   0.798   5.658  10.325  0.1555 -3.8212 -0.2687
  104OSM    C4F10621   0.920   5.628  10.147  0.2714  0.0843  0.0508
  104OSM    H4F10622   0.878   5.529  10.119 -0.0240  0.6375 -1.4788
  104OSM    H4G10623   1.030   5.620  10.133  0.3135 -0.9858  0.9377
  104OSM    C5F10624   0.863   5.724  10.050 -0.5650  0.2913  0.1772
  104OSM    H5F10625   0.878   5.830  10.078  0.1149 -0.0430  1.0923
  104OSM    H5G10626   0.753   5.708  10.049 -0.5893  0.4398  0.3431
  104OSM    C6F10627   0.913   5.701   9.902 -0.7435 -0.1060  0.2423
  104OSM    H6F10628   0.901   5.599   9.862  0.7137  0.5742 -1.9807
  104OSM    H6G10629   1.017   5.741   9.897 -0.2504 -1.2219  1.2403
  104OSM    C7F10630   0.838   5.795   9.805  0.0316  0.2379 -0.6672
  104OSM    H7F10631   0.824   5.900   9.841  0.7741 -0.3428  1.3898
  104OSM    H7G10632   0.739   5.746   9.801  0.3702 -0.5155  0.1714
  104OSM    C8F10633   0.900   5.787   9.664 -0.5278  0.6407  0.4316
  104OSM    H8F10634   0.909   5.677   9.649  0.1363  0.4952  1.7915
  104OSM    H8G10635   0.999   5.836   9.668 -1.1917  1.9526  1.6814
  104OSM    C9F10636   0.825   5.859   9.551  0.6908 -0.7382 -0.0132
  104OSM    H9F10637   0.790   5.960   9.577 -1.4141 -1.9629  2.0738
  104OSM   C10F10638   0.794   5.806   9.438 -0.0293 -0.0236 -0.5243
  104OSM   H10F10639   0.736   5.863   9.363 -1.6689 -3.5430 -2.1013
  104OSM   C11F10640   0.847   5.668   9.397  0.3167  0.6739  0.9810
  104OSM   H11F10641   0.768   5.594   9.421 -0.6276  2.0190  2.0530
  104OSM   H11G10642   0.934   5.630   9.455 -0.2355 -0.4742  1.0684
  104OSM   C12F10643   0.885   5.667   9.245 -0.1504 -0.2234 -0.1651
  104OSM   H12F10644   0.969   5.739   9.235  0.9311 -1.2273  1.5251
  104OSM   H12G10645   0.797   5.695   9.183  0.0213  0.4328 -0.1110
  104OSM   C13F10646   0.931   5.525   9.191 -0.0563 -0.6247 -0.5231
  104OSM   H13F10647   0.855   5.451   9.225 -0.4671 -0.7193 -1.6164
  104OSM   H13G10648   1.022   5.496   9.246  1.3119  2.3398 -1.1265
  104OSM   C14F10649   0.931   5.508   9.033  0.1851  0.3680 -0.3778
  104OSM   H14F10650   0.995   5.419   9.012 -0.8520 -0.5446  0.2296
  104OSM   H14G10651   0.978   5.596   8.984  2.0164 -0.7815 -0.7455
  104OSM   C15F10652   0.799   5.470   8.967 -0.1224 -0.9610 -0.8924
  104OSM   H15F10653   0.728   5.554   8.982  2.2515  1.1925 -1.3232
  104OSM   H15G10654   0.758   5.375   9.007 -1.7400  0.4567  0.9359
  104OSM   C16F10655   0.813   5.453   8.815  0.1563  0.3419 -0.5098
  104OSM   H16F10656   0.747   5.370   8.782  2.1388 -0.7207 -1.9236
  104OSM   H16G10657   0.912   5.419   8.779  0.5605  0.0081  0.8738
  104OSM   C17F10658   0.764   5.564   8.727 -1.0878  0.6814 -0.0733
  104OSM   H17F10659   0.657   5.588   8.746 -1.0397  0.3871  0.5832
  104OSM   H17G10660   0.758   5.533   8.620  1.2765 -2.4758  0.6384
  104OSM   C18F10661   0.851   5.688   8.733 -0.3919  0.2741  0.3007
  104OSM   H18F10662   0.797   5.774   8.689 -0.3322 -0.6992 -1.7603
  104OSM   H18G10663   0.945   5.678   8.674 -0.9624  2.4182 -1.0087
  104OSM   H18H10664   0.875   5.704   8.840  2.6765 -2.1393  0.0662
  105OSM      N10665   6.565   4.570  10.537 -0.3221  0.1364  0.2128
  105OSM    C1510666   6.560   4.593  10.681 -0.2158  0.1411  0.6385
  105OSM   H15A10667   6.461   4.594  10.724  0.1054  1.0602  1.3756
  105OSM   H15B10668   6.607   4.684  10.715  1.1709  0.2234 -1.3814
  105OSM   H15C10669   6.623   4.521  10.731  1.6534  1.0958 -0.2665
  105OSM    C1410670   6.510   4.435  10.499 -0.6331  0.1247 -0.0440
  105OSM   H14A10671   6.403   4.447  10.490 -0.8405 -0.7139  1.2360
  105OSM   H14B10672   6.539   4.350  10.559  3.8979  1.3085 -0.3886
  105OSM   H14C10673   6.546   4.402  10.403 -0.7835  0.9682 -0.3929
  105OSM    C1310674   6.466   4.659  10.463 -0.2744 -0.8549 -0.1892
  105OSM   H13A10675   6.477   4.631  10.360 -0.9231  0.8978 -0.7557
  105OSM   H13B10676   6.503   4.761  10.469 -0.4043 -0.8616  0.8545
  105OSM   H13C10677   6.362   4.650  10.490 -0.4700 -0.5606 -0.8445
  105OSM    C1210678   6.701   4.588  10.478 -0.6489 -0.5434 -0.4406
  105OSM   H12A10679   6.743   4.686  10.491  1.8883 -1.6864  0.1849
  105OSM   H12B10680   6.701   4.579  10.370  0.4500  1.6181 -0.6354
  105OSM    C1110681   6.817   4.502  10.542 -0.0714 -0.4911  0.1590
  105OSM   H11A10682   6.893   4.474  10.466  0.1269 -2.4410  1.0549
  105OSM   H11B10683   6.771   4.405  10.571 -0.8345 -0.1596  0.0870
  105OSM      P10684   6.953   4.700  10.646  0.3167  0.1387 -0.1545
  105OSM    O1310685   6.862   4.816  10.627 -0.1569  0.2728 -0.0604
  105OSM    O1410686   7.046   4.709  10.760  0.2776 -0.0355 -0.4218
  105OSM    O1110687   7.030   4.689  10.515  0.1622  0.6321 -0.5958
  105OSM    O1210688   6.870   4.561  10.659 -0.1110 -0.0064 -0.4379
  105OSM    C1S10689   7.160   4.738  10.491 -0.0656  0.2614  0.3636
  105OSM    H1S10690   7.230   4.673  10.549 -0.9723 -0.7370  0.3492
  105OSM    H1T10691   7.169   4.841  10.531  0.0699 -0.2716  1.7267
  105OSM     NF10692   7.322   4.787  10.325  0.0992 -0.1564 -0.1724
  105OSM    HNF10693   7.333   4.884  10.309  0.0052 -0.4020 -1.8240
  105OSM    C2S10694   7.188   4.740  10.345  0.5481  0.3095 -0.9604
  105OSM    H2S10695   7.168   4.635  10.314  0.8853  0.6174 -2.2617
  105OSM    C3S10696   7.079   4.824  10.270 -0.0041 -0.1718  1.1621
  105OSM    H3S10697   7.097   4.932  10.288 -2.4515  0.1541  1.9030
  105OSM     O310698   6.943   4.787  10.285 -0.3478  0.1376 -0.1254
  105OSM    HO310699   6.954   4.724  10.358 -1.8448  0.5743  0.4894
  105OSM    C4S10700   7.097   4.802  10.121  0.1765  0.2125  0.1605
  105OSM    H4S10701   7.083   4.694  10.103  0.4487  0.1497  0.3356
  105OSM    C5S10702   7.121   4.895  10.026  0.2683 -0.1597  0.0582
  105OSM    H5S10703   7.118   5.001  10.054  2.6013 -0.0142 -0.1559
  105OSM    C6S10704   7.138   4.859   9.884  0.3881 -0.2802  0.1254
  105OSM    H6S10705   7.129   4.749   9.865  2.3832 -0.6382  1.1220
  105OSM    H6T10706   7.227   4.909   9.842 -0.9211  1.2660 -0.8820
  105OSM    C7S10707   7.025   4.919   9.801 -0.6360  0.5312  0.3772
  105OSM    H7S10708   7.052   4.902   9.695  1.1038  2.2526  0.5153
  105OSM    H7T10709   7.017   5.030   9.810 -0.1613  0.5543  0.5524
  105OSM    C8S10710   6.881   4.859   9.815 -0.2749  0.0540  0.1430
  105OSM    H8S10711   6.854   4.878   9.921 -3.1585 -3.7169  0.1885
  105OSM    H8T10712   6.891   4.751   9.789  1.0050  0.4311 -1.0062
  105OSM    C9S10713   6.772   4.927   9.733  0.6191  0.4364  0.4296
  105OSM    H9S10714   6.769   5.036   9.756 -0.9157  0.6774 -0.8414
  105OSM    H9T10715   6.675   4.886   9.766  0.6237  0.9276  1.0689
  105OSM   C10S10716   6.768   4.902   9.580 -0.4983  0.2745 -0.1214
  105OSM   H10S10717   6.753   4.792   9.568  2.0659 -0.2069  0.6367
  105OSM   H10T10718   6.868   4.922   9.534  1.3461 -2.2488  2.5998
  105OSM   C11S10719   6.660   4.967   9.500  0.2525 -0.1701  0.5449
  105OSM   H11S10720   6.687   5.073   9.487  2.2887 -0.8774 -1.1363
  105OSM   H11T10721   6.560   4.962   9.549 -0.3882 -1.7380 -0.8948
  105OSM   C12S10722   6.659   4.921   9.351 -0.0234  0.5024 -0.4928
  105OSM   H12S10723   6.571   4.977   9.313 -2.0533 -1.3626  1.2416
  105OSM   H12T10724   6.640   4.812   9.338 -1.6607  0.5689  1.0149
  105OSM   C13S10725   6.785   4.963   9.264  0.7728 -0.1270 -0.9901
  105OSM   H13S10726   6.860   4.892   9.305  0.4723  0.9797  1.5886
  105OSM   H13T10727   6.813   5.066   9.292  0.4335  0.3555 -2.3943
  105OSM   C14S10728   6.753   4.969   9.114  0.1189 -0.0013 -0.7857
  105OSM   H14S10729   6.850   4.992   9.066  0.0733  3.3706  0.6577
  105OSM   H14T10730   6.681   5.051   9.091  2.4572  2.5609  0.8377
  105OSM   C15S10731   6.703   4.830   9.063 -0.1078  0.3347 -0.1296
  105OSM   H15S10732   6.619   4.809   9.131  1.9149 -1.2845  1.9185
  105OSM   H15T10733   6.772   4.746   9.088 -0.9066 -0.8760 -1.9130
  105OSM   C16S10734   6.655   4.847   8.916  0.6977  0.1132 -0.0992
  105OSM   H16S10735   6.749   4.842   8.858 -1.1876 -2.1097 -3.1741
  105OSM   H16T10736   6.612   4.948   8.896 -3.0897 -1.4566 -0.4503
  105OSM   C17S10737   6.559   4.735   8.872  0.6401 -0.0481 -0.0963
  105OSM   H17S10738   6.471   4.758   8.935  0.7989 -0.5609  0.3132
  105OSM   H17T10739   6.597   4.634   8.897 -1.2294 -0.9466 -0.7766
  105OSM   C18S10740   6.547   4.738   8.718  0.4144 -0.0941  0.6064
  105OSM   H18S10741   6.641   4.692   8.679  0.5516 -0.3473  1.2227
  105OSM   H18T10742   6.540   4.843   8.684  4.5256  0.5902  1.5777
  105OSM   H18U10743   6.463   4.682   8.673  1.2236 -0.6933 -0.1868
  105OSM    C1F10744   7.421   4.699  10.338 -0.3913  0.0267 -1.0304
  105OSM     OF10745   7.408   4.576  10.330 -0.0647 -0.2881 -0.4535
  105OSM    C2F10746   7.562   4.750  10.361  0.0893  0.0045 -0.1223
  105OSM    H2F10747   7.574   4.742  10.471 -1.9776  1.3080  0.2237
  105OSM    H2G10748   7.564   4.859  10.339  2.8401  0.2726  1.2067
  105OSM    C3F10749   7.661   4.663  10.282  0.0862 -0.3683 -0.2495
  105OSM    H3F10750   7.672   4.557  10.313  1.0941 -0.2028 -0.0108
  105OSM    H3G10751   7.760   4.710  10.302  0.2171 -0.6409 -0.2634
  105OSM    C4F10752   7.638   4.672  10.132 -0.1891  0.4389  0.1782
  105OSM    H4F10753   7.562   4.599  10.096  0.1326  0.0574  0.2771
  105OSM    H4G10754   7.734   4.643  10.086 -1.7298 -0.0676 -2.8613
  105OSM    C5F10755   7.619   4.811  10.064 -0.7751 -0.2463 -0.4041
  105OSM    H5F10756   7.703   4.871  10.106  1.5892 -2.4536 -1.8366
  105OSM    H5G10757   7.533   4.860  10.115  0.1320  0.6240  0.3008
  105OSM    C6F10758   7.621   4.813   9.909 -0.3720  0.7805  0.4510
  105OSM    H6F10759   7.721   4.793   9.864 -0.6120 -0.2341  0.3696
  105OSM    H6G10760   7.596   4.920   9.891 -0.5639  0.5893 -0.3991
  105OSM    C7F10761   7.507   4.725   9.849 -0.3498 -0.4800  0.3658
  105OSM    H7F10762   7.414   4.770   9.890 -0.5574  0.1115 -0.7104
  105OSM    H7G10763   7.516   4.618   9.877  1.7986 -0.0101  1.6040
  105OSM    C8F10764   7.504   4.739   9.699 -0.3814 -0.0737 -0.9197
  105OSM    H8F10765   7.597   4.699   9.652  0.2411 -0.6100  0.7316
  105OSM    H8G10766   7.489   4.846   9.673 -0.6781  0.1704  0.2312
  105OSM    C9F10767   7.394   4.649   9.647  0.6372  0.2879 -0.7433
  105OSM    H9F10768   7.409   4.540   9.649 -3.3458 -0.2951  0.7299
  105OSM   C10F10769   7.287   4.684   9.571 -0.2001 -0.1972  0.3003
  105OSM   H10F10770   7.224   4.605   9.529 -1.0697 -0.3917  1.9101
  105OSM   C11F10771   7.250   4.830   9.538  0.2513 -0.9235  0.4813
  105OSM   H11F10772   7.287   4.902   9.615  0.8482 -2.5131  1.7035
  105OSM   H11G10773   7.139   4.831   9.531  0.2397 -1.5488  0.5352
  105OSM   C12F10774   7.295   4.874   9.404 -0.2374 -0.0064 -0.1177
  105OSM   H12F10775   7.405   4.857   9.399 -0.2666 -0.2072 -0.0721
  105OSM   H12G10776   7.279   4.984   9.401 -2.5118 -0.2408  2.4557
  105OSM   C13F10777   7.229   4.811   9.283 -0.0513 -0.2240 -0.3059
  105OSM   H13F10778   7.120   4.805   9.306  0.0163  1.8038  0.6116
  105OSM   H13G10779   7.256   4.703   9.275 -2.3206 -0.7651 -1.2687
  105OSM   C14F10780   7.262   4.876   9.148 -0.5328  0.5864  0.2113
  105OSM   H14F10781   7.372   4.864   9.138 -0.7958 -0.5781 -1.5553
  105OSM   H14G10782   7.245   4.986   9.147 -2.0300  0.3747  0.7528
  105OSM   C15F10783   7.197   4.813   9.024 -0.3872  0.9169  0.0882
  105OSM   H15F10784   7.089   4.834   9.009 -0.9157 -1.0302  1.0215
  105OSM   H15G10785   7.207   4.704   9.039 -1.4722  0.7899 -0.0854
  105OSM   C16F10786   7.276   4.847   8.892  0.0342 -0.4027 -0.3878
  105OSM   H16F10787   7.248   4.768   8.820 -1.0950 -1.2050  0.9037
  105OSM   H16G10788   7.384   4.841   8.917  0.0797  0.1018 -0.4512
  105OSM   C17F10789   7.223   4.979   8.844 -0.5891 -0.0989 -0.7563
  105OSM   H17F10790   7.208   5.052   8.926  3.4245 -0.7913  0.7312
  105OSM   H17G10791   7.127   4.959   8.792 -0.8294 -1.5925  0.2374
  105OSM   C18F10792   7.314   5.043   8.743 -0.0715  0.5159  0.1317
  105OSM   H18F10793   7.341   4.966   8.667  1.7477  1.7132 -0.4658
  105OSM   H18G10794   7.407   5.084   8.788 -0.4118  1.6179 -0.1671
  105OSM   H18H10795   7.250   5.117   8.691  0.8254  0.7283 -0.6844
  106OSM      N10796   1.793   3.812  10.697 -0.0303 -0.4667 -1.0062
  106OSM    C1510797   1.837   3.897  10.584  0.8396 -0.1160  0.2016
  106OSM   H15A10798   1.942   3.922  10.597  0.5002  0.6448  1.6295
  106OSM   H15B10799   1.784   3.990  10.600 -1.7257 -1.4977 -0.1042
  106OSM   H15C10800   1.800   3.848  10.496  1.5218 -1.8328  0.8513
  106OSM    C1410801   1.820   3.887  10.832  0.0258  0.4370  0.4253
  106OSM   H14A10802   1.793   3.831  10.920  0.5381  0.4438  0.5890
  106OSM   H14B10803   1.758   3.975  10.833  2.5262  2.2604 -0.2181
  106OSM   H14C10804   1.924   3.916  10.838  0.6596 -1.7398  0.6148
  106OSM    C1310805   1.643   3.806  10.681  0.4002  0.1454 -1.0176
  106OSM   H13A10806   1.598   3.903  10.696 -0.2998  0.0022 -2.1057
  106OSM   H13B10807   1.605   3.737  10.755  0.0527  1.3971 -0.0117
  106OSM   H13C10808   1.613   3.775  10.582  1.2671  1.9591 -1.8522
  106OSM    C1210809   1.856   3.674  10.691 -0.1208 -0.8239  0.1265
  106OSM   H12A10810   1.827   3.612  10.775 -2.0993 -1.4420 -0.9953
  106OSM   H12B10811   1.962   3.697  10.694  0.2270 -2.4158  0.2126
  106OSM    C1110812   1.823   3.594  10.568  0.4169  0.1906  0.2387
  106OSM   H11A10813   1.902   3.521  10.543  0.4213 -0.2708  1.5676
  106OSM   H11B10814   1.822   3.656  10.475  0.1378 -0.6320 -0.3085
  106OSM      P10815   1.669   3.398  10.655 -0.2698  0.5266 -0.6930
  106OSM    O1310816   1.735   3.397  10.786  0.3308 -0.4154 -0.4934
  106OSM    O1410817   1.521   3.370  10.657  0.5394 -0.1101  0.3640
  106OSM    O1110818   1.741   3.291  10.561 -0.1100  0.1970 -0.1956
  106OSM    O1210819   1.694   3.530  10.584 -0.2692  0.3956 -0.0254
  106OSM    C1S10820   1.693   3.301  10.424 -0.1937 -0.3852 -0.1093
  106OSM    H1S10821   1.742   3.391  10.379 -1.4507  0.4132  0.0935
  106OSM    H1T10822   1.582   3.300  10.422 -0.2266 -2.5694  1.7350
  106OSM     NF10823   1.689   3.206  10.191  0.1607 -0.3063  0.2882
  106OSM    HNF10824   1.628   3.136  10.155 -2.0768  0.6921  2.0178
  106OSM    C2S10825   1.741   3.193  10.327 -0.2270  0.3498  0.1347
  106OSM    H2S10826   1.851   3.203  10.328 -0.3035  1.2409  0.1086
  106OSM    C3S10827   1.719   3.053  10.387  0.1297  0.5006 -0.5708
  106OSM    H3S10828   1.610   3.032  10.393  0.2977  0.0180  1.2435
  106OSM     O310829   1.782   3.041  10.516 -0.3600 -0.1882  0.2396
  106OSM    HO310830   1.794   3.132  10.544 -0.8632 -0.0257 -0.0509
  106OSM    C4S10831   1.777   2.955  10.296 -0.6990 -0.4749  1.0303
  106OSM    H4S10832   1.887   2.956  10.297 -0.6599  1.2045 -1.4068
  106OSM    C5S10833   1.700   2.851  10.247  0.7669  0.1935 -0.3655
  106OSM    H5S10834   1.598   2.838  10.288  2.2662  0.6036  3.6668
  106OSM    C6S10835   1.760   2.748  10.153 -0.6083  0.4465 -0.4231
  106OSM    H6S10836   1.704   2.744  10.057 -3.2277  2.1034  0.9706
  106OSM    H6T10837   1.742   2.649  10.201 -0.0366 -0.7354 -2.5673
  106OSM    C7S10838   1.915   2.735  10.128 -0.0641  0.2007 -0.3266
  106OSM    H7S10839   1.974   2.715  10.220 -1.3837 -2.0559  0.0602
  106OSM    H7T10840   1.962   2.824  10.080  0.7537  0.0049  0.1055
  106OSM    C8S10841   1.954   2.618  10.039  0.2306 -0.3963 -0.3388
  106OSM    H8S10842   1.908   2.522  10.070  0.4630 -0.6367 -0.7379
  106OSM    H8T10843   2.063   2.602  10.046  0.2059  0.0315  1.0560
  106OSM    C9S10844   1.933   2.638   9.890 -0.4491 -0.1682  0.3177
  106OSM    H9S10845   1.953   2.743   9.862  2.3405 -1.0369 -1.1624
  106OSM    H9T10846   1.824   2.629   9.873 -0.6378  0.0177  1.3538
  106OSM   C10S10847   2.005   2.538   9.796 -0.0996  0.4289 -0.2321
  106OSM   H10S10848   1.957   2.439   9.814 -1.1218  0.7466 -1.0958
  106OSM   H10T10849   2.110   2.526   9.830  0.0029  2.5704  0.2688
  106OSM   C11S10850   1.984   2.552   9.642 -0.2378  0.4823 -0.6338
  106OSM   H11S10851   2.049   2.631   9.598  0.9487  1.3414  2.5051
  106OSM   H11T10852   1.876   2.572   9.631 -0.0093  1.3924 -1.3078
  106OSM   C12S10853   2.012   2.420   9.570 -0.0426 -0.2246  0.5976
  106OSM   H12S10854   1.947   2.344   9.618 -0.8561 -0.2310 -0.4827
  106OSM   H12T10855   2.113   2.378   9.593 -0.0012 -2.3447 -3.0557
  106OSM   C13S10856   1.999   2.432   9.417 -0.0764  0.6039  0.8555
  106OSM   H13S10857   2.036   2.341   9.366  1.0083  0.5877  1.6538
  106OSM   H13T10858   2.058   2.521   9.387 -0.0463  0.3274  0.0727
  106OSM   C14S10859   1.860   2.478   9.362 -0.0086  0.3828  0.7128
  106OSM   H14S10860   1.837   2.577   9.406  1.2894  1.2834 -0.5991
  106OSM   H14T10861   1.778   2.417   9.407 -0.2001 -0.2252 -0.4445
  106OSM   C15S10862   1.871   2.493   9.203 -0.5326  0.4997  0.2970
  106OSM   H15S10863   1.903   2.396   9.159 -0.7223  0.2715  0.6624
  106OSM   H15T10864   1.955   2.561   9.178  0.9263 -0.8409  1.4406
  106OSM   C16S10865   1.754   2.544   9.131 -0.1610 -0.3473 -0.3631
  106OSM   H16S10866   1.754   2.655   9.130 -0.1195 -0.3474 -0.3479
  106OSM   H16T10867   1.665   2.489   9.169  0.0559 -0.6970 -0.3587
  106OSM   C17S10868   1.770   2.519   8.979  0.2810 -0.4575 -0.0789
  106OSM   H17S10869   1.767   2.410   8.954  2.1349 -0.5410  0.0527
  106OSM   H17T10870   1.874   2.546   8.951  0.4027 -0.6838  0.1558
  106OSM   C18S10871   1.674   2.585   8.878  0.1766 -0.4399  0.1324
  106OSM   H18S10872   1.694   2.573   8.769 -0.2490 -1.5746  0.1626
  106OSM   H18T10873   1.675   2.691   8.911  0.3306 -0.5771  0.5695
  106OSM   H18U10874   1.572   2.543   8.889 -0.2421  0.6150  0.2557
  106OSM    C1F10875   1.736   3.298  10.115 -0.7031 -0.4413 -0.0650
  106OSM     OF10876   1.823   3.382  10.151  0.0600 -1.0446 -0.1939
  106OSM    C2F10877   1.679   3.310   9.981 -0.8150  0.2429 -0.1723
  106OSM    H2F10878   1.628   3.406   9.960 -0.3225  0.3338 -0.9689
  106OSM    H2G10879   1.600   3.233   9.964  0.2181 -1.2598  1.6277
  106OSM    C3F10880   1.789   3.285   9.869  0.6240  1.0394  0.3169
  106OSM    H3F10881   1.831   3.183   9.880  0.9950  1.1398 -0.1631
  106OSM    H3G10882   1.871   3.360   9.859  0.7107  0.6424 -2.3526
  106OSM    C4F10883   1.720   3.282   9.733  0.1296  0.8357  0.1750
  106OSM    H4F10884   1.695   3.387   9.703 -4.3724  0.3218  1.6791
  106OSM    H4G10885   1.622   3.230   9.740  0.3172  0.3076 -0.9983
  106OSM    C5F10886   1.802   3.223   9.619 -0.1729  0.2350  0.5432
  106OSM    H5F10887   1.830   3.116   9.632 -1.2228 -0.2264 -0.9703
  106OSM    H5G10888   1.904   3.265   9.608  0.4073 -1.1858  0.4003
  106OSM    C6F10889   1.731   3.247   9.479  0.7071  0.2619  0.3886
  106OSM    H6F10890   1.637   3.188   9.474 -0.8277  2.7074 -1.2316
  106OSM    H6G10891   1.792   3.202   9.398  2.1073 -1.4438  2.3446
  106OSM    C7F10892   1.697   3.391   9.429  0.3925 -0.1425  0.7030
  106OSM    H7F10893   1.776   3.462   9.462 -1.5482  2.7357 -0.6551
  106OSM    H7G10894   1.608   3.428   9.485 -0.7858  0.3286 -1.4554
  106OSM    C8F10895   1.648   3.398   9.285  0.0791 -0.7582 -0.6728
  106OSM    H8F10896   1.732   3.353   9.228  0.4913 -2.2951  1.0919
  106OSM    H8G10897   1.639   3.504   9.255  0.8347 -0.4802  0.0482
  106OSM    C9F10898   1.509   3.341   9.269  1.2630  0.3067  0.3437
  106OSM    H9F10899   1.510   3.231   9.277 -0.0095  0.3332  0.9372
  106OSM   C10F10900   1.392   3.406   9.275 -0.1046  0.3220  0.4035
  106OSM   H10F10901   1.302   3.343   9.266  0.9094 -0.9278 -1.5813
  106OSM   C11F10902   1.366   3.554   9.300 -0.1151 -0.2067  0.2423
  106OSM   H11F10903   1.441   3.611   9.358  1.3520 -0.7206 -1.0941
  106OSM   H11G10904   1.273   3.560   9.359  0.2814 -0.0479  0.8586
  106OSM   C12F10905   1.327   3.634   9.172  0.3727  0.4706  0.0454
  106OSM   H12F10906   1.251   3.709   9.203 -0.8970  0.3913 -2.7617
  106OSM   H12G10907   1.264   3.556   9.125  0.8050  1.4359 -2.2032
  106OSM   C13F10908   1.438   3.674   9.084 -0.3769 -0.0221  0.1808
  106OSM   H13F10909   1.502   3.584   9.079 -1.7485 -1.1248  1.7210
  106OSM   H13G10910   1.505   3.747   9.134 -1.6464  1.5352 -0.3135
  106OSM   C14F10911   1.385   3.708   8.940  0.2541  0.3822 -0.0391
  106OSM   H14F10912   1.312   3.630   8.910 -1.0542  1.7439 -0.4591
  106OSM   H14G10913   1.477   3.688   8.881  0.5036  0.4179  0.3368
  106OSM   C15F10914   1.334   3.849   8.919  0.6558  0.1802  0.8134
  106OSM   H15F10915   1.368   3.884   8.819  1.0501  0.2872  0.9884
  106OSM   H15G10916   1.377   3.920   8.993  1.4044  2.1054 -1.3897
  106OSM   C16F10917   1.181   3.840   8.926 -0.5900  0.0066 -0.0009
  106OSM   H16F10918   1.152   3.812   9.030 -0.0254  1.7228  0.6272
  106OSM   H16G10919   1.148   3.759   8.858  1.0084  0.0960 -0.8883
  106OSM   C17F10920   1.103   3.965   8.874 -0.8561  0.4937  0.1976
  106OSM   H17F10921   1.137   3.974   8.769 -1.5526 -2.0867 -0.2774
  106OSM   H17G10922   1.153   4.053   8.920  0.5366 -0.8110  1.2558
  106OSM   C18F10923   0.953   3.970   8.888  0.2868  0.1768 -0.0370
  106OSM   H18F10924   0.918   3.990   8.992  0.7247  2.2234 -0.2674
  106OSM   H18G10925   0.908   3.878   8.845  2.6690 -1.7035  1.3477
  106OSM   H18H10926   0.910   4.053   8.829 -0.0631  0.8617  1.1750
  107OSM      N10927   2.075   0.690  11.103  0.0334 -0.5869 -0.3449
  107OSM    C1510928   2.080   0.545  11.093  0.2458  0.3515 -0.0972
  107OSM   H15A10929   2.023   0.507  11.010 -1.1308  4.2024 -1.0366
  107OSM   H15B10930   2.048   0.499  11.186 -0.5651 -1.4110 -1.2378
  107OSM   H15C10931   2.185   0.522  11.081 -0.1533 -1.5188 -0.0750
  107OSM    C1410932   1.935   0.722  11.142 -0.1606 -0.2550 -0.3772
  107OSM   H14A10933   1.896   0.663  11.224  0.0505  1.0636  0.6960
  107OSM   H14B10934   1.868   0.702  11.059  1.9917 -0.2778 -2.1358
  107OSM   H14C10935   1.922   0.826  11.168 -0.5733 -0.5286  0.5482
  107OSM    C1310936   2.172   0.726  11.214 -0.1895  0.2024  0.0743
  107OSM   H13A10937   2.161   0.657  11.296  0.3102 -2.4350 -2.0484
  107OSM   H13B10938   2.158   0.823  11.260 -1.3285  0.1833 -0.2321
  107OSM   H13C10939   2.275   0.714  11.185 -0.3132  1.6667 -1.0356
  107OSM    C1210940   2.111   0.751  10.966  0.1489  0.2891  0.4910
  107OSM   H12A10941   2.087   0.856  10.971  2.2499  1.0874 -3.6182
  107OSM   H12B10942   2.036   0.717  10.895 -1.3003  0.0735  2.1022
  107OSM    C1110943   2.249   0.741  10.906 -0.1727 -0.1136 -0.6948
  107OSM   H11A10944   2.254   0.794  10.808 -0.4678  0.6593 -0.2972
  107OSM   H11B10945   2.249   0.634  10.877  2.4304  0.0445 -1.4202
  107OSM      P10946   2.474   0.693  11.022  0.1773 -0.5086 -0.0944
  107OSM    O1310947   2.554   0.756  11.123 -0.1123  0.4296  0.7641
  107OSM    O1410948   2.431   0.555  11.052 -0.0370 -0.4299  0.6117
  107OSM    O1110949   2.557   0.695  10.886  0.0725 -0.3333  0.5634
  107OSM    O1210950   2.353   0.787  10.986 -0.4196 -0.1556 -0.3153
  107OSM    C1S10951   2.524   0.611  10.775  0.0756  0.0562 -0.1564
  107OSM    H1S10952   2.416   0.585  10.770  0.6026 -1.7938 -2.5952
  107OSM    H1T10953   2.585   0.519  10.793 -1.2108 -0.7851 -0.0316
  107OSM     NF10954   2.535   0.605  10.531 -0.4595 -0.3394  0.2602
  107OSM    HNF10955   2.590   0.539  10.481  1.3180  1.2200  0.0897
  107OSM    C2S10956   2.584   0.672  10.649 -0.3206  0.5039 -1.0330
  107OSM    H2S10957   2.548   0.777  10.646 -2.1215 -0.0749 -0.6279
  107OSM    C3S10958   2.742   0.681  10.658 -0.3520  0.3293 -0.6808
  107OSM    H3S10959   2.775   0.577  10.682  1.4054  1.1868  0.8035
  107OSM     O310960   2.800   0.768  10.757  0.5563 -0.2284  0.4594
  107OSM    HO310961   2.724   0.810  10.799 -0.8217 -2.5096  0.3631
  107OSM    C4S10962   2.808   0.730  10.528  0.0425 -0.6037 -0.7702
  107OSM    H4S10963   2.791   0.835  10.501 -2.8082 -0.7345  0.3693
  107OSM    C5S10964   2.898   0.664  10.460  0.5401  0.1371 -0.3148
  107OSM    H5S10965   2.922   0.562  10.492 -1.6756 -0.6166 -0.9713
  107OSM    C6S10966   2.967   0.713  10.338 -0.0617 -0.2090 -0.0869
  107OSM    H6S10967   3.076   0.727  10.354 -0.3322  1.2823  0.5134
  107OSM    H6T10968   2.920   0.812  10.319 -1.5511 -1.1233 -1.3382
  107OSM    C7S10969   2.964   0.628  10.208 -0.5770  0.8541  0.4494
  107OSM    H7S10970   2.857   0.608  10.184 -0.2004 -2.3215  1.2004
  107OSM    H7T10971   3.009   0.527  10.217 -1.9598  0.1003 -0.9832
  107OSM    C8S10972   3.036   0.700  10.086  0.8479 -0.3416  0.2549
  107OSM    H8S10973   3.139   0.700  10.129  2.0891 -1.4504 -2.6546
  107OSM    H8T10974   2.986   0.799  10.076 -1.3185 -1.5197 -0.9983
  107OSM    C9S10975   3.032   0.630   9.955 -0.5941 -0.0113 -0.5447
  107OSM    H9S10976   2.934   0.578   9.944 -0.3207 -0.9565  1.2018
  107OSM    H9T10977   3.104   0.546   9.965  2.0116  2.0576 -1.3839
  107OSM   C10S10978   3.066   0.710   9.833 -0.0135  0.3422 -0.1970
  107OSM   H10S10979   3.171   0.739   9.856 -0.3917 -0.0362  2.0219
  107OSM   H10T10980   3.008   0.805   9.821 -1.8999 -0.7516  0.1410
  107OSM   C11S10981   3.064   0.630   9.701 -0.9779  0.4787  0.2447
  107OSM   H11S10982   2.958   0.631   9.669 -1.7489  0.2289  2.6435
  107OSM   H11T10983   3.101   0.525   9.701  0.1397  0.8615  0.9529
  107OSM   C12S10984   3.141   0.697   9.586 -0.1946 -0.6794 -0.1022
  107OSM   H12S10985   3.250   0.679   9.598 -0.2589 -0.8514  0.2528
  107OSM   H12T10986   3.121   0.805   9.573 -1.5109 -1.1787 -2.5433
  107OSM   C13S10987   3.104   0.633   9.455  0.1868  0.7433  0.6443
  107OSM   H13S10988   2.995   0.617   9.438  0.2500 -0.8748  1.5818
  107OSM   H13T10989   3.152   0.537   9.423 -2.6975 -0.4280 -0.3450
  107OSM   C14S10990   3.146   0.723   9.340  0.0742 -0.6143  0.2193
  107OSM   H14S10991   3.254   0.747   9.347 -0.4446  1.6361  1.0613
  107OSM   H14T10992   3.093   0.819   9.355 -0.3924 -0.8596  0.1430
  107OSM   C15S10993   3.111   0.668   9.200  0.3669 -0.2190 -0.5910
  107OSM   H15S10994   3.104   0.558   9.193  1.2962 -0.3331  0.1143
  107OSM   H15T10995   3.203   0.689   9.142 -0.8287 -0.3098 -2.5624
  107OSM   C16S10996   2.999   0.739   9.128  0.3450 -0.2057  0.0592
  107OSM   H16S10997   2.992   0.846   9.160 -2.2618 -0.2557 -0.2068
  107OSM   H16T10998   2.907   0.693   9.171  0.2698  0.8758  1.1115
  107OSM   C17S10999   3.005   0.715   8.980  0.2536 -0.0723  1.0566
  107OSM   H17S11000   3.081   0.784   8.939  0.5368 -1.7476 -1.3255
  107OSM   H17T11001   2.908   0.754   8.942  1.3096  1.2894 -0.2981
  107OSM   C18S11002   3.013   0.574   8.926  0.5709  0.3688  0.0298
  107OSM   H18S11003   2.922   0.516   8.951 -0.1750  0.9588 -1.2693
  107OSM   H18T11004   3.095   0.506   8.959 -0.1603 -0.9214 -0.8067
  107OSM   H18U11005   3.005   0.577   8.815 -0.8435 -0.1404  0.1114
  107OSM    C1F11006   2.405   0.620  10.490  0.2720  0.2119  0.3796
  107OSM     OF11007   2.315   0.672  10.561  0.0510 -0.2087 -0.0059
  107OSM    C2F11008   2.365   0.549  10.363 -0.3406 -0.3536 -0.7132
  107OSM    H2F11009   2.359   0.441  10.386 -2.6665 -0.3553 -1.2254
  107OSM    H2G11010   2.446   0.551  10.287  2.0313  0.8656  1.7276
  107OSM    C3F11011   2.227   0.603  10.303  0.4181  0.3941 -0.2153
  107OSM    H3F11012   2.233   0.707  10.267  0.2107  0.3280 -0.4361
  107OSM    H3G11013   2.155   0.602  10.388  0.5548  1.4862 -0.0785
  107OSM    C4F11014   2.188   0.499  10.190  0.1654 -0.6009 -0.8010
  107OSM    H4F11015   2.181   0.393  10.222  1.4230 -1.1052 -2.1404
  107OSM    H4G11016   2.268   0.497  10.113  0.8302  0.5534 -0.1493
  107OSM    C5F11017   2.048   0.530  10.137  0.1379 -0.4349  0.0203
  107OSM    H5F11018   2.035   0.639  10.122  2.4268  0.7257  5.2916
  107OSM    H5G11019   1.965   0.496  10.203 -0.9191  3.8485  1.0351
  107OSM    C6F11020   2.040   0.465   9.995  0.5606 -0.2945 -1.0472
  107OSM    H6F11021   1.983   0.372  10.015  0.2308  0.0720 -0.2663
  107OSM    H6G11022   2.139   0.432   9.956  0.7512  0.8000 -1.5153
  107OSM    C7F11023   1.970   0.543   9.892 -1.0327  0.1537 -0.5261
  107OSM    H7F11024   1.870   0.573   9.931 -1.8138 -1.0417 -1.5630
  107OSM    H7G11025   1.940   0.485   9.802  0.3260  1.6617 -1.9830
  107OSM    C8F11026   2.045   0.672   9.852 -0.3523 -0.0829  0.2464
  107OSM    H8F11027   2.149   0.655   9.816 -0.1958  0.4199  0.4695
  107OSM    H8G11028   2.065   0.740   9.937  2.9476 -0.0086 -0.5587
  107OSM    C9F11029   1.960   0.751   9.753 -0.5002  0.3492 -0.6335
  107OSM    H9F11030   1.869   0.797   9.794  0.9008  2.5431  0.1092
  107OSM   C10F11031   1.978   0.760   9.621  0.2019  0.2520 -0.0777
  107OSM   H10F11032   1.909   0.828   9.569 -0.3841  0.7444  1.3260
  107OSM   C11F11033   2.072   0.684   9.532 -0.4187 -0.4905  0.0703
  107OSM   H11F11034   2.104   0.586   9.572 -2.5919 -1.0277  0.5338
  107OSM   H11G11035   2.169   0.739   9.539 -1.0797  0.6732  0.2759
  107OSM   C12F11036   2.028   0.665   9.389 -0.1462 -0.8254  0.0808
  107OSM   H12F11037   1.967   0.748   9.347 -1.0505 -1.1967  0.6445
  107OSM   H12G11038   1.969   0.571   9.396 -0.7611 -0.5874 -1.5746
  107OSM   C13F11039   2.153   0.638   9.294 -0.0208 -0.1908 -0.4419
  107OSM   H13F11040   2.212   0.560   9.347  0.5682 -0.6441 -1.7546
  107OSM   H13G11041   2.215   0.730   9.291 -0.6442  0.3089  1.0872
  107OSM   C14F11042   2.111   0.600   9.150  0.2240  0.0204  0.5428
  107OSM   H14F11043   2.062   0.500   9.156  2.1398 -0.8838  1.5822
  107OSM   H14G11044   2.199   0.588   9.083  0.1417  1.7983  0.0778
  107OSM   C15F11045   2.019   0.694   9.069 -0.1359  0.5512  0.3302
  107OSM   H15F11046   2.056   0.798   9.083  1.8392 -0.0295 -0.3999
  107OSM   H15G11047   1.924   0.689   9.126 -0.0957  2.7923  0.6647
  107OSM   C16F11048   2.008   0.665   8.927 -0.5799  0.0407  0.4584
  107OSM   H16F11049   2.103   0.669   8.870 -0.3163 -1.2465  0.7875
  107OSM   H16G11050   1.944   0.745   8.883  1.1978  1.1678 -0.1132
  107OSM   C17F11051   1.937   0.529   8.892 -0.3947  0.6405  0.1085
  107OSM   H17F11052   1.837   0.525   8.939  0.1357  1.1515  1.3059
  107OSM   H17G11053   1.989   0.450   8.950 -0.9844  1.0161  1.1572
  107OSM   C18F11054   1.941   0.497   8.745 -0.3498  0.6554  0.2470
  107OSM   H18F11055   2.040   0.517   8.700 -0.7977  0.1008 -1.0056
  107OSM   H18G11056   1.863   0.566   8.704 -1.3963 -1.2619 -1.0519
  107OSM   H18H11057   1.913   0.392   8.721  4.0425 -0.9321  1.6451
  108OSM      N11058   6.434   4.001  11.118  0.6282  0.9064 -0.2956
  108OSM    C1511059   6.575   4.046  11.090  0.3266 -0.3675  0.0654
  108OSM   H15A11060   6.604   4.114  11.168  0.0432 -0.9377  0.6719
  108OSM   H15B11061   6.576   4.103  10.998  0.9612 -1.8979 -0.8986
  108OSM   H15C11062   6.642   3.961  11.091 -0.0683 -0.7321 -1.9413
  108OSM    C1411063   6.394   3.911  11.004  0.6372 -0.3769  0.3952
  108OSM   H14A11064   6.296   3.878  11.035  0.7314 -1.4511 -0.4094
  108OSM   H14B11065   6.451   3.821  10.985  1.5876  0.2957  0.0534
  108OSM   H14C11066   6.385   3.960  10.909  2.0709  1.1603  1.0204
  108OSM    C1311067   6.436   3.926  11.252 -0.3405 -0.0849 -0.0689
  108OSM   H13A11068   6.336   3.884  11.259 -0.2088 -0.5991 -1.2021
  108OSM   H13B11069   6.442   3.990  11.339 -0.7850 -1.4573  0.9843
  108OSM   H13C11070   6.503   3.842  11.248 -0.6296 -0.2839 -0.7198
  108OSM    C1211071   6.335   4.111  11.132 -0.2392 -0.2964 -0.5423
  108OSM   H12A11072   6.334   4.163  11.037 -2.3383  2.6116  0.9843
  108OSM   H12B11073   6.354   4.177  11.215 -1.9307  0.3338 -0.6516
  108OSM    C1111074   6.194   4.062  11.158 -0.5894  0.0426 -0.3046
  108OSM   H11A11075   6.137   4.146  11.204  2.1565  1.1731  1.1443
  108OSM   H11B11076   6.189   3.978  11.230 -1.4056  0.9436  0.7034
  108OSM      P11077   5.998   3.951  11.049  0.2225  0.4945  0.4562
  108OSM    O1311078   6.019   3.815  11.109  0.1814  0.3227 -0.5103
  108OSM    O1411079   5.895   4.039  11.119  0.2399  0.4962  0.0716
  108OSM    O1111080   5.954   3.937  10.902 -0.3797  0.0398  0.6089
  108OSM    O1211081   6.132   4.033  11.039  0.0840  0.2049 -0.9110
  108OSM    C1S11082   5.992   4.026  10.792  0.6228 -0.1376 -0.0519
  108OSM    H1S11083   6.096   4.067  10.801  0.4969 -0.1597  1.6671
  108OSM    H1T11084   5.925   4.114  10.788  0.3498 -0.2123  2.0788
  108OSM     NF11085   6.042   4.031  10.550 -0.5384 -0.7456  0.0187
  108OSM    HNF11086   5.991   4.096  10.494  2.7444  1.8343 -0.1614
  108OSM    C2S11087   5.984   3.952  10.655  0.1418 -1.1702 -0.2871
  108OSM    H2S11088   6.043   3.859  10.668 -0.8006 -1.9672 -1.5813
  108OSM    C3S11089   5.834   3.925  10.633 -0.2142 -0.6678 -0.2085
  108OSM    H3S11090   5.788   4.026  10.620 -0.2498 -0.5471  0.8411
  108OSM     O311091   5.779   3.849  10.744 -0.0268  0.2938  0.1560
  108OSM    HO311092   5.841   3.863  10.817 -1.5667 -1.1967  1.8183
  108OSM    C4S11093   5.827   3.843  10.506  0.0180 -0.1875 -0.7370
  108OSM    H4S11094   5.866   3.740  10.511 -0.4741 -0.3219  0.6488
  108OSM    C5S11095   5.757   3.889  10.400 -0.3231  0.7546 -0.4703
  108OSM    H5S11096   5.704   3.984  10.411  0.8410  1.6062 -2.0763
  108OSM    C6S11097   5.751   3.836  10.269 -0.0993  0.2691  0.8784
  108OSM    H6S11098   5.649   3.797  10.253 -0.9098  2.1283  1.4320
  108OSM    H6T11099   5.823   3.754  10.246 -0.9589  0.1734 -1.6885
  108OSM    C7S11100   5.804   3.948  10.169 -0.3914  0.3119 -0.2418
  108OSM    H7S11101   5.907   3.980  10.195  0.2336 -0.4268 -1.7174
  108OSM    H7T11102   5.744   4.041  10.168 -1.1409 -0.1692 -1.1856
  108OSM    C8S11103   5.800   3.894  10.020 -0.2078 -0.2467 -0.2741
  108OSM    H8S11104   5.885   3.824  10.013  0.6064  0.6387  0.6970
  108OSM    H8T11105   5.835   3.978   9.956 -0.9066  1.0549  1.0109
  108OSM    C9S11106   5.667   3.842   9.974  0.4777 -0.0978 -0.1151
  108OSM    H9S11107   5.586   3.892  10.031  1.0142 -0.4748  0.9962
  108OSM    H9T11108   5.647   3.736  10.001  0.7185 -0.6121 -1.8587
  108OSM   C10S11109   5.641   3.849   9.823  0.1505 -0.5599 -0.9199
  108OSM   H10S11110   5.648   3.954   9.787  0.8749 -0.4346 -0.4352
  108OSM   H10T11111   5.536   3.816   9.808 -0.7794  0.4456  2.7007
  108OSM   C11S11112   5.738   3.758   9.751  0.1558 -0.6576  0.0626
  108OSM   H11S11113   5.760   3.658   9.794  1.7718 -0.7922 -1.0002
  108OSM   H11T11114   5.836   3.810   9.759 -0.8192  1.0699  0.9248
  108OSM   C12S11115   5.688   3.740   9.606 -0.0094 -0.3145  0.0037
  108OSM   H12S11116   5.583   3.716   9.580 -0.3619 -1.0625  2.0723
  108OSM   H12T11117   5.742   3.652   9.564 -0.0089 -0.4933  0.3811
  108OSM   C13S11118   5.729   3.856   9.512  0.5539 -0.2400  0.3373
  108OSM   H13S11119   5.840   3.863   9.512  0.5005  0.6104  0.6068
  108OSM   H13T11120   5.685   3.954   9.541 -0.2106 -0.8719  1.3800
  108OSM   C14S11121   5.682   3.819   9.367  0.0831  0.0924 -0.1479
  108OSM   H14S11122   5.573   3.795   9.369  0.0861  0.1400  2.1126
  108OSM   H14T11123   5.739   3.735   9.321 -0.2123  0.6431 -1.5407
  108OSM   C15S11124   5.686   3.939   9.272 -0.0159 -0.2258 -0.1742
  108OSM   H15S11125   5.646   4.024   9.332 -1.1519 -1.9807  1.6125
  108OSM   H15T11126   5.616   3.916   9.189  0.6309 -0.4286 -0.6698
  108OSM   C16S11127   5.820   3.955   9.199 -0.2269 -0.1836 -0.1366
  108OSM   H16S11128   5.827   3.869   9.128 -0.3395 -1.5158  1.4279
  108OSM   H16T11129   5.903   3.965   9.272 -0.3575  2.9438 -0.3708
  108OSM   C17S11130   5.811   4.082   9.119  0.0513  0.5139  0.4078
  108OSM   H17S11131   5.822   4.167   9.190 -0.5741 -0.0567  1.2084
  108OSM   H17T11132   5.721   4.092   9.055  0.3581  1.4552  0.1129
  108OSM   C18S11133   5.919   4.094   9.017  0.2230  0.7845 -0.4184
  108OSM   H18S11134   6.016   4.084   9.069 -0.9105 -0.4765  1.5215
  108OSM   H18T11135   5.911   4.191   8.963 -2.6943  1.6038  1.3672
  108OSM   H18U11136   5.903   4.016   8.938  2.6063 -0.2539  0.0748
  108OSM    C1F11137   6.171   4.044  10.528 -0.2354 -0.3503 -0.2222
  108OSM     OF11138   6.251   3.993  10.599  0.0684  0.4020 -0.5797
  108OSM    C2F11139   6.202   4.130  10.415  0.4991 -0.2181 -0.9462
  108OSM    H2F11140   6.288   4.192  10.450  0.9285 -1.1630 -0.2966
  108OSM    H2G11141   6.122   4.205  10.398 -0.8497 -1.4897 -0.3479
  108OSM    C3F11142   6.228   4.052  10.288 -0.0107 -0.5859 -0.3054
  108OSM    H3F11143   6.188   3.948  10.290 -2.1240  0.1820  3.9769
  108OSM    H3G11144   6.338   4.051  10.281 -0.1481  1.2153 -3.4520
  108OSM    C4F11145   6.189   4.122  10.157  0.1060  0.0256 -0.2504
  108OSM    H4F11146   6.221   4.228  10.162 -2.9903  0.9595  0.9765
  108OSM    H4G11147   6.079   4.129  10.147 -0.2596 -2.0090  1.8534
  108OSM    C5F11148   6.237   4.056  10.032 -0.2387 -0.3467 -0.0930
  108OSM    H5F11149   6.243   3.947  10.052 -0.5742 -0.1928  0.9040
  108OSM    H5G11150   6.337   4.099  10.009 -0.4880 -1.2059 -2.9106
  108OSM    C6F11151   6.151   4.072   9.917 -0.0344 -0.6528  0.5110
  108OSM    H6F11152   6.131   4.180   9.897 -2.5807 -1.2944 -0.5910
  108OSM    H6G11153   6.056   4.024   9.949 -0.0386  0.6013  2.4851
  108OSM    C7F11154   6.201   4.011   9.792 -0.2020  0.2958  0.3327
  108OSM    H7F11155   6.192   3.901   9.809  0.8181 -0.2122 -2.2023
  108OSM    H7G11156   6.303   4.046   9.765  0.1587  1.5895  3.1954
  108OSM    C8F11157   6.108   4.032   9.667 -0.0821  0.9169 -0.5590
  108OSM    H8F11158   6.002   4.009   9.689  0.0432  0.0328 -0.8274
  108OSM    H8G11159   6.130   3.956   9.589 -0.0849 -0.0684  0.3922
  108OSM    C9F11160   6.117   4.172   9.610 -0.4128  0.2271 -0.7094
  108OSM    H9F11161   6.049   4.243   9.659 -0.3059  0.2798 -0.6395
  108OSM   C10F11162   6.186   4.214   9.503 -0.6820 -0.2651 -0.6414
  108OSM   H10F11163   6.169   4.315   9.464  0.6688 -0.0677 -0.7201
  108OSM   C11F11164   6.277   4.134   9.416  0.0018  0.2488  0.3885
  108OSM   H11F11165   6.278   4.026   9.444 -0.0284  0.2895  0.5462
  108OSM   H11G11166   6.377   4.182   9.416  1.0326 -1.7510  2.6197
  108OSM   C12F11167   6.239   4.122   9.269 -0.0229 -0.0450 -0.0679
  108OSM   H12F11168   6.250   4.219   9.217  0.3920  0.6074  1.2099
  108OSM   H12G11169   6.130   4.100   9.263 -0.0429 -1.1701  3.3025
  108OSM   C13F11170   6.312   4.017   9.190 -0.3099  0.2382  0.6290
  108OSM   H13F11171   6.276   3.917   9.222 -0.9107  0.4596  0.6508
  108OSM   H13G11172   6.420   4.031   9.213 -0.1445  0.2881 -0.1638
  108OSM   C14F11173   6.311   4.023   9.033 -0.3265 -0.3660  0.3816
  108OSM   H14F11174   6.329   4.129   9.005  0.5997 -0.4163  0.7839
  108OSM   H14G11175   6.207   4.002   9.002 -0.1343  0.1762 -0.6642
  108OSM   C15F11176   6.406   3.921   8.967  0.3087 -0.1714  0.2120
  108OSM   H15F11177   6.351   3.825   8.980 -1.7088  0.9014 -0.2278
  108OSM   H15G11178   6.501   3.934   9.024 -0.2134  2.1310  0.5690
  108OSM   C16F11179   6.446   3.952   8.819  0.7447  0.0156  0.5469
  108OSM   H16F11180   6.535   3.892   8.790  1.3439  0.2695  1.8270
  108OSM   H16G11181   6.470   4.061   8.818 -1.7055  0.5824 -1.1160
  108OSM   C17F11182   6.339   3.904   8.717  0.4512  0.7108 -0.3630
  108OSM   H17F11183   6.370   3.937   8.615 -0.3224 -1.4883 -1.3541
  108OSM   H17G11184   6.239   3.943   8.744  0.0209 -0.7514  0.1742
  108OSM   C18F11185   6.337   3.749   8.713 -0.1507 -0.2254  0.2905
  108OSM   H18F11186   6.440   3.709   8.715  0.3154  0.8703 -1.1303
  108OSM   H18G11187   6.285   3.713   8.622  0.7019  1.5890 -0.9364
  108OSM   H18H11188   6.284   3.713   8.804 -0.7633  0.1746  0.0945
  109OSM      N11189   6.750   6.008  10.762  0.5619 -0.1371  0.9899
  109OSM    C1511190   6.660   5.966  10.651  0.7304 -0.1310  0.9961
  109OSM   H15A11191   6.631   6.054  10.595  0.5285  0.0521  1.3858
  109OSM   H15B11192   6.566   5.920  10.678  0.5981  1.3923  3.3744
  109OSM   H15C11193   6.710   5.903  10.579  0.9916  2.5389 -1.2552
  109OSM    C1411194   6.854   6.083  10.696 -0.4822 -0.5776 -1.0300
  109OSM   H14A11195   6.803   6.152  10.631 -1.6487 -1.6195 -1.2376
  109OSM   H14B11196   6.919   6.031  10.627  1.1909  0.3258 -0.1677
  109OSM   H14C11197   6.914   6.145  10.760 -1.4207 -0.8087  0.0721
  109OSM    C1311198   6.670   6.091  10.858  0.4184  0.0153  0.2710
  109OSM   H13A11199   6.721   6.097  10.953  0.5605 -3.4196  0.4811
  109OSM   H13B11200   6.577   6.041  10.880  0.3237  0.6580  1.3271
  109OSM   H13C11201   6.646   6.183  10.806  2.6598  1.5240  1.8334
  109OSM    C1211202   6.806   5.885  10.832  0.1312  0.2982  0.2143
  109OSM   H12A11203   6.721   5.839  10.879  1.0916 -0.3663  1.3397
  109OSM   H12B11204   6.865   5.917  10.917  0.3695 -0.6238  0.4056
  109OSM    C1111205   6.904   5.793  10.748 -0.2842 -0.5430  0.3044
  109OSM   H11A11206   6.921   5.703  10.811  2.2011 -0.2811  0.0523
  109OSM   H11B11207   6.999   5.850  10.742 -1.4329  1.5576  1.3023
  109OSM      P11208   6.911   5.750  10.480 -0.1480  0.2573  0.4968
  109OSM    O1311209   7.042   5.678  10.476 -0.8198 -0.1982 -0.2042
  109OSM    O1411210   6.807   5.703  10.384 -0.5664 -0.5624  0.2570
  109OSM    O1111211   6.938   5.904  10.454 -0.4852  0.4566 -0.3637
  109OSM    O1211212   6.845   5.743  10.624 -0.3033 -0.0107 -0.3688
  109OSM    C1S11213   7.041   5.947  10.367 -0.4924 -0.1193  0.2030
  109OSM    H1S11214   7.125   5.878  10.343  0.3484  1.0720 -0.3378
  109OSM    H1T11215   7.092   6.036  10.409 -0.5479 -1.6440  3.6721
  109OSM     NF11216   7.091   6.003  10.130  0.5151  0.7549 -0.4266
  109OSM    HNF11217   7.094   6.101  10.115 -0.6348  0.7685 -0.6531
  109OSM    C2S11218   6.985   5.970  10.225 -0.3323 -0.1380 -0.0446
  109OSM    H2S11219   6.934   5.875  10.198  2.5315 -2.9456  3.7659
  109OSM    C3S11220   6.871   6.079  10.222 -0.0115 -0.9553 -0.5130
  109OSM    H3S11221   6.932   6.172  10.227  0.2350 -1.1257 -0.3560
  109OSM     O311222   6.780   6.074  10.325  0.0193 -0.2188 -0.0117
  109OSM    HO311223   6.815   6.001  10.376  2.8339 -0.1190 -1.6951
  109OSM    C4S11224   6.802   6.083  10.084  0.9144 -0.3216 -0.0866
  109OSM    H4S11225   6.862   6.116   9.998  0.8952  0.3408  0.1520
  109OSM    C5S11226   6.687   6.022  10.038  0.6602  0.2977 -0.3726
  109OSM    H5S11227   6.643   5.944  10.101 -0.8171  0.4076 -1.2517
  109OSM    C6S11228   6.631   6.024   9.900  0.1894  0.2837 -0.1746
  109OSM    H6S11229   6.523   6.046   9.895  0.4388  1.2531 -2.0901
  109OSM    H6T11230   6.636   5.921   9.859  2.7299  0.4442 -0.3482
  109OSM    C7S11231   6.708   6.099   9.792 -0.7512  0.2913 -0.4957
  109OSM    H7S11232   6.812   6.060   9.790 -0.3644  1.3422 -1.2781
  109OSM    H7T11233   6.697   6.208   9.810 -1.4843  0.4389 -1.7530
  109OSM    C8S11234   6.655   6.057   9.655 -0.4172 -0.0034 -0.5487
  109OSM    H8S11235   6.547   6.082   9.653 -0.3921  0.1339 -0.2734
  109OSM    H8T11236   6.671   5.948   9.644 -1.0659  0.1450 -3.2484
  109OSM    C9S11237   6.740   6.115   9.542 -0.6469 -0.3628 -0.3589
  109OSM    H9S11238   6.845   6.084   9.563 -0.3641  1.4392  0.9833
  109OSM    H9T11239   6.727   6.224   9.552  0.6035 -0.1123 -1.3971
  109OSM   C10S11240   6.686   6.089   9.406  0.1451  0.4981  1.0650
  109OSM   H10S11241   6.584   6.130   9.387 -0.3885 -1.7012 -1.1379
  109OSM   H10T11242   6.693   5.978   9.398 -1.2922  0.4985 -0.6221
  109OSM   C11S11243   6.766   6.159   9.300 -0.6916 -0.5053 -0.0852
  109OSM   H11S11244   6.871   6.138   9.327 -1.4563  0.5870  4.0345
  109OSM   H11T11245   6.743   6.266   9.322 -0.7258 -0.4974 -0.1579
  109OSM   C12S11246   6.722   6.141   9.151 -0.2148  0.1378  0.1121
  109OSM   H12S11247   6.622   6.188   9.140  0.2718  1.6614  1.9448
  109OSM   H12T11248   6.724   6.035   9.120  1.0978  0.3143 -0.4232
  109OSM   C13S11249   6.810   6.223   9.052 -0.2912  0.8066 -1.5199
  109OSM   H13S11250   6.910   6.176   9.040 -1.0163 -0.9609 -0.8317
  109OSM   H13T11251   6.822   6.329   9.086 -1.6973  1.2337 -2.3436
  109OSM   C14S11252   6.750   6.239   8.907  0.9139  0.1464  0.5680
  109OSM   H14S11253   6.644   6.270   8.917  0.0926 -2.2674 -0.3308
  109OSM   H14T11254   6.748   6.138   8.861  1.4489  0.6705 -0.6542
  109OSM   C15S11255   6.830   6.332   8.815  0.2515 -0.1050  0.0516
  109OSM   H15S11256   6.931   6.301   8.848  0.0276  0.4132  1.2579
  109OSM   H15T11257   6.811   6.440   8.838  0.7704 -0.0110  0.0362
  109OSM   C16S11258   6.799   6.320   8.664 -0.0516  0.0441  0.8167
  109OSM   H16S11259   6.699   6.351   8.627  1.1828  2.4931 -0.5460
  109OSM   H16T11260   6.799   6.216   8.624 -1.7345  0.4787 -0.3686
  109OSM   C17S11261   6.913   6.398   8.587  0.1778 -0.4210  0.4347
  109OSM   H17S11262   7.014   6.366   8.622  0.0999 -0.8403  0.2810
  109OSM   H17T11263   6.894   6.502   8.620 -0.3159  0.0514 -1.2965
  109OSM   C18S11264   6.900   6.369   8.436  0.4647 -0.0334 -0.6090
  109OSM   H18S11265   6.988   6.412   8.384 -0.1487  0.5662 -1.1566
  109OSM   H18T11266   6.813   6.419   8.388 -2.0080 -0.6897  2.9540
  109OSM   H18U11267   6.904   6.258   8.435 -2.5344 -0.2361  1.3648
  109OSM    C1F11268   7.177   5.918  10.069 -0.4066 -0.5475  0.1920
  109OSM     OF11269   7.203   5.809  10.113 -0.1197  0.4343 -0.1447
  109OSM    C2F11270   7.256   5.960   9.949  0.1149  0.4709  0.2870
  109OSM    H2F11271   7.365   5.940   9.963  0.3424  2.3355  1.3684
  109OSM    H2G11272   7.255   6.072   9.946 -0.4247  0.5131  1.6570
  109OSM    C3F11273   7.196   5.888   9.822 -0.2085 -0.3734 -0.3725
  109OSM    H3F11274   7.087   5.905   9.837 -0.0679 -1.2110  1.8156
  109OSM    H3G11275   7.232   5.783   9.821 -0.1693 -0.3791  0.4942
  109OSM    C4F11276   7.246   5.970   9.700  0.2113 -0.7439 -0.0991
  109OSM    H4F11277   7.354   5.996   9.707  0.2549 -0.8137 -0.4952
  109OSM    H4G11278   7.193   6.067   9.705  2.1646  0.2521  2.5494
  109OSM    C5F11279   7.223   5.895   9.568  0.6646  0.0959  0.1328
  109OSM    H5F11280   7.116   5.865   9.566  0.5711  0.1070  2.8697
  109OSM    H5G11281   7.279   5.801   9.552  3.7778  1.7134  1.0734
  109OSM    C6F11282   7.244   5.989   9.453 -0.3486  0.3231  0.1614
  109OSM    H6F11283   7.353   6.001   9.440 -0.4241 -0.2646 -1.1881
  109OSM    H6G11284   7.205   6.090   9.477  1.5078  1.1710 -0.2932
  109OSM    C7F11285   7.164   5.943   9.328 -0.2269 -0.3866 -0.0487
  109OSM    H7F11286   7.153   6.024   9.253  1.6133 -0.3157 -0.2493
  109OSM    H7G11287   7.064   5.919   9.370  0.6628 -2.0882  1.1777
  109OSM    C8F11288   7.223   5.819   9.267 -0.3286 -0.2520 -0.4746
  109OSM    H8F11289   7.202   5.737   9.339 -0.8485  2.6873  2.8575
  109OSM    H8G11290   7.334   5.818   9.269 -0.2912  1.9525  1.1782
  109OSM    C9F11291   7.175   5.786   9.133 -1.2144 -0.3413 -0.2487
  109OSM    H9F11292   7.154   5.678   9.130  1.1689 -0.8568  0.2168
  109OSM   C10F11293   7.207   5.854   9.021  0.0794  0.9181 -0.0834
  109OSM   H10F11294   7.158   5.828   8.927  0.2415  0.8550 -0.1498
  109OSM   C11F11295   7.285   5.979   9.010  0.5340 -0.1084  0.3663
  109OSM   H11F11296   7.316   6.010   9.112 -1.8164 -2.3639  1.8328
  109OSM   H11G11297   7.226   6.061   8.963  1.9869  1.1769  0.7605
  109OSM   C12F11298   7.402   5.969   8.911 -0.0868  0.0237  0.0880
  109OSM   H12F11299   7.360   5.939   8.813  1.6040 -0.6529 -0.4510
  109OSM   H12G11300   7.474   5.894   8.951  2.4389  0.8382 -2.7483
  109OSM   C13F11301   7.477   6.094   8.882  0.6305 -0.0530  0.4511
  109OSM   H13F11302   7.481   6.159   8.972 -0.4220  0.6228  0.0307
  109OSM   H13G11303   7.431   6.158   8.803  0.4372 -0.1997  0.4444
  109OSM   C14F11304   7.622   6.052   8.848 -0.3826  0.3375  0.6833
  109OSM   H14F11305   7.607   5.972   8.773  1.2994 -0.3183  1.0327
  109OSM   H14G11306   7.675   6.008   8.936 -1.7612 -1.0588  0.8329
  109OSM   C15F11307   7.707   6.162   8.792  0.3052  0.6494 -0.1165
  109OSM   H15F11308   7.810   6.124   8.779 -0.1902 -0.7614 -0.0846
  109OSM   H15G11309   7.700   6.241   8.869  0.4577  2.5407 -1.9881
  109OSM   C16F11310   7.677   6.209   8.646 -0.1732  0.6678  0.4707
  109OSM   H16F11311   7.573   6.246   8.652 -0.1118  1.4686 -2.5478
  109OSM   H16G11312   7.666   6.139   8.561  0.8357  1.8707 -0.6840
  109OSM   C17F11313   7.773   6.310   8.606  0.1182 -0.0601 -0.5006
  109OSM   H17F11314   7.873   6.264   8.617  1.0142  1.8731 -0.3794
  109OSM   H17G11315   7.764   6.395   8.677  0.1208 -1.1706  0.8593
  109OSM   C18F11316   7.751   6.368   8.464  0.2617 -0.2291 -0.6133
  109OSM   H18F11317   7.784   6.299   8.383  0.2358  0.5368 -1.2783
  109OSM   H18G11318   7.805   6.461   8.438  2.5222 -1.2993  0.0280
  109OSM   H18H11319   7.642   6.384   8.456 -0.0875  0.1522  3.8466
  110OSM      N11320   1.276   5.304  10.745  0.6885  1.0585  0.3927
  110OSM    C1511321   1.237   5.164  10.715  0.3724  0.3822 -0.6799
  110OSM   H15A11322   1.297   5.101  10.779 -0.7594 -0.2231 -0.2077
  110OSM   H15B11323   1.256   5.128  10.615  2.5845 -0.1733 -0.0876
  110OSM   H15C11324   1.134   5.151  10.742  0.9162  1.6481  2.1764
  110OSM    C1411325   1.185   5.399  10.668 -0.1365 -0.0511  0.0701
  110OSM   H14A11326   1.088   5.409  10.713 -0.3541  0.2367 -0.4579
  110OSM   H14B11327   1.178   5.346  10.574  0.1696 -2.3792  1.3488
  110OSM   H14C11328   1.233   5.495  10.651 -2.2207  0.6226 -2.4237
  110OSM    C1311329   1.255   5.330  10.892  0.4197  0.0444  0.2118
  110OSM   H13A11330   1.162   5.291  10.932  0.8087 -0.8613  0.2570
  110OSM   H13B11331   1.250   5.436  10.909  3.0110 -0.4363  4.6926
  110OSM   H13C11332   1.333   5.295  10.958  0.0912  0.2705  0.7249
  110OSM    C1211333   1.418   5.334  10.708  0.4693  0.0502  0.3114
  110OSM   H12A11334   1.436   5.440  10.715  1.1416 -0.1492  1.7230
  110OSM   H12B11335   1.438   5.285  10.614  1.0769  0.8315  0.0253
  110OSM    C1111336   1.533   5.280  10.794 -0.1677  0.5628  1.7023
  110OSM   H11A11337   1.534   5.342  10.886 -2.9562 -0.3552  2.3982
  110OSM   H11B11338   1.627   5.286  10.736  0.0399  0.8907  2.0719
  110OSM      P11339   1.622   5.036  10.846 -0.3617 -0.3577 -0.0576
  110OSM    O1311340   1.744   5.089  10.915 -0.2823 -0.2254 -0.3784
  110OSM    O1411341   1.563   4.916  10.911 -0.1307  0.0335  0.1940
  110OSM    O1111342   1.651   5.005  10.697 -0.1213  0.2217  0.0132
  110OSM    O1211343   1.512   5.144  10.840 -0.0682 -0.2456 -0.0548
  110OSM    C1S11344   1.550   4.946  10.612  0.0096  1.1245 -0.3935
  110OSM    H1S11345   1.454   4.999  10.628  0.0087  1.1086 -0.3476
  110OSM    H1T11346   1.531   4.840  10.638 -1.3249  1.7862  1.3802
  110OSM     NF11347   1.494   4.923  10.368 -0.4914  0.4720  0.0046
  110OSM    HNF11348   1.513   4.844  10.310 -3.0723  0.9254 -1.5452
  110OSM    C2S11349   1.603   4.959  10.461  0.0398  0.1218  0.4526
  110OSM    H2S11350   1.638   5.063  10.440 -1.5583  0.4431 -0.7111
  110OSM    C3S11351   1.725   4.867  10.445  0.5275 -0.3037  0.3821
  110OSM    H3S11352   1.706   4.765  10.485 -0.0116  0.4665  2.1417
  110OSM     O311353   1.837   4.917  10.519 -0.2031  0.0108 -0.3108
  110OSM    HO311354   1.794   4.946  10.599  1.6995 -1.6290  1.3543
  110OSM    C4S11355   1.769   4.845  10.295 -0.3166  0.5732  0.2415
  110OSM    H4S11356   1.788   4.943  10.249  0.4325  0.1452 -0.3715
  110OSM    C5S11357   1.770   4.725  10.234 -0.2072  0.0703 -0.0215
  110OSM    H5S11358   1.761   4.644  10.308  1.1607 -0.0488  0.0227
  110OSM    C6S11359   1.797   4.684  10.086 -0.3895 -0.4760 -1.1771
  110OSM    H6S11360   1.716   4.617  10.051  0.0119 -1.4534 -0.2621
  110OSM    H6T11361   1.894   4.629  10.082  0.7801  1.4487 -0.1126
  110OSM    C7S11362   1.793   4.798   9.984 -0.5592 -0.2886  0.5902
  110OSM    H7S11363   1.870   4.875  10.008  1.1896 -1.6434 -0.5113
  110OSM    H7T11364   1.691   4.842   9.983 -1.4060 -2.1971 -1.0387
  110OSM    C8S11365   1.810   4.768   9.833  0.2830 -0.1277  0.1803
  110OSM    H8S11366   1.912   4.740   9.798  0.2516 -1.5962  1.2668
  110OSM    H8T11367   1.777   4.864   9.787 -0.3674  0.4479  1.8246
  110OSM    C9S11368   1.707   4.665   9.786 -0.3572  0.4197 -0.2501
  110OSM    H9S11369   1.608   4.689   9.832  0.0331  2.2820 -0.3603
  110OSM    H9T11370   1.738   4.564   9.820  2.1994  1.1670 -0.2226
  110OSM   C10S11371   1.715   4.666   9.631  0.3452  0.0638 -0.1812
  110OSM   H10S11372   1.812   4.619   9.604 -0.3984 -1.0643 -0.9264
  110OSM   H10T11373   1.712   4.770   9.591  3.8434  0.1145 -0.5045
  110OSM   C11S11374   1.601   4.588   9.559  0.0884 -0.2109  0.1555
  110OSM   H11S11375   1.507   4.643   9.582 -0.6958 -0.3609 -2.5373
  110OSM   H11T11376   1.592   4.484   9.598  3.4504 -1.0935 -1.2563
  110OSM   C12S11377   1.623   4.573   9.408 -0.4355 -0.1010 -0.2611
  110OSM   H12S11378   1.706   4.500   9.394 -0.2010  0.7058 -3.3482
  110OSM   H12T11379   1.653   4.670   9.363  1.1620 -0.6725 -0.4468
  110OSM   C13S11380   1.508   4.512   9.340  0.2434 -0.1499 -0.2639
  110OSM   H13S11381   1.411   4.559   9.366  0.7381  0.3252  0.7622
  110OSM   H13T11382   1.511   4.409   9.382 -0.3938  0.0842  0.3675
  110OSM   C14S11383   1.521   4.516   9.188 -0.0511  0.1941  0.5239
  110OSM   H14S11384   1.597   4.445   9.152  0.6952  1.8233 -1.1777
  110OSM   H14T11385   1.560   4.614   9.154 -1.3148  0.9646  1.2421
  110OSM   C15S11386   1.378   4.508   9.120  0.0895  0.3870  0.3235
  110OSM   H15S11387   1.290   4.554   9.170 -0.4913 -1.7821  1.3150
  110OSM   H15T11388   1.352   4.402   9.103  2.1752 -0.4011  1.9185
  110OSM   C16S11389   1.392   4.569   8.976 -0.0783 -0.3244  0.2344
  110OSM   H16S11390   1.476   4.536   8.911 -1.2954 -1.1034 -0.9735
  110OSM   H16T11391   1.406   4.676   9.003 -1.1060 -0.2384  0.4496
  110OSM   C17S11392   1.257   4.555   8.906 -0.2860  0.3570 -0.8550
  110OSM   H17S11393   1.265   4.587   8.800  1.7916 -0.1305 -0.8639
  110OSM   H17T11394   1.178   4.618   8.952 -1.0772 -1.1663 -0.1320
  110OSM   C18S11395   1.193   4.419   8.891 -0.2741  0.1433 -0.1099
  110OSM   H18S11396   1.265   4.341   8.861  0.6119  0.6292  0.7404
  110OSM   H18T11397   1.107   4.413   8.820 -2.2025 -2.4690  2.3590
  110OSM   H18U11398   1.146   4.389   8.987  0.7737 -0.3450  0.2463
  110OSM    C1F11399   1.380   4.989  10.384 -0.5169 -0.3996  0.0419
  110OSM     OF11400   1.383   5.104  10.432 -0.2255  0.1154 -0.7482
  110OSM    C2F11401   1.253   4.913  10.363  0.1418 -0.3347 -0.1763
  110OSM    H2F11402   1.227   4.858  10.456 -1.5658 -0.8162 -0.9382
  110OSM    H2G11403   1.273   4.842  10.281 -1.9645  1.2771 -2.1371
  110OSM    C3F11404   1.133   5.009  10.341  0.1665  1.0125  0.5893
  110OSM    H3F11405   1.101   5.065  10.431 -2.0797 -0.2363  0.6139
  110OSM    H3G11406   1.043   4.945  10.329  1.4516 -0.5063 -1.3744
  110OSM    C4F11407   1.134   5.092  10.215 -0.0986 -0.0130  0.5403
  110OSM    H4F11408   1.205   5.173  10.243  2.0521 -1.3493 -0.8770
  110OSM    H4G11409   1.034   5.136  10.197 -0.7012 -0.6289  2.2999
  110OSM    C5F11410   1.162   5.024  10.091  0.3921 -0.7981  0.2508
  110OSM    H5F11411   1.084   4.953  10.056 -0.6493  0.5222 -0.1729
  110OSM    H5G11412   1.260   4.974  10.106  0.0594 -1.3643  0.5472
  110OSM    C6F11413   1.174   5.113   9.969  0.3054 -0.2802 -0.4009
  110OSM    H6F11414   1.210   5.065   9.875  4.2103  1.7186 -0.0213
  110OSM    H6G11415   1.257   5.183   9.991 -1.3744  0.7252  3.0013
  110OSM    C7F11416   1.050   5.194   9.926 -0.4448  0.5912 -0.8376
  110OSM    H7F11417   1.010   5.256  10.010 -0.9685 -1.2242  0.2914
  110OSM    H7G11418   0.976   5.118   9.892 -2.0383  1.2904  0.9598
  110OSM    C8F11419   1.090   5.277   9.807  0.4650 -0.4719  0.5401
  110OSM    H8F11420   1.132   5.205   9.733  0.8995 -0.3597  0.6789
  110OSM    H8G11421   1.167   5.347   9.846  0.1223  0.9583 -1.2436
  110OSM    C9F11422   0.964   5.337   9.738  0.2036 -0.4788  0.4612
  110OSM    H9F11423   0.954   5.446   9.737 -1.3682 -0.5912  1.2647
  110OSM   C10F11424   0.877   5.267   9.653 -0.6297 -0.4009 -0.2720
  110OSM   H10F11425   0.808   5.335   9.601  0.2220  0.7071  0.0388
  110OSM   C11F11426   0.863   5.118   9.607  0.0326 -0.0166  0.5782
  110OSM   H11F11427   0.795   5.059   9.673 -1.0478 -0.2016 -0.6939
  110OSM   H11G11428   0.964   5.071   9.610  0.1066 -0.0151 -1.3722
  110OSM   C12F11429   0.835   5.081   9.458  0.4931 -0.3481  0.1193
  110OSM   H12F11430   0.731   5.111   9.433  1.2607  0.2878 -2.4632
  110OSM   H12G11431   0.837   4.971   9.445 -1.3038 -0.6308  1.9948
  110OSM   C13F11432   0.936   5.132   9.360 -0.2405  0.4103  0.1015
  110OSM   H13F11433   1.035   5.121   9.409  0.3330  1.6268 -0.7689
  110OSM   H13G11434   0.931   5.243   9.355 -2.0393  0.4479  2.0389
  110OSM   C14F11435   0.921   5.059   9.221 -0.1347 -0.7514 -0.2373
  110OSM   H14F11436   0.827   5.098   9.177  0.3868 -0.5400 -1.1694
  110OSM   H14G11437   0.895   4.954   9.248 -2.1599  0.1458  1.4185
  110OSM   C15F11438   1.036   5.092   9.121 -0.0265  0.6057  0.8666
  110OSM   H15F11439   1.132   5.081   9.174  0.1157 -0.7207  0.3447
  110OSM   H15G11440   1.029   5.200   9.097  0.7374  0.8315  1.6755
  110OSM   C16F11441   1.022   5.007   8.989 -0.2335 -0.1661  0.8903
  110OSM   H16F11442   0.983   4.905   9.009  0.5100 -0.6951 -0.3459
  110OSM   H16G11443   1.124   4.992   8.947 -0.5578 -0.1828  0.0955
  110OSM   C17F11444   0.943   5.084   8.886 -0.8505 -0.1923 -0.0197
  110OSM   H17F11445   0.990   5.184   8.877 -1.7642  0.1683 -0.8849
  110OSM   H17G11446   0.836   5.103   8.910 -0.7744 -1.5295  1.4843
  110OSM   C18F11447   0.948   5.004   8.752  0.1907 -0.2071 -0.0561
  110OSM   H18F11448   0.903   4.904   8.766  0.3277 -0.1077  1.0962
  110OSM   H18G11449   1.057   5.009   8.729  0.1726 -0.9514 -0.3001
  110OSM   H18H11450   0.894   5.054   8.668  0.4990  1.6038  0.7887
  111OSM      N11451   2.187   2.299  10.813  0.6165  0.5001  0.1979
  111OSM    C1511452   2.171   2.159  10.866 -0.2792  0.0011 -0.0698
  111OSM   H15A11453   2.071   2.129  10.895 -1.6498  1.9837 -2.6118
  111OSM   H15B11454   2.237   2.145  10.950 -3.7247 -0.4368  2.7178
  111OSM   H15C11455   2.198   2.089  10.789 -1.8343  1.4662 -1.9941
  111OSM    C1411456   2.069   2.350  10.735 -0.1322 -0.0598  0.5127
  111OSM   H14A11457   1.987   2.348  10.805 -2.5718 -0.5859 -2.2335
  111OSM   H14B11458   2.047   2.278  10.658  0.3437 -1.0919  1.3380
  111OSM   H14C11459   2.077   2.451  10.697 -3.1362  0.3542  0.8047
  111OSM    C1311460   2.210   2.403  10.929  0.1990  0.4193  0.1665
  111OSM   H13A11461   2.193   2.498  10.881 -0.9885  0.6724  1.0502
  111OSM   H13B11462   2.305   2.377  10.973  0.5883 -3.2407 -2.6464
  111OSM   H13C11463   2.127   2.392  10.998 -0.3949 -2.0892 -0.9110
  111OSM    C1211464   2.311   2.316  10.738 -0.4074  0.2386  0.3537
  111OSM   H12A11465   2.402   2.301  10.794  0.7389 -2.2474 -2.0344
  111OSM   H12B11466   2.320   2.417  10.702  0.8028  0.5280  1.4346
  111OSM    C1111467   2.348   2.230  10.616 -0.3763  0.1582  0.4552
  111OSM   H11A11468   2.440   2.278  10.579  0.9269 -0.2660  2.9937
  111OSM   H11B11469   2.278   2.239  10.530  0.8337  1.7596 -0.3846
  111OSM      P11470   2.493   2.021  10.695  0.1612 -0.2196  0.1187
  111OSM    O1311471   2.581   2.126  10.759 -0.2583  0.4664  0.8144
  111OSM    O1411472   2.472   1.897  10.769  0.3259  0.0783  0.3911
  111OSM    O1111473   2.557   1.987  10.551 -0.1141  0.3424 -0.7158
  111OSM    O1211474   2.357   2.087  10.645  0.0607 -0.1293  0.3906
  111OSM    C1S11475   2.527   1.877  10.473 -0.0197 -0.1978 -0.5605
  111OSM    H1S11476   2.500   1.789  10.536  0.6150  0.1280  0.1723
  111OSM    H1T11477   2.620   1.841  10.422  1.4928 -0.1906  2.1007
  111OSM     NF11478   2.383   1.802  10.294 -0.1573  0.0961 -0.1024
  111OSM    HNF11479   2.425   1.783  10.205  0.6288 -0.8605  0.4659
  111OSM    C2S11480   2.421   1.915  10.361  0.3876  0.2817  0.2811
  111OSM    H2S11481   2.333   1.957  10.414 -1.4508 -0.9830 -1.7204
  111OSM    C3S11482   2.482   2.030  10.273  0.8369 -0.4592  0.1272
  111OSM    H3S11483   2.581   2.008  10.229  0.2544 -2.7233 -0.0801
  111OSM     O311484   2.502   2.144  10.352 -0.7937 -0.1454 -0.4095
  111OSM    HO311485   2.501   2.106  10.441 -0.7375  0.7354 -0.0307
  111OSM    C4S11486   2.381   2.059  10.155 -0.2356  0.3163  0.0992
  111OSM    H4S11487   2.351   1.970  10.099 -1.0852  1.1655 -0.8072
  111OSM    C5S11488   2.326   2.175  10.118 -0.1160 -0.4026 -0.1168
  111OSM    H5S11489   2.324   2.260  10.188  0.3629 -2.4443  2.4860
  111OSM    C6S11490   2.235   2.183   9.995  0.0990  0.1199  0.5155
  111OSM    H6S11491   2.229   2.286   9.953  0.8926 -0.6852 -1.6462
  111OSM    H6T11492   2.126   2.173  10.016 -0.6356  3.5249 -1.1602
  111OSM    C7S11493   2.282   2.090   9.877 -0.2049 -0.4919 -0.2318
  111OSM    H7S11494   2.289   1.987   9.916  1.2609 -1.3006 -2.5158
  111OSM    H7T11495   2.383   2.113   9.838 -0.1696  1.1038  0.7439
  111OSM    C8S11496   2.183   2.098   9.755 -0.4450 -0.1945 -0.2954
  111OSM    H8S11497   2.181   2.201   9.714 -0.2053 -0.8355 -1.9741
  111OSM    H8T11498   2.079   2.067   9.780 -0.0645 -2.4745 -1.3628
  111OSM    C9S11499   2.241   2.014   9.632 -0.3488 -0.4420 -0.5698
  111OSM    H9S11500   2.236   1.907   9.664  0.4514 -0.5549 -0.8180
  111OSM    H9T11501   2.345   2.049   9.618 -0.3559  0.6582  1.8282
  111OSM   C10S11502   2.156   2.030   9.502  0.5621 -0.6473  0.2693
  111OSM   H10S11503   2.166   2.132   9.460  0.2336 -0.9679 -0.6176
  111OSM   H10T11504   2.049   2.002   9.515  1.0785 -2.6707  0.4440
  111OSM   C11S11505   2.227   1.950   9.383 -0.3712  0.5799 -0.3437
  111OSM   H11S11506   2.234   1.844   9.415 -0.7163  0.7906  0.4537
  111OSM   H11T11507   2.335   1.974   9.378 -0.0299 -0.8067  0.1363
  111OSM   C12S11508   2.164   1.949   9.250 -0.4869  0.1849  0.4194
  111OSM   H12S11509   2.054   1.934   9.258 -0.6905  1.9989  1.2039
  111OSM   H12T11510   2.217   1.874   9.187 -0.0174  0.6752  0.2334
  111OSM   C13S11511   2.198   2.075   9.177  0.4053 -0.1819 -0.1311
  111OSM   H13S11512   2.297   2.061   9.128 -1.3491 -1.3899 -3.4433
  111OSM   H13T11513   2.226   2.161   9.241 -0.8615  0.7468 -0.8121
  111OSM   C14S11514   2.089   2.102   9.074 -0.0246  0.0403 -0.3208
  111OSM   H14S11515   1.991   2.123   9.121  0.6971 -0.8856  1.6351
  111OSM   H14T11516   2.073   2.003   9.026 -2.1649  0.0082  0.4181
  111OSM   C15S11517   2.136   2.215   8.977 -0.5021  0.5412 -0.2731
  111OSM   H15S11518   2.227   2.179   8.925 -0.2456  0.4225  0.2464
  111OSM   H15T11519   2.167   2.303   9.037 -0.0277  0.3519 -0.2443
  111OSM   C16S11520   2.020   2.253   8.889  0.3588  0.8802  0.0745
  111OSM   H16S11521   2.048   2.339   8.824  2.9006 -1.8317 -2.5196
  111OSM   H16T11522   1.940   2.283   8.961  0.2555 -0.5619  0.5641
  111OSM   C17S11523   1.963   2.144   8.796  0.2756  0.1455  0.6536
  111OSM   H17S11524   1.950   2.052   8.856  1.6132  0.0386  0.7989
  111OSM   H17T11525   2.048   2.120   8.728 -0.3489  0.4415 -0.2447
  111OSM   C18S11526   1.831   2.184   8.731  0.1747  0.2930 -0.5821
  111OSM   H18S11527   1.760   2.238   8.797 -0.8500  0.4991 -1.8269
  111OSM   H18T11528   1.788   2.088   8.695  0.5290  0.1255 -0.5632
  111OSM   H18U11529   1.842   2.244   8.638 -2.3959  0.8620 -0.5516
  111OSM    C1F11530   2.292   1.713  10.342  0.6880 -0.2048  0.1622
  111OSM     OF11531   2.254   1.725  10.456  0.9973 -0.2504  0.2567
  111OSM    C2F11532   2.247   1.610  10.239 -0.3603 -0.1627  0.7617
  111OSM    H2F11533   2.229   1.512  10.289 -0.2067  0.1367  1.4123
  111OSM    H2G11534   2.332   1.599  10.168 -0.6844  3.3024 -0.2465
  111OSM    C3F11535   2.118   1.646  10.168  0.3411 -0.2185 -0.3606
  111OSM    H3F11536   2.126   1.747  10.122 -0.9583 -0.9161 -2.1367
  111OSM    H3G11537   2.039   1.661  10.245 -0.6662  0.3123 -1.4870
  111OSM    C4F11538   2.069   1.550  10.060 -0.4955  0.0939 -0.3727
  111OSM    H4F11539   1.962   1.568  10.035 -0.0199  1.2482 -1.6131
  111OSM    H4G11540   2.074   1.445  10.096  0.2619  0.1555 -0.2870
  111OSM    C5F11541   2.154   1.559   9.937  0.7617  0.3782  0.3263
  111OSM    H5F11542   2.154   1.458   9.892 -1.3892  1.0758 -1.3215
  111OSM    H5G11543   2.260   1.585   9.961  1.0061 -2.2615  2.3653
  111OSM    C6F11544   2.075   1.631   9.824 -0.6203 -0.1775 -0.0368
  111OSM    H6F11545   2.075   1.742   9.820 -1.6440 -0.2358 -2.1472
  111OSM    H6G11546   1.971   1.590   9.826 -1.4082  1.7175 -0.5812
  111OSM    C7F11547   2.144   1.599   9.696 -0.2105 -0.3995  0.6219
  111OSM    H7F11548   2.136   1.490   9.678 -0.1229  0.0043 -1.9941
  111OSM    H7G11549   2.249   1.632   9.710  0.3482 -2.4995  1.6482
  111OSM    C8F11550   2.092   1.661   9.561  0.4243  0.5631 -0.9715
  111OSM    H8F11551   2.159   1.612   9.487 -1.2333 -0.4497 -1.8459
  111OSM    H8G11552   2.108   1.771   9.567 -0.0506  0.5861 -0.0824
  111OSM    C9F11553   1.947   1.632   9.537 -0.0116  0.2926 -0.0457
  111OSM    H9F11554   1.885   1.633   9.627  1.2280 -2.4246  0.8771
  111OSM   C10F11555   1.895   1.596   9.419  0.5160  0.7469 -0.7741
  111OSM   H10F11556   1.787   1.577   9.419  0.9719 -2.1431  0.5853
  111OSM   C11F11557   1.979   1.583   9.295 -0.0888  0.2187 -0.2213
  111OSM   H11F11558   2.056   1.662   9.281  2.1770 -1.5748  1.7266
  111OSM   H11G11559   1.909   1.608   9.212 -1.2758  0.2005  0.7506
  111OSM   C12F11560   2.045   1.449   9.277  0.2974 -0.7048  0.4986
  111OSM   H12F11561   1.963   1.374   9.271 -2.3301  2.0476  0.6508
  111OSM   H12G11562   2.105   1.434   9.369  0.0754  2.1784  1.1734
  111OSM   C13F11563   2.137   1.441   9.155  0.7311  0.7322  0.0739
  111OSM   H13F11564   2.185   1.340   9.156 -1.5857 -0.4199 -0.3464
  111OSM   H13G11565   2.204   1.529   9.161 -0.0554  1.3169  0.4446
  111OSM   C14F11566   2.049   1.460   9.037 -0.0483  0.8085  0.7344
  111OSM   H14F11567   2.015   1.566   9.033 -1.5691  0.3174  0.2805
  111OSM   H14G11568   1.960   1.394   9.046  0.1628  0.3140 -0.6055
  111OSM   C15F11569   2.128   1.430   8.908  0.6165 -0.0052  0.0088
  111OSM   H15F11570   2.162   1.324   8.905 -1.2303 -0.5880 -1.7050
  111OSM   H15G11571   2.209   1.505   8.896  0.8961 -0.6888 -2.8023
  111OSM   C16F11572   2.030   1.454   8.786 -0.0306  0.0746  0.4540
  111OSM   H16F11573   2.020   1.558   8.750 -1.8130 -0.1483  0.2486
  111OSM   H16G11574   1.930   1.412   8.808 -0.5197 -0.8005 -3.1044
  111OSM   C17F11575   2.081   1.373   8.666  0.0058 -0.1561 -0.4818
  111OSM   H17F11576   2.006   1.370   8.584 -0.7303 -2.4653  0.2211
  111OSM   H17G11577   2.088   1.267   8.700 -0.4904 -0.5007 -1.4400
  111OSM   C18F11578   2.221   1.410   8.614  0.8635  0.1704 -0.1841
  111OSM   H18F11579   2.223   1.412   8.503  0.7942  2.2715 -0.1729
  111OSM   H18G11580   2.301   1.339   8.643  0.3187 -1.1187 -1.7043
  111OSM   H18H11581   2.253   1.506   8.659 -0.0189  0.1067  0.6011
  112OSM      N11582   2.869   6.284  11.153  0.3143  0.0374  0.2852
  112OSM    C1511583   2.764   6.385  11.210  0.4407  0.1814 -0.3171
  112OSM   H15A11584   2.665   6.343  11.203  0.2757  0.4766  0.2061
  112OSM   H15B11585   2.758   6.482  11.161 -2.2681 -0.2878 -0.9923
  112OSM   H15C11586   2.774   6.404  11.316 -0.7653 -0.7778 -0.0213
  112OSM    C1411587   3.003   6.329  11.197  0.7284 -0.2401 -0.0327
  112OSM   H14A11588   3.081   6.269  11.154 -1.3909 -3.0855 -0.0575
  112OSM   H14B11589   3.008   6.311  11.303 -0.5563 -4.1061 -0.5406
  112OSM   H14C11590   3.017   6.433  11.172 -0.5980 -0.5899 -2.3891
  112OSM    C1311591   2.828   6.147  11.206  0.2737  0.8299  0.4176
  112OSM   H13A11592   2.846   6.143  11.313  1.1563  1.1733  0.2884
  112OSM   H13B11593   2.897   6.074  11.168 -2.3763 -0.6296 -1.7251
  112OSM   H13C11594   2.732   6.124  11.162  0.9997 -0.0540 -0.7169
  112OSM    C1211595   2.858   6.276  11.003 -0.3224 -0.8945 -0.1143
  112OSM   H12A11596   2.856   6.380  10.972 -0.1871 -0.1794  2.1776
  112OSM   H12B11597   2.763   6.230  10.982 -0.0481 -0.5582 -2.1875
  112OSM    C1111598   2.968   6.208  10.916 -0.4239 -0.3156 -0.6281
  112OSM   H11A11599   3.064   6.254  10.947 -1.7443 -0.4985  4.2385
  112OSM   H11B11600   2.954   6.239  10.810 -0.1936 -0.5897 -0.7354
  112OSM      P11601   2.896   5.981  10.833 -0.3438 -0.3069 -0.4302
  112OSM    O1311602   2.966   5.850  10.813  0.0364  0.2489 -0.1530
  112OSM    O1411603   2.754   5.981  10.887 -0.0295 -0.0642  0.0062
  112OSM    O1111604   2.902   6.061  10.692  0.4706  0.2478  1.0620
  112OSM    O1211605   2.976   6.072  10.933  0.2350 -0.1475 -0.5673
  112OSM    C1S11606   2.779   6.116  10.632  0.0693 -0.5352  0.1211
  112OSM    H1S11607   2.717   6.183  10.695 -0.9705 -0.4999 -0.9219
  112OSM    H1T11608   2.717   6.032  10.592 -1.2801  0.9315 -0.9227
  112OSM     NF11609   2.731   6.282  10.449 -0.3078  0.0206 -0.0637
  112OSM    HNF11610   2.692   6.251  10.363 -0.1922  0.3760 -0.2422
  112OSM    C2S11611   2.836   6.194  10.513  0.4583  0.6688  0.7725
  112OSM    H2S11612   2.920   6.258  10.547  1.9208 -1.1938  0.7088
  112OSM    C3S11613   2.887   6.096  10.405  0.2135  0.0147  0.8977
  112OSM    H3S11614   2.812   6.019  10.376 -3.0444  3.4359 -0.2283
  112OSM     O311615   2.989   6.011  10.445 -0.1036 -0.0527 -0.4583
  112OSM    HO311616   2.950   5.977  10.526 -3.0118  0.5783 -1.5422
  112OSM    C4S11617   2.929   6.173  10.272 -0.3330  0.4709  0.0922
  112OSM    H4S11618   2.978   6.270  10.289  0.4054 -0.1082  1.4069
  112OSM    C5S11619   2.884   6.129  10.154  0.6429 -0.2106  0.8200
  112OSM    H5S11620   2.827   6.035  10.153  0.2797  0.0017  1.5769
  112OSM    C6S11621   2.899   6.193  10.019  0.1581 -0.3234 -0.1761
  112OSM    H6S11622   2.945   6.124   9.946 -0.0720  0.3154 -0.9268
  112OSM    H6T11623   2.965   6.282  10.025 -2.1052  1.3701  0.5196
  112OSM    C7S11624   2.762   6.226   9.958  0.0459 -0.4991  0.9191
  112OSM    H7S11625   2.709   6.296  10.027 -0.3452  0.9314 -0.7802
  112OSM    H7T11626   2.706   6.131   9.942 -2.2270  1.0837 -0.9221
  112OSM    C8S11627   2.778   6.294   9.818  0.2875  0.4298 -0.2139
  112OSM    H8S11628   2.849   6.232   9.758  1.6711  1.0238  0.7755
  112OSM    H8T11629   2.839   6.384   9.842  0.6814 -0.1959  1.1610
  112OSM    C9S11630   2.644   6.315   9.746 -0.1784 -0.6326  0.2161
  112OSM    H9S11631   2.579   6.373   9.815 -0.1313 -0.1139 -0.1719
  112OSM    H9T11632   2.604   6.212   9.745  1.6676 -1.3848  1.1794
  112OSM   C10S11633   2.683   6.381   9.609 -0.4813  0.1784  0.1747
  112OSM   H10S11634   2.763   6.315   9.571 -0.3279 -0.3224  1.3689
  112OSM   H10T11635   2.721   6.484   9.623  1.0447  0.1263 -3.1173
  112OSM   C11S11636   2.573   6.380   9.500 -0.3901  0.4134 -0.3859
  112OSM   H11S11637   2.478   6.405   9.553 -0.4878  0.8736 -0.7708
  112OSM   H11T11638   2.551   6.284   9.448  1.6603  0.0092 -0.5202
  112OSM   C12S11639   2.597   6.491   9.396  0.2936 -0.7152  0.2218
  112OSM   H12S11640   2.703   6.491   9.363  0.6007  0.3122  1.1962
  112OSM   H12T11641   2.590   6.592   9.442 -0.5398 -1.0818  0.9036
  112OSM   C13S11642   2.481   6.508   9.283  0.4994  0.2434  0.3134
  112OSM   H13S11643   2.384   6.532   9.332 -0.1480  1.9508 -1.7191
  112OSM   H13T11644   2.479   6.407   9.236 -1.7316  0.4801 -0.1739
  112OSM   C14S11645   2.515   6.623   9.175 -0.7211  0.1079 -0.1319
  112OSM   H14S11646   2.541   6.717   9.228 -1.1327 -0.6468  1.4397
  112OSM   H14T11647   2.417   6.625   9.123  0.1498  2.8433 -1.7465
  112OSM   C15S11648   2.617   6.582   9.070 -0.1114 -0.4163  0.5747
  112OSM   H15S11649   2.564   6.526   8.990  1.7931  0.5784 -1.4077
  112OSM   H15T11650   2.699   6.518   9.111  0.1919 -0.2644  0.2005
  112OSM   C16S11651   2.678   6.711   9.018  0.2272  0.9364 -0.1083
  112OSM   H16S11652   2.720   6.765   9.105  0.6545 -2.0810  1.6404
  112OSM   H16T11653   2.607   6.776   8.962 -0.6966  0.8248  0.9404
  112OSM   C17S11654   2.806   6.702   8.937 -0.5398  0.1566 -1.0044
  112OSM   H17S11655   2.785   6.632   8.854 -0.4107 -1.2527  0.1427
  112OSM   H17T11656   2.878   6.649   9.001  0.7822  1.3259 -1.4935
  112OSM   C18S11657   2.861   6.833   8.879 -0.5626  0.5501 -0.4079
  112OSM   H18S11658   2.852   6.902   8.965  0.7282 -2.7532  2.4765
  112OSM   H18T11659   2.807   6.869   8.789 -0.2758 -0.0167 -0.8131
  112OSM   H18U11660   2.965   6.817   8.843 -1.4871  0.3942 -3.1208
  112OSM    C1F11661   2.687   6.389  10.510  0.2042 -0.6261 -0.3419
  112OSM     OF11662   2.736   6.432  10.618 -0.3088  0.5286  0.1023
  112OSM    C2F11663   2.571   6.460  10.445  0.4516  0.2551  0.0732
  112OSM    H2F11664   2.519   6.514  10.527  4.4125  3.3525  0.7050
  112OSM    H2G11665   2.496   6.387  10.408  0.5672  0.6223 -0.8795
  112OSM    C3F11666   2.606   6.562  10.334  0.1733  0.3652 -0.0567
  112OSM    H3F11667   2.681   6.636  10.369  1.3386 -0.7941 -0.0464
  112OSM    H3G11668   2.511   6.616  10.316  0.6940  1.7570  1.2863
  112OSM    C4F11669   2.656   6.494  10.198 -0.1293 -0.0331  0.3631
  112OSM    H4F11670   2.584   6.414  10.171  0.4621 -0.6400  0.5801
  112OSM    H4G11671   2.747   6.434  10.217 -0.5826 -0.5632  0.8525
  112OSM    C5F11672   2.671   6.588  10.083  0.1547 -0.6391  0.3317
  112OSM    H5F11673   2.740   6.549  10.005 -0.7910  0.6484 -1.1952
  112OSM    H5G11674   2.726   6.676  10.121  0.3269  0.0060 -1.3489
  112OSM    C6F11675   2.541   6.632  10.018 -0.7943 -0.2147 -0.3785
  112OSM    H6F11676   2.469   6.700  10.067  1.7731  2.8214 -0.6425
  112OSM    H6G11677   2.489   6.537   9.992  1.4268 -0.9280 -2.4602
  112OSM    C7F11678   2.570   6.702   9.884  0.2794  0.7550  0.2229
  112OSM    H7F11679   2.638   6.635   9.828 -0.4306  1.2182 -1.1976
  112OSM    H7G11680   2.627   6.796   9.896  0.1460  0.8238  0.3260
  112OSM    C8F11681   2.443   6.724   9.794 -0.2642  0.0488  0.0425
  112OSM    H8F11682   2.381   6.633   9.809  0.2166 -0.2734  0.0760
  112OSM    H8G11683   2.482   6.746   9.692 -0.4037  1.0547  0.1977
  112OSM    C9F11684   2.347   6.834   9.840  0.1556 -0.3457 -0.2132
  112OSM    H9F11685   2.282   6.811   9.926  0.6398 -2.3483 -0.3556
  112OSM   C10F11686   2.335   6.955   9.778 -0.6883  0.1229  0.4240
  112OSM   H10F11687   2.265   7.030   9.816 -1.4934 -0.8260  0.8296
  112OSM   C11F11688   2.414   7.001   9.662  1.1729  0.7410 -0.3435
  112OSM   H11F11689   2.516   6.956   9.654 -0.0504 -2.3608  0.8548
  112OSM   H11G11690   2.428   7.111   9.670  1.2330  0.8605 -1.8245
  112OSM   C12F11691   2.335   6.979   9.532 -0.1078  0.2393  0.3425
  112OSM   H12F11692   2.246   7.044   9.537 -1.1026 -1.0749 -0.0041
  112OSM   H12G11693   2.305   6.874   9.508 -2.3705  0.9068  0.2037
  112OSM   C13F11694   2.417   7.019   9.405  0.9698  0.7457  0.3964
  112OSM   H13F11695   2.496   6.944   9.380  0.8867  0.9853 -0.5837
  112OSM   H13G11696   2.470   7.116   9.415  1.5497  0.4567  0.1408
  112OSM   C14F11697   2.337   7.036   9.276  0.9947 -0.3502  0.8114
  112OSM   H14F11698   2.251   7.105   9.290  0.0669 -1.1318 -0.8299
  112OSM   H14G11699   2.285   6.941   9.248 -1.9122  0.7844  2.2204
  112OSM   C15F11700   2.438   7.074   9.164 -0.1715  0.3668 -0.6311
  112OSM   H15F11701   2.517   6.996   9.163  1.1499  1.6966 -1.0993
  112OSM   H15G11702   2.494   7.164   9.195 -0.3004  0.2434 -0.0443
  112OSM   C16F11703   2.370   7.082   9.025  0.5609  0.7629 -0.4801
  112OSM   H16F11704   2.293   7.162   9.019 -2.3630 -1.7770  1.7172
  112OSM   H16G11705   2.309   6.990   9.013  0.2743  0.5884  2.0884
  112OSM   C17F11706   2.460   7.102   8.902  0.0570 -0.0711 -0.2305
  112OSM   H17F11707   2.500   7.002   8.877 -1.4384 -0.5655 -0.6769
  112OSM   H17G11708   2.560   7.149   8.919  0.1109 -0.9594  2.1205
  112OSM   C18F11709   2.390   7.151   8.768 -0.0318 -0.0934 -1.1815
  112OSM   H18F11710   2.371   7.261   8.776  0.0414 -0.1537 -0.0670
  112OSM   H18G11711   2.295   7.099   8.746 -0.6236  1.3603 -2.1934
  112OSM   H18H11712   2.465   7.131   8.689 -0.6737  0.1555 -1.8650
  113OSM      N11713   6.596   2.213  11.142  0.3282  0.4866 -0.2624
  113OSM    C1511714   6.713   2.297  11.185  0.0168 -0.2647  0.3709
  113OSM   H15A11715   6.786   2.232  11.231  0.2279 -0.9280 -0.8798
  113OSM   H15B11716   6.691   2.361  11.269 -0.3681 -0.2595  0.2645
  113OSM   H15C11717   6.749   2.361  11.105  0.3784  1.2762  1.7425
  113OSM    C1411718   6.635   2.121  11.031 -0.4054 -0.2144  0.0242
  113OSM   H14A11719   6.553   2.053  11.014  1.5248 -2.2295 -1.6717
  113OSM   H14B11720   6.716   2.058  11.063 -1.6171 -2.4275 -1.1396
  113OSM   H14C11721   6.678   2.176  10.948 -2.6953  3.3852  1.1104
  113OSM    C1311722   6.537   2.139  11.261 -1.0231 -0.5039 -0.3563
  113OSM   H13A11723   6.443   2.095  11.231 -0.8589 -0.3328 -1.1375
  113OSM   H13B11724   6.517   2.191  11.353  0.2342  0.8181 -0.7918
  113OSM   H13C11725   6.596   2.051  11.280  1.1714  1.4000  2.0080
  113OSM    C1211726   6.480   2.305  11.094  0.3721  0.5394  0.2946
  113OSM   H12A11727   6.468   2.383  11.168  1.0309  0.1367  0.8385
  113OSM   H12B11728   6.390   2.246  11.087  0.7471 -0.2464  1.8822
  113OSM    C1111729   6.487   2.386  10.962 -0.3516 -0.5941 -0.1728
  113OSM   H11A11730   6.390   2.432  10.933 -0.4116 -0.4216  0.2892
  113OSM   H11B11731   6.513   2.319  10.878  0.0704 -0.6968  0.0352
  113OSM      P11732   6.552   2.617  11.035 -0.3055 -0.3787  0.3382
  113OSM    O1311733   6.488   2.600  11.170 -0.1306  0.1848  0.4394
  113OSM    O1411734   6.673   2.707  11.030 -0.7655  0.2663  0.2572
  113OSM    O1111735   6.443   2.686  10.938  0.1580 -0.0344 -0.3668
  113OSM    O1211736   6.584   2.480  10.970 -0.7565 -0.0782 -0.0179
  113OSM    C1S11737   6.458   2.662  10.802  0.4778 -0.7261 -0.1399
  113OSM    H1S11738   6.470   2.558  10.767  1.3002 -0.8750  0.5778
  113OSM    H1T11739   6.551   2.709  10.763 -0.6288  1.2783 -0.4856
  113OSM     NF11740   6.395   2.758  10.575 -0.6531 -0.3062  0.2428
  113OSM    HNF11741   6.422   2.850  10.547 -1.2394 -0.8337 -2.1905
  113OSM    C2S11742   6.356   2.746  10.720  0.0776  0.7006 -0.2762
  113OSM    H2S11743   6.261   2.688  10.722  1.3533 -1.3802  2.2859
  113OSM    C3S11744   6.317   2.886  10.789 -0.0034 -1.1905 -0.0724
  113OSM    H3S11745   6.408   2.949  10.788 -1.5465  1.1368  0.8345
  113OSM     O311746   6.292   2.884  10.927 -0.0047  0.4981 -0.6540
  113OSM    HO311747   6.345   2.805  10.945  1.6542  2.5667  4.4715
  113OSM    C4S11748   6.198   2.954  10.721 -0.5760 -0.2020 -0.6353
  113OSM    H4S11749   6.117   2.890  10.685 -2.5163  1.3434  0.8648
  113OSM    C5S11750   6.184   3.090  10.700 -0.2991  0.5454  0.8824
  113OSM    H5S11751   6.259   3.169  10.720  0.0124  0.1178  1.4052
  113OSM    C6S11752   6.059   3.144  10.628 -0.6825 -0.1693  0.0339
  113OSM    H6S11753   6.043   3.253  10.643  0.2164 -0.1921  1.2122
  113OSM    H6T11754   5.974   3.084  10.669 -1.7038  2.6127  2.1124
  113OSM    C7S11755   6.069   3.110  10.470 -0.0118  0.0132  0.1669
  113OSM    H7S11756   5.978   3.157  10.427  0.2716 -0.3783 -0.8803
  113OSM    H7T11757   6.068   2.999  10.458  3.3251 -0.0669  0.1318
  113OSM    C8S11758   6.180   3.182  10.393 -0.6665 -0.3907  0.8479
  113OSM    H8S11759   6.211   3.281  10.432  2.4345 -0.9271 -0.1755
  113OSM    H8T11760   6.133   3.194  10.293  1.7991 -2.2663 -0.5833
  113OSM    C9S11761   6.304   3.094  10.385 -0.0927  0.1151  0.1694
  113OSM    H9S11762   6.259   2.993  10.376 -0.7254  0.4783 -0.9010
  113OSM    H9T11763   6.356   3.092  10.483 -2.7442  0.5652  1.6430
  113OSM   C10S11764   6.399   3.110  10.267  0.2651  0.0726 -0.8390
  113OSM   H10S11765   6.495   3.063  10.299 -0.3215 -0.3447  0.3345
  113OSM   H10T11766   6.419   3.219  10.256 -2.2944  0.6618  0.2131
  113OSM   C11S11767   6.346   3.054  10.135  0.2544  0.2808 -0.1150
  113OSM   H11S11768   6.246   3.099  10.114  0.2741  0.3528 -0.0592
  113OSM   H11T11769   6.317   2.949  10.154 -0.7084  0.2609 -1.5875
  113OSM   C12S11770   6.439   3.079  10.018 -0.0882 -0.0353  0.5567
  113OSM   H12S11771   6.540   3.046  10.053 -0.8460 -1.1805  1.7201
  113OSM   H12T11772   6.450   3.185   9.986 -1.2301 -0.1207 -0.1297
  113OSM   C13S11773   6.403   2.986   9.901 -0.2200 -0.2166 -0.0256
  113OSM   H13S11774   6.320   2.915   9.920  1.2330 -1.4091  2.0401
  113OSM   H13T11775   6.495   2.929   9.878 -0.8927 -1.2192 -0.2725
  113OSM   C14S11776   6.361   3.061   9.773 -0.1507 -0.3103  0.2658
  113OSM   H14S11777   6.281   3.135   9.797 -0.6314 -0.6855 -0.1682
  113OSM   H14T11778   6.300   2.987   9.717 -0.5063  0.0584  0.1565
  113OSM   C15S11779   6.466   3.124   9.679  0.1993  0.6406 -0.2324
  113OSM   H15S11780   6.540   3.041   9.668 -1.7236 -1.1610  0.0401
  113OSM   H15T11781   6.519   3.206   9.732 -0.4745  0.4488  0.7479
  113OSM   C16S11782   6.401   3.161   9.545  0.1998 -0.0093 -0.1815
  113OSM   H16S11783   6.332   3.247   9.561  1.6675  1.0054  0.8405
  113OSM   H16T11784   6.340   3.071   9.522 -0.7305  0.6164 -0.2163
  113OSM   C17S11785   6.498   3.190   9.427  0.0049  0.2111 -0.0553
  113OSM   H17S11786   6.439   3.210   9.335 -0.0071 -0.4235 -0.1900
  113OSM   H17T11787   6.571   3.110   9.403  0.2847  0.2093  0.8061
  113OSM   C18S11788   6.583   3.316   9.452 -0.9167  0.1521 -0.2973
  113OSM   H18S11789   6.653   3.325   9.366 -0.7495 -0.3679 -0.2163
  113OSM   H18T11790   6.629   3.290   9.550  0.2071  1.5662 -0.4310
  113OSM   H18U11791   6.530   3.414   9.453  1.1559  1.3192 -0.2426
  113OSM    C1F11792   6.401   2.662  10.487  0.0249 -0.1161 -0.4283
  113OSM     OF11793   6.338   2.560  10.505 -0.1342  0.3555  0.2332
  113OSM    C2F11794   6.471   2.685  10.356 -0.1989 -0.0517  0.7825
  113OSM    H2F11795   6.567   2.629  10.353 -1.0050 -1.4497  0.8055
  113OSM    H2G11796   6.492   2.794  10.348  2.9465 -0.6161  0.4490
  113OSM    C3F11797   6.385   2.643  10.233 -0.3991  0.1943  0.3199
  113OSM    H3F11798   6.290   2.701  10.232  0.4750  1.6216 -0.5752
  113OSM    H3G11799   6.348   2.538  10.237 -0.8774  0.3284 -0.4676
  113OSM    C4F11800   6.445   2.672  10.095 -0.3193  0.0834  0.5938
  113OSM    H4F11801   6.546   2.626  10.093  0.3567  1.5750  0.0400
  113OSM    H4G11802   6.442   2.782  10.076  1.8347 -0.0015 -0.3724
  113OSM    C5F11803   6.370   2.605   9.978 -0.4566 -0.0301 -0.2912
  113OSM    H5F11804   6.272   2.650   9.952 -0.6916  0.5819  1.5344
  113OSM    H5G11805   6.355   2.495   9.987 -0.7991 -0.1746 -2.5057
  113OSM    C6F11806   6.442   2.618   9.846  0.9114 -0.3746 -0.2029
  113OSM    H6F11807   6.525   2.545   9.852 -0.4546 -2.2452 -2.8239
  113OSM    H6G11808   6.468   2.724   9.824 -0.4474  0.0291  0.0615
  113OSM    C7F11809   6.352   2.580   9.727 -0.1517 -0.5470 -0.8227
  113OSM    H7F11810   6.262   2.643   9.716  0.0989 -0.1045 -0.3455
  113OSM    H7G11811   6.314   2.477   9.745 -1.4247  0.2427  1.0949
  113OSM    C8F11812   6.430   2.579   9.593  0.8963 -1.0299  0.7711
  113OSM    H8F11813   6.364   2.543   9.511  0.8631  0.4157  0.1353
  113OSM    H8G11814   6.507   2.499   9.585  3.3219  1.2997 -0.1599
  113OSM    C9F11815   6.492   2.715   9.549 -0.0475 -0.4307  0.2997
  113OSM    H9F11816   6.589   2.737   9.596  0.6306  1.9094 -2.0646
  113OSM   C10F11817   6.440   2.802   9.456  0.7529  0.0333 -0.0312
  113OSM   H10F11818   6.485   2.901   9.444  0.5547 -0.0796 -1.7578
  113OSM   C11F11819   6.312   2.780   9.372  0.3045 -0.0425 -0.3735
  113OSM   H11F11820   6.239   2.856   9.406 -2.4682 -1.9260 -1.9001
  113OSM   H11G11821   6.266   2.679   9.378 -0.0981  0.2342  1.7377
  113OSM   C12F11822   6.349   2.798   9.225  0.2481 -0.7175 -0.7665
  113OSM   H12F11823   6.433   2.735   9.188  1.2931  1.3186 -1.9715
  113OSM   H12G11824   6.373   2.903   9.195 -0.4312 -0.7517 -1.4511
  113OSM   C13F11825   6.222   2.760   9.134 -0.4402 -1.0165  0.1439
  113OSM   H13F11826   6.145   2.836   9.158  1.0162  1.3586 -2.3794
  113OSM   H13G11827   6.198   2.654   9.157  1.7707 -1.2120  1.7032
  113OSM   C14F11828   6.251   2.762   8.982  0.6467  0.0878 -0.3343
  113OSM   H14F11829   6.310   2.668   8.967 -1.7125 -1.6556  0.8878
  113OSM   H14G11830   6.310   2.854   8.962 -0.7005  0.8075 -1.0487
  113OSM   C15F11831   6.126   2.747   8.896 -0.8618  0.0259 -0.5727
  113OSM   H15F11832   6.043   2.810   8.933 -1.1761 -0.3981 -0.5488
  113OSM   H15G11833   6.094   2.641   8.903  1.2256 -0.5594  0.3826
  113OSM   C16F11834   6.164   2.786   8.754 -0.8541 -0.5083  0.5686
  113OSM   H16F11835   6.225   2.704   8.710 -1.2901 -0.0605 -0.8944
  113OSM   H16G11836   6.218   2.883   8.739  1.3621 -1.2550  3.2857
  113OSM   C17F11837   6.044   2.782   8.667  0.4438  0.2537 -0.7540
  113OSM   H17F11838   5.964   2.849   8.705 -0.1944  0.3617 -2.2659
  113OSM   H17G11839   5.993   2.685   8.681  1.5796 -0.4794 -1.5458
  113OSM   C18F11840   6.075   2.788   8.518 -0.3465 -0.8133  1.1316
  113OSM   H18F11841   5.980   2.776   8.460  0.6143 -0.1933 -0.6162
  113OSM   H18G11842   6.148   2.712   8.485 -0.4779  0.0857 -1.3630
  113OSM   H18H11843   6.125   2.884   8.491  0.4685 -1.1936  1.3035
  114OSM      N11844   1.288   6.144  10.833  0.1864 -0.0280  0.4386
  114OSM    C1511845   1.178   6.054  10.795 -0.2175  0.3359  0.1463
  114OSM   H15A11846   1.097   6.067  10.865 -0.1217  4.3324 -0.3769
  114OSM   H15B11847   1.220   5.955  10.788 -0.2390  0.2774  0.9052
  114OSM   H15C11848   1.135   6.085  10.700  1.7230  4.0516  0.4183
  114OSM    C1411849   1.383   6.140  10.721  0.7353 -0.0799 -0.1180
  114OSM   H14A11850   1.434   6.046  10.706  0.4362 -0.3150  0.3421
  114OSM   H14B11851   1.451   6.223  10.734  0.5212  0.2259 -0.9371
  114OSM   H14C11852   1.327   6.164  10.631 -2.0560  0.7675  1.7795
  114OSM    C1311853   1.239   6.286  10.838  1.0951 -0.0007 -0.3252
  114OSM   H13A11854   1.158   6.291  10.910 -1.2759 -1.4658 -2.7984
  114OSM   H13B11855   1.205   6.311  10.739 -2.4482 -0.8739  0.6001
  114OSM   H13C11856   1.317   6.353  10.869  0.4433  0.9661 -0.7645
  114OSM    C1211857   1.340   6.094  10.966 -0.2372 -1.1594 -0.0269
  114OSM   H12A11858   1.274   6.141  11.037 -2.4313 -2.4352 -1.1783
  114OSM   H12B11859   1.435   6.145  10.981 -1.2363  1.3083 -1.6930
  114OSM    C1111860   1.335   5.942  10.996 -0.4553  0.6675  0.1319
  114OSM   H11A11861   1.234   5.896  10.986 -0.0009 -0.1045 -1.1324
  114OSM   H11B11862   1.375   5.914  11.096 -1.3635 -0.2210  0.2521
  114OSM      P11863   1.404   5.711  10.902 -0.3784 -0.2187 -0.0024
  114OSM    O1311864   1.464   5.655  11.024  0.2167 -0.7216  0.0180
  114OSM    O1411865   1.264   5.673  10.874 -0.1439  0.2551 -0.1539
  114OSM    O1111866   1.497   5.660  10.784  0.0246  0.0185  0.1952
  114OSM    O1211867   1.410   5.868  10.901  0.0636  0.4891  0.0958
  114OSM    C1S11868   1.470   5.706  10.654 -0.4419  0.2595 -0.0571
  114OSM    H1S11869   1.434   5.811  10.660 -1.8595 -0.2620  0.8912
  114OSM    H1T11870   1.403   5.632  10.605  0.9892 -1.1329  0.0213
  114OSM     NF11871   1.562   5.765  10.433  0.4501 -0.7280  0.2166
  114OSM    HNF11872   1.554   5.695  10.362  0.3324  1.4592 -2.0264
  114OSM    C2S11873   1.599   5.716  10.569  0.1012  0.0489  0.3191
  114OSM    H2S11874   1.651   5.801  10.618  0.3789 -1.0254  1.9288
  114OSM    C3S11875   1.682   5.591  10.584  0.7670 -0.2048  0.8032
  114OSM    H3S11876   1.627   5.506  10.539  0.6638 -0.3418  1.1836
  114OSM     O311877   1.715   5.544  10.714  0.6491  0.0923  0.2524
  114OSM    HO311878   1.648   5.592  10.763  0.8392  1.9362 -1.2164
  114OSM    C4S11879   1.814   5.603  10.509 -0.4696 -0.2200 -0.1843
  114OSM    H4S11880   1.803   5.561  10.408 -0.8404  0.4529 -0.4265
  114OSM    C5S11881   1.941   5.652  10.545  0.4588 -0.1039 -0.0254
  114OSM    H5S11882   1.949   5.683  10.650 -4.5180 -3.1395  1.4675
  114OSM    C6S11883   2.063   5.659  10.462 -0.6419 -0.5845  0.7207
  114OSM    H6S11884   2.153   5.602  10.494  0.1324 -0.2630 -0.8081
  114OSM    H6T11885   2.101   5.764  10.467  0.0399 -0.7554 -0.6455
  114OSM    C7S11886   2.047   5.613  10.317  0.2357  0.2951  0.5325
  114OSM    H7S11887   1.978   5.685  10.267 -0.3566 -0.9440 -0.4897
  114OSM    H7T11888   1.987   5.521  10.301  0.9581 -0.0096 -0.5371
  114OSM    C8S11889   2.181   5.627  10.241 -0.1784  0.5267  0.0808
  114OSM    H8S11890   2.249   5.551  10.284 -1.7023 -0.9411 -0.0451
  114OSM    H8T11891   2.208   5.733  10.262  1.3535  0.0857  0.3880
  114OSM    C9S11892   2.175   5.619  10.087 -0.2537  0.7759 -0.2198
  114OSM    H9S11893   2.092   5.679  10.045  0.6412  1.7542 -0.6068
  114OSM    H9T11894   2.154   5.515  10.053  0.9826  0.5428 -0.2835
  114OSM   C10S11895   2.304   5.668  10.017 -0.3460 -0.3582 -0.2465
  114OSM   H10S11896   2.387   5.598  10.043 -0.9139 -0.5377  1.1257
  114OSM   H10T11897   2.347   5.764  10.054  2.5201 -1.3037 -0.9945
  114OSM   C11S11898   2.284   5.683   9.866  0.7859  0.4288 -0.4341
  114OSM   H11S11899   2.374   5.731   9.822 -0.4428  0.9907 -2.4277
  114OSM   H11T11900   2.197   5.752   9.857  0.9307  0.6004 -0.5448
  114OSM   C12S11901   2.253   5.548   9.803 -0.0089  0.4297 -0.1360
  114OSM   H12S11902   2.157   5.506   9.839  1.4497 -1.2022  1.9349
  114OSM   H12T11903   2.335   5.479   9.832 -1.8679 -1.5493  0.4911
  114OSM   C13S11904   2.245   5.563   9.648  0.4629  0.6408  0.3613
  114OSM   H13S11905   2.177   5.648   9.626 -0.0086 -0.0011 -0.6585
  114OSM   H13T11906   2.211   5.464   9.612  1.7671  0.5218 -0.5874
  114OSM   C14S11907   2.384   5.598   9.577 -0.4689  0.6516  0.6532
  114OSM   H14S11908   2.450   5.514   9.608 -2.4455 -0.8035  1.0530
  114OSM   H14T11909   2.419   5.696   9.615  1.4371 -0.6083  2.2433
  114OSM   C15S11910   2.385   5.578   9.423  0.1949  0.6258 -0.5498
  114OSM   H15S11911   2.321   5.653   9.372 -3.3479 -1.3982  0.7523
  114OSM   H15T11912   2.337   5.480   9.402 -0.8799  0.4943  2.2498
  114OSM   C16S11913   2.523   5.598   9.357 -0.1899 -0.0517  0.3243
  114OSM   H16S11914   2.586   5.517   9.399  1.1103  0.9648  0.3865
  114OSM   H16T11915   2.569   5.694   9.389  2.5853 -0.9893 -0.6396
  114OSM   C17S11916   2.530   5.589   9.204 -0.0890  0.4987 -0.7512
  114OSM   H17S11917   2.489   5.678   9.153 -1.5077 -0.3698 -1.1250
  114OSM   H17T11918   2.466   5.503   9.180 -0.5725  0.8734 -0.8080
  114OSM   C18S11919   2.675   5.583   9.142  0.6957 -0.0132  0.7478
  114OSM   H18S11920   2.749   5.657   9.179  2.2978  0.2220 -2.7383
  114OSM   H18T11921   2.671   5.601   9.033  0.4050  0.2871  0.8062
  114OSM   H18U11922   2.716   5.483   9.169 -0.4400 -1.1565 -1.6331
  114OSM    C1F11923   1.504   5.890  10.409  0.0660  0.7695  1.0200
  114OSM     OF11924   1.488   5.966  10.501  0.5418 -0.0889  0.1331
  114OSM    C2F11925   1.441   5.920  10.271 -0.6000  0.1996 -0.2738
  114OSM    H2F11926   1.514   5.991  10.228 -0.2617  1.2232  1.9219
  114OSM    H2G11927   1.340   5.966  10.269 -0.9359 -0.5036  0.2446
  114OSM    C3F11928   1.437   5.792  10.182  0.1707  0.4040  0.1129
  114OSM    H3F11929   1.371   5.720  10.236 -0.4926 -0.2538 -1.5495
  114OSM    H3G11930   1.542   5.759  10.168 -0.4257 -2.1881  1.3243
  114OSM    C4F11931   1.371   5.822  10.054  0.7585 -0.5455  0.0046
  114OSM    H4F11932   1.427   5.906  10.007 -0.8997  0.7940  0.3569
  114OSM    H4G11933   1.267   5.856  10.075  0.7396 -1.0476  0.7547
  114OSM    C5F11934   1.372   5.699   9.964 -0.2429 -0.2306 -0.8194
  114OSM    H5F11935   1.295   5.625   9.998  0.0329 -0.3340 -0.4098
  114OSM    H5G11936   1.473   5.652   9.962  1.0241  2.3936 -0.7568
  114OSM    C6F11937   1.350   5.748   9.824 -0.7211 -0.1960 -0.1940
  114OSM    H6F11938   1.434   5.817   9.799 -0.9828  0.7564  1.4529
  114OSM    H6G11939   1.250   5.798   9.819 -0.7325 -0.2526 -0.5146
  114OSM    C7F11940   1.345   5.633   9.714 -0.0762 -0.1991  0.2684
  114OSM    H7F11941   1.288   5.549   9.760  1.0112 -1.0135  0.1313
  114OSM    H7G11942   1.447   5.596   9.693 -0.2341  0.1015 -1.0426
  114OSM    C8F11943   1.281   5.687   9.578  0.7722  0.3969 -0.3111
  114OSM    H8F11944   1.183   5.736   9.598  0.6085  0.8437 -2.1721
  114OSM    H8G11945   1.265   5.590   9.527 -0.4083  0.5373 -0.2316
  114OSM    C9F11946   1.378   5.776   9.509  0.0262 -0.2049  0.5620
  114OSM    H9F11947   1.386   5.870   9.565  2.3452 -1.0663  1.7148
  114OSM   C10F11948   1.456   5.744   9.405  0.1778 -0.2525 -0.0610
  114OSM   H10F11949   1.500   5.827   9.348  0.7271  0.5364  1.4839
  114OSM   C11F11950   1.439   5.619   9.328 -0.5641 -1.1382  0.0001
  114OSM   H11F11951   1.332   5.590   9.334 -1.7807  2.6579 -1.5864
  114OSM   H11G11952   1.495   5.536   9.377  0.9479 -0.2411 -0.1668
  114OSM   C12F11953   1.472   5.632   9.175  0.1218 -0.3751 -0.4344
  114OSM   H12F11954   1.578   5.663   9.160 -0.0279 -0.3984 -1.5553
  114OSM   H12G11955   1.406   5.713   9.138  2.4048  1.8174  0.2117
  114OSM   C13F11956   1.448   5.506   9.092 -0.0704 -0.2622  0.3481
  114OSM   H13F11957   1.523   5.430   9.124 -0.3092  0.0351  1.6385
  114OSM   H13G11958   1.483   5.542   8.993  0.6689  0.5582  0.8944
  114OSM   C14F11959   1.306   5.459   9.077 -0.1031 -0.0745  0.5697
  114OSM   H14F11960   1.256   5.542   9.023  1.1919 -0.5007 -1.3110
  114OSM   H14G11961   1.252   5.447   9.174 -1.3014 -2.3669 -0.3256
  114OSM   C15F11962   1.289   5.333   8.988  0.0403  0.7205  0.4449
  114OSM   H15F11963   1.185   5.295   9.003  0.1683 -0.0495 -0.5816
  114OSM   H15G11964   1.366   5.264   9.029  0.2984  0.0512 -1.1469
  114OSM   C16F11965   1.317   5.360   8.840 -0.2207  0.8211  0.1310
  114OSM   H16F11966   1.425   5.371   8.813  0.4457 -0.1876  2.2467
  114OSM   H16G11967   1.258   5.451   8.820  0.5809  1.9288  2.5691
  114OSM   C17F11968   1.249   5.256   8.750  0.2512 -0.3908 -0.4087
  114OSM   H17F11969   1.142   5.249   8.780 -0.2153  0.0524 -1.9369
  114OSM   H17G11970   1.297   5.157   8.763  0.1062 -0.3688  0.2879
  114OSM   C18F11971   1.248   5.290   8.602 -0.5649  0.4530 -0.3113
  114OSM   H18F11972   1.199   5.212   8.539  0.3711  0.9198 -1.6283
  114OSM   H18G11973   1.353   5.294   8.567  0.3423 -3.1981  1.6630
  114OSM   H18H11974   1.210   5.392   8.578  0.2365  1.1151  1.1818
  115OSM      N11975   5.175   5.026  11.404  0.1915  0.7019  0.3913
  115OSM    C1511976   5.324   5.050  11.430  0.2075  0.0987 -0.9078
  115OSM   H15A11977   5.369   5.048  11.332  0.7142  0.3909 -0.6839
  115OSM   H15B11978   5.375   4.966  11.475 -0.2400  0.7585  0.8912
  115OSM   H15C11979   5.337   5.140  11.489  1.0156 -1.1372  0.8334
  115OSM    C1411980   5.098   4.987  11.534 -0.0953 -0.0534 -0.0270
  115OSM   H14A11981   5.155   4.909  11.581 -2.8899 -1.3386  1.3218
  115OSM   H14B11982   4.993   4.972  11.512 -0.5576  0.2438  1.8525
  115OSM   H14C11983   5.110   5.064  11.609  1.0629 -0.5157  0.2711
  115OSM    C1311984   5.117   5.156  11.367 -0.1632  0.3743  0.3396
  115OSM   H13A11985   5.143   5.235  11.435 -1.0964 -1.0132  2.3520
  115OSM   H13B11986   5.009   5.153  11.376 -0.1449  1.6618  1.0131
  115OSM   H13C11987   5.146   5.189  11.268  0.4443 -1.9641 -0.3124
  115OSM    C1211988   5.136   4.917  11.297  0.3689 -1.0363  0.2184
  115OSM   H12A11989   5.031   4.894  11.306 -0.3367  2.5859  2.2124
  115OSM   H12B11990   5.180   4.819  11.313 -0.3233 -1.0936  1.8954
  115OSM    C1111991   5.157   4.949  11.148 -0.5258  0.1595  0.2785
  115OSM   H11A11992   5.101   5.041  11.121  0.9690  0.8138 -0.6525
  115OSM   H11B11993   5.116   4.867  11.085 -0.7010 -1.3490  2.2947
  115OSM      P11994   5.388   4.852  11.074  0.2084 -0.0753 -0.6179
  115OSM    O1311995   5.521   4.903  11.027 -0.6582 -0.0737  1.0080
  115OSM    O1411996   5.392   4.753  11.178 -0.0351  0.0974 -0.8630
  115OSM    O1111997   5.308   4.791  10.951 -0.0446  0.6354 -0.0270
  115OSM    O1211998   5.296   4.968  11.123 -0.6424  0.3808  0.4283
  115OSM    C1S11999   5.279   4.870  10.838  0.3632  0.0842 -0.5771
  115OSM    H1S12000   5.243   4.974  10.854 -1.3098 -0.5137 -0.2917
  115OSM    H1T12001   5.191   4.824  10.788  0.5103 -1.5900  0.6562
  115OSM     NF12002   5.344   4.958  10.620 -0.3116 -0.1213 -0.1098
  115OSM    HNF12003   5.305   4.909  10.543  0.6840  0.7993 -1.2104
  115OSM    C2S12004   5.392   4.878  10.734 -0.1806 -0.8870  0.5104
  115OSM    H2S12005   5.479   4.934  10.777  0.6999 -1.7073 -0.1720
  115OSM    C3S12006   5.446   4.737  10.700 -0.3155 -0.3996  0.0356
  115OSM    H3S12007   5.361   4.667  10.683 -1.6513  1.1691  0.0994
  115OSM     O312008   5.526   4.671  10.796 -0.3697 -0.0371  0.0411
  115OSM    HO312009   5.528   4.736  10.867 -2.2401 -0.0939  0.1586
  115OSM    C4S12010   5.526   4.762  10.574  0.6415  0.1926 -0.4173
  115OSM    H4S12011   5.589   4.851  10.575 -0.2167  0.8062  0.5772
  115OSM    C5S12012   5.515   4.687  10.466  0.0559  0.0971  0.6686
  115OSM    H5S12013   5.433   4.613  10.460  0.1118  0.1103 -0.4196
  115OSM    C6S12014   5.585   4.695  10.332 -0.6421  0.3347 -0.0668
  115OSM    H6S12015   5.634   4.596  10.320  0.2616  0.8977 -1.1427
  115OSM    H6T12016   5.665   4.772  10.326  0.4774 -0.9340 -1.8624
  115OSM    C7S12017   5.492   4.710  10.212 -0.1925  0.3610  0.3230
  115OSM    H7S12018   5.413   4.631  10.219  0.4008 -0.1747  1.0228
  115OSM    H7T12019   5.551   4.697  10.119  0.4592 -0.3297  0.8226
  115OSM    C8S12020   5.412   4.843  10.209  1.4309 -0.8347  0.1746
  115OSM    H8S12021   5.488   4.923  10.204  1.4412 -0.7273  1.6099
  115OSM    H8T12022   5.355   4.852  10.304 -1.7957 -1.4459 -1.6484
  115OSM    C9S12023   5.307   4.862  10.106 -0.4183  0.2613  0.2193
  115OSM    H9S12024   5.351   4.877  10.005 -0.9745 -0.4093 -0.1313
  115OSM    H9T12025   5.260   4.961  10.123 -0.0475  0.4197  0.3127
  115OSM   C10S12026   5.203   4.756  10.103 -0.6624 -0.8317 -0.0004
  115OSM   H10S12027   5.167   4.740  10.207  3.1218 -1.0567  1.3283
  115OSM   H10T12028   5.245   4.660  10.067  0.5118 -0.7328  1.0954
  115OSM   C11S12029   5.083   4.811  10.017 -0.0124  0.6143 -0.7323
  115OSM   H11S12030   5.064   4.919  10.029 -2.9673  0.0460  0.0407
  115OSM   H11T12031   4.994   4.757  10.054  0.9761  0.4038  1.3897
  115OSM   C12S12032   5.105   4.786   9.865 -0.0587  0.9766  0.7473
  115OSM   H12S12033   5.121   4.677   9.855  0.4349  0.9593  1.6873
  115OSM   H12T12034   5.199   4.838   9.836  0.1391  0.8929  1.2364
  115OSM   C13S12035   4.989   4.815   9.770  0.0080 -0.1367  0.0139
  115OSM   H13S12036   4.976   4.924   9.754 -1.8210 -0.3669 -0.1484
  115OSM   H13T12037   4.902   4.754   9.804  0.3906 -0.1802  0.9004
  115OSM   C14S12038   5.015   4.754   9.629  0.2953 -0.0315  0.0212
  115OSM   H14S12039   5.038   4.645   9.629  0.8649  0.0836 -0.6155
  115OSM   H14T12040   5.110   4.795   9.588 -0.5692  1.6304 -0.3814
  115OSM   C15S12041   4.914   4.791   9.521  0.4441 -0.0950 -0.3103
  115OSM   H15S12042   4.900   4.901   9.530  2.4534  0.1555 -0.0151
  115OSM   H15T12043   4.811   4.752   9.538 -0.0003  0.9243 -0.6364
  115OSM   C16S12044   4.956   4.753   9.380 -0.5522  0.0679 -0.7609
  115OSM   H16S12045   5.000   4.651   9.380  0.1282  0.2889 -4.4060
  115OSM   H16T12046   5.033   4.831   9.360 -1.4234  1.3099  0.6153
  115OSM   C17S12047   4.844   4.762   9.271  0.5081  0.7156  0.0125
  115OSM   H17S12048   4.905   4.762   9.179  0.2733 -2.8700 -0.2260
  115OSM   H17T12049   4.790   4.858   9.289  0.5588  0.6744  0.4064
  115OSM   C18S12050   4.737   4.649   9.277 -0.2732 -0.2789 -0.2749
  115OSM   H18S12051   4.688   4.657   9.377  1.1321  1.4461  0.3013
  115OSM   H18T12052   4.802   4.559   9.285 -0.3429 -0.4511 -1.5930
  115OSM   H18U12053   4.660   4.648   9.197 -2.8650 -1.4761  2.1588
  115OSM    C1F12054   5.351   5.090  10.618 -0.6189  0.8131  0.2908
  115OSM     OF12055   5.396   5.152  10.716  0.1468 -0.3246  0.4084
  115OSM    C2F12056   5.309   5.152  10.486  0.2288  0.2274  0.2406
  115OSM    H2F12057   5.198   5.151  10.482  0.2332 -2.3791 -0.7263
  115OSM    H2G12058   5.359   5.097  10.403  0.0032  1.7039 -0.8945
  115OSM    C3F12059   5.354   5.300  10.468 -0.5577 -0.2218 -0.0012
  115OSM    H3F12060   5.459   5.323  10.497 -1.8674  5.7419  0.7307
  115OSM    H3G12061   5.289   5.369  10.526  0.4727  0.9639 -0.2205
  115OSM    C4F12062   5.326   5.346  10.322 -0.3082  0.2909 -0.1591
  115OSM    H4F12063   5.333   5.457  10.324  0.6951  0.2623 -1.2771
  115OSM    H4G12064   5.225   5.315  10.287  0.2717 -0.2975 -1.3386
  115OSM    C5F12065   5.427   5.310  10.227  0.4802  0.3384  0.5825
  115OSM    H5F12066   5.479   5.216  10.257 -0.8916 -0.7178 -0.3048
  115OSM    H5G12067   5.513   5.379  10.214  0.3339  0.6871  1.4689
  115OSM    C6F12068   5.363   5.273  10.088  0.1243 -0.2146 -0.0003
  115OSM    H6F12069   5.283   5.201  10.116  0.0421 -0.0975  0.0652
  115OSM    H6G12070   5.440   5.224  10.025 -0.5361 -1.1389 -0.0924
  115OSM    C7F12071   5.305   5.401  10.020  0.1733 -0.6968  0.2357
  115OSM    H7F12072   5.383   5.478  10.001 -0.4846 -0.5193 -1.8526
  115OSM    H7G12073   5.226   5.452  10.079 -0.4140 -1.1082 -0.1975
  115OSM    C8F12074   5.253   5.378   9.874  0.5040  0.2511  0.7503
  115OSM    H8F12075   5.336   5.342   9.809  1.0356  1.9266  0.4758
  115OSM    H8G12076   5.230   5.478   9.831 -0.7944 -0.6427 -0.6977
  115OSM    C9F12077   5.137   5.282   9.866  0.2318 -0.1980  0.7024
  115OSM    H9F12078   5.072   5.303   9.953 -0.4252 -1.7417  0.5996
  115OSM   C10F12079   5.111   5.190   9.770  0.2131  1.1056 -0.6011
  115OSM   H10F12080   5.020   5.128   9.774  0.4896  0.8585  2.4131
  115OSM   C11F12081   5.198   5.163   9.650 -0.3050  0.4425 -0.3776
  115OSM   H11F12082   5.193   5.057   9.616 -1.0811 -0.2895  1.9361
  115OSM   H11G12083   5.303   5.172   9.684 -0.6919 -2.5839  1.8318
  115OSM   C12F12084   5.186   5.268   9.535 -0.0709 -0.2650  0.3457
  115OSM   H12F12085   5.254   5.232   9.455 -0.9702  0.4922 -0.7876
  115OSM   H12G12086   5.224   5.365   9.572  0.2316  1.0507 -3.1709
  115OSM   C13F12087   5.041   5.280   9.474 -1.4218  0.6203  0.7036
  115OSM   H13F12088   4.985   5.340   9.549 -1.3254  1.9299 -0.2674
  115OSM   H13G12089   4.996   5.179   9.489 -0.7659  0.1069 -0.7185
  115OSM   C14F12090   5.033   5.339   9.339 -0.2716 -0.0556 -0.3136
  115OSM   H14F12091   5.086   5.266   9.275 -2.6966 -1.4196 -0.8455
  115OSM   H14G12092   5.081   5.439   9.333  0.2566 -0.3442 -0.9133
  115OSM   C15F12093   4.887   5.353   9.282 -0.6660 -0.5614  0.0926
  115OSM   H15F12094   4.810   5.403   9.346 -1.3920 -1.6705  0.0897
  115OSM   H15G12095   4.849   5.252   9.256  1.7164 -1.4559 -0.0403
  115OSM   C16F12096   4.900   5.451   9.164 -0.1283  0.2380 -0.5737
  115OSM   H16F12097   4.959   5.401   9.084 -2.4716  0.2270 -2.3711
  115OSM   H16G12098   4.960   5.538   9.197 -2.4262  1.0774  1.5651
  115OSM   C17F12099   4.770   5.501   9.094 -0.6027  0.2020 -0.3900
  115OSM   H17F12100   4.726   5.588   9.148  1.3569  1.1831 -0.3407
  115OSM   H17G12101   4.690   5.425   9.088  0.9156 -1.5502  1.0976
  115OSM   C18F12102   4.810   5.566   8.961  0.1195 -0.0433  0.4072
  115OSM   H18F12103   4.848   5.483   8.898 -2.8416 -1.5007  0.4225
  115OSM   H18G12104   4.876   5.654   8.975  1.6981 -1.7663  4.9005
  115OSM   H18H12105   4.719   5.598   8.906 -1.0284  1.2196  2.9514
  116OSM      N12106   1.444   1.723  11.161 -0.0876  0.0833 -0.0819
  116OSM    C1512107   1.402   1.576  11.142  0.1939 -0.9222  0.4811
  116OSM   H15A12108   1.489   1.514  11.125  0.2137 -0.6281 -0.5073
  116OSM   H15B12109   1.327   1.581  11.064 -0.4741 -1.2343  1.0879
  116OSM   H15C12110   1.356   1.528  11.228 -0.0502  0.7362  1.2990
  116OSM    C1412111   1.328   1.799  11.219 -0.1787  0.6494  0.0482
  116OSM   H14A12112   1.319   1.762  11.320 -0.8712  2.1314  0.5419
  116OSM   H14B12113   1.235   1.785  11.166 -0.7276  2.7249  0.4186
  116OSM   H14C12114   1.349   1.905  11.223  0.4263  0.6143 -1.5338
  116OSM    C1312115   1.564   1.716  11.258  0.3415 -0.8012  0.2112
  116OSM   H13A12116   1.644   1.665  11.207  0.6058 -1.4645  1.2884
  116OSM   H13B12117   1.538   1.658  11.345 -1.4408  0.4951  0.5695
  116OSM   H13C12118   1.596   1.816  11.282 -1.5458 -0.6222  2.1642
  116OSM    C1212119   1.486   1.787  11.034  0.3241 -0.5030  0.2065
  116OSM   H12A12120   1.517   1.887  11.061 -1.9447  0.0562  0.8268
  116OSM   H12B12121   1.402   1.809  10.970 -0.1288  0.9456  1.2738
  116OSM    C1112122   1.592   1.731  10.939  0.5035 -0.0892 -0.0251
  116OSM   H11A12123   1.592   1.788  10.844 -0.4646 -0.1765 -0.0807
  116OSM   H11B12124   1.561   1.624  10.930 -0.2760  0.1160  0.2056
  116OSM      P12125   1.809   1.846  11.013 -0.1387 -0.2964 -0.1111
  116OSM    O1312126   1.743   1.959  11.076 -0.3223  0.0784 -0.1917
  116OSM    O1412127   1.941   1.809  11.072  0.0136  0.9997 -0.0436
  116OSM    O1112128   1.841   1.876  10.853  0.0442 -0.0722 -0.2168
  116OSM    O1212129   1.712   1.725  11.007  0.4003 -0.2478 -0.4820
  116OSM    C1S12130   1.885   1.769  10.774 -0.7175  1.1519 -0.5599
  116OSM    H1S12131   1.807   1.691  10.761  0.5928 -0.0664 -1.3036
  116OSM    H1T12132   1.973   1.715  10.815 -1.2025  1.6102  1.1320
  116OSM     NF12133   1.943   1.705  10.548 -1.1503 -0.3434  0.2713
  116OSM    HNF12134   2.036   1.700  10.513 -0.7047 -1.1035  1.5129
  116OSM    C2S12135   1.911   1.820  10.627  0.8082  0.6927 -1.0206
  116OSM    H2S12136   1.812   1.845  10.582 -0.1756  0.5102  0.9796
  116OSM    C3S12137   2.005   1.938  10.627  0.1329 -0.1241 -0.1712
  116OSM    H3S12138   2.100   1.917  10.680 -0.3778 -2.7468 -0.2628
  116OSM     O312139   1.952   2.061  10.694  0.0476 -0.2620 -0.3932
  116OSM    HO312140   1.879   2.021  10.742 -0.6235  2.2318  0.7103
  116OSM    C4S12141   2.035   1.965  10.479  0.1955 -0.3217  0.3824
  116OSM    H4S12142   2.122   1.903  10.451 -1.1765 -2.8851  1.5919
  116OSM    C5S12143   1.985   2.056  10.387 -0.9553  0.3137  0.3660
  116OSM    H5S12144   1.908   2.127  10.419 -1.6381  0.4365 -1.5034
  116OSM    C6S12145   2.019   2.063  10.244 -0.6218 -0.1584 -0.4637
  116OSM    H6S12146   2.127   2.037  10.235 -0.3911 -0.0398  1.5932
  116OSM    H6T12147   2.001   2.167  10.209 -0.1203 -0.0086 -0.2897
  116OSM    C7S12148   1.914   1.970  10.174 -0.6931  0.3813  0.2714
  116OSM    H7S12149   1.813   2.008  10.197 -0.6266  0.8652 -0.2496
  116OSM    H7T12150   1.927   1.867  10.214  0.6828  1.8073  3.7035
  116OSM    C8S12151   1.928   1.955  10.020 -0.9697 -0.9604 -0.0281
  116OSM    H8S12152   2.029   1.912  10.000 -0.2254  0.2521  1.0089
  116OSM    H8T12153   1.942   2.055   9.974 -2.6199 -0.9658 -0.5684
  116OSM    C9S12154   1.827   1.866   9.949 -0.5193  0.2563 -1.1297
  116OSM    H9S12155   1.820   1.771  10.006 -0.5593  1.7607  1.4495
  116OSM    H9T12156   1.868   1.838   9.849  2.4177 -1.1107  0.4079
  116OSM   C10S12157   1.679   1.916   9.939 -0.3963 -0.6053  0.0937
  116OSM   H10S12158   1.637   1.927  10.041 -0.2219  2.2657 -0.1022
  116OSM   H10T12159   1.628   1.843   9.872  1.6681  1.4080 -3.8270
  116OSM   C11S12160   1.659   2.055   9.867 -0.5888  0.1804  0.6805
  116OSM   H11S12161   1.729   2.134   9.900  1.0959 -0.3664 -1.4204
  116OSM   H11T12162   1.554   2.090   9.873 -0.6604  0.4162 -1.3537
  116OSM   C12S12163   1.687   2.044   9.722 -0.0459 -0.9931  0.7189
  116OSM   H12S12164   1.624   1.956   9.698  0.3018 -1.4252  1.3692
  116OSM   H12T12165   1.791   2.013   9.697  0.5249  1.6854 -0.4818
  116OSM   C13S12166   1.671   2.168   9.638  0.2856  0.1921 -0.3652
  116OSM   H13S12167   1.726   2.254   9.682 -2.8153  2.3441 -0.5567
  116OSM   H13T12168   1.565   2.203   9.641 -0.5408 -2.0718 -2.0503
  116OSM   C14S12169   1.705   2.143   9.489 -0.2993  0.6048 -0.8693
  116OSM   H14S12170   1.809   2.174   9.463  0.0107 -1.3484 -2.1413
  116OSM   H14T12171   1.647   2.216   9.429 -0.1416  1.8175  0.4482
  116OSM   C15S12172   1.671   2.003   9.428  0.6320  0.2369 -0.6231
  116OSM   H15S12173   1.562   1.987   9.441  0.5820 -0.4846 -1.8148
  116OSM   H15T12174   1.732   1.930   9.484  0.4087 -0.0336 -0.7346
  116OSM   C16S12175   1.724   2.006   9.282 -0.1863 -0.2408  0.1897
  116OSM   H16S12176   1.761   1.901   9.275  2.6800  0.6475  1.1654
  116OSM   H16T12177   1.818   2.063   9.265  1.0266 -2.3541 -0.3971
  116OSM   C17S12178   1.618   2.037   9.174 -0.1369  0.1228 -0.4988
  116OSM   H17S12179   1.540   2.097   9.225  0.4098  0.4387 -0.0241
  116OSM   H17T12180   1.561   1.952   9.130 -0.2224 -1.0010  1.6950
  116OSM   C18S12181   1.680   2.125   9.069  0.6606  0.6667 -0.8945
  116OSM   H18S12182   1.683   2.230   9.105  1.4753  0.9159 -1.6622
  116OSM   H18T12183   1.608   2.134   8.984 -1.3263  3.2664  0.9640
  116OSM   H18U12184   1.777   2.080   9.040 -0.3762 -1.9049 -0.5109
  116OSM    C1F12185   1.857   1.606  10.521 -0.9344 -0.1601 -0.2948
  116OSM     OF12186   1.741   1.612  10.561 -1.0441 -0.3696  0.6173
  116OSM    C2F12187   1.908   1.504  10.421  0.0970 -0.4102  0.4027
  116OSM    H2F12188   2.015   1.482  10.441  0.1380 -0.0465  0.5798
  116OSM    H2G12189   1.885   1.537  10.318 -2.8249 -2.9715  0.1408
  116OSM    C3F12190   1.832   1.376  10.445 -0.2629 -0.3480 -0.3273
  116OSM    H3F12191   1.726   1.388  10.414 -0.2545  0.9949  0.1523
  116OSM    H3G12192   1.840   1.342  10.550 -0.5174 -0.6457 -0.4004
  116OSM    C4F12193   1.890   1.261  10.362  0.1432  0.2822 -0.6626
  116OSM    H4F12194   1.983   1.235  10.417 -0.3607  0.1898  0.1548
  116OSM    H4G12195   1.925   1.305  10.266  1.3218  1.4732  0.2872
  116OSM    C5F12196   1.808   1.129  10.355  0.0697  0.2709  0.0467
  116OSM    H5F12197   1.711   1.148  10.305 -0.2083 -0.8416  0.1450
  116OSM    H5G12198   1.781   1.093  10.457 -2.6999  0.1974 -0.6629
  116OSM    C6F12199   1.880   1.008  10.282 -0.2261  0.2795  0.2845
  116OSM    H6F12200   1.814   0.919  10.292 -2.0819  1.5570 -0.3416
  116OSM    H6G12201   1.972   0.992  10.341  0.2180 -0.3207 -0.5564
  116OSM    C7F12202   1.921   1.039  10.139 -0.8584 -0.5084 -0.1612
  116OSM    H7F12203   2.021   0.994  10.117 -0.6200 -1.5313  2.7456
  116OSM    H7G12204   1.940   1.148  10.138 -0.4847 -0.4795  3.4421
  116OSM    C8F12205   1.831   0.981  10.034  0.2853  0.3294 -0.1413
  116OSM    H8F12206   1.816   0.872  10.048  0.7717  0.1494 -1.0036
  116OSM    H8G12207   1.880   0.978   9.934 -2.0640 -1.2492 -1.2796
  116OSM    C9F12208   1.703   1.056  10.039  0.3753  0.9108 -0.0986
  116OSM    H9F12209   1.629   1.018  10.111  0.7754 -0.1088 -0.2021
  116OSM   C10F12210   1.669   1.146   9.955 -0.2839  0.3063 -0.1320
  116OSM   H10F12211   1.564   1.175   9.972 -0.3616  0.8570 -1.4171
  116OSM   C11F12212   1.746   1.206   9.841  0.1579 -0.3450 -0.3391
  116OSM   H11F12213   1.850   1.168   9.837  2.1184  4.7914 -3.0802
  116OSM   H11G12214   1.746   1.314   9.866  0.3151 -0.7520  1.5031
  116OSM   C12F12215   1.669   1.161   9.719 -0.2140 -0.3191  0.0059
  116OSM   H12F12216   1.564   1.199   9.718 -0.5207 -1.0933  1.2399
  116OSM   H12G12217   1.671   1.049   9.716  2.1064 -0.2834 -0.7680
  116OSM   C13F12218   1.725   1.203   9.583 -0.5269 -0.2603 -0.0289
  116OSM   H13F12219   1.834   1.180   9.578 -0.5789 -0.1150 -2.8997
  116OSM   H13G12220   1.712   1.313   9.578  0.7442 -0.1862 -2.7516
  116OSM   C14F12221   1.663   1.140   9.460  0.1947  0.7362 -0.7346
  116OSM   H14F12222   1.553   1.156   9.463  0.0415 -0.4553  0.1605
  116OSM   H14G12223   1.684   1.031   9.460  1.9677  1.0601 -1.9216
  116OSM   C15F12224   1.734   1.193   9.330  0.2437  0.2327 -0.1419
  116OSM   H15F12225   1.841   1.182   9.357  0.0727  0.2657  0.5788
  116OSM   H15G12226   1.709   1.299   9.304 -2.8360 -0.6817 -1.0939
  116OSM   C16F12227   1.721   1.101   9.207 -0.1459  1.4050 -0.1097
  116OSM   H16F12228   1.625   1.105   9.151 -1.3631 -1.8481  1.6519
  116OSM   H16G12229   1.729   1.000   9.250  0.6634  1.6079  0.2114
  116OSM   C17F12230   1.822   1.134   9.101 -0.3202  0.0933  0.8121
  116OSM   H17F12231   1.927   1.133   9.136 -0.0862 -2.7321  0.1651
  116OSM   H17G12232   1.795   1.233   9.059  0.4847 -0.2793 -0.6222
  116OSM   C18F12233   1.815   1.026   8.990 -0.6713 -1.2693 -0.2035
  116OSM   H18F12234   1.782   0.931   9.036 -0.5941 -2.1903 -1.9871
  116OSM   H18G12235   1.913   1.018   8.939 -1.1093 -0.2860 -1.2340
  116OSM   H18H12236   1.739   1.044   8.910 -0.7948  3.3874  0.8140
  117OSM      N12237   6.035   2.734  11.104 -0.3504 -0.2067  0.1643
  117OSM    C1512238   5.929   2.664  11.187  0.5258 -0.0202 -0.3011
  117OSM   H15A12239   5.907   2.564  11.153  0.2825 -0.1545  0.2438
  117OSM   H15B12240   5.845   2.730  11.170  0.3142 -0.4536 -0.9367
  117OSM   H15C12241   5.958   2.666  11.292  0.7766 -1.7816 -0.3351
  117OSM    C1412242   6.041   2.878  11.141 -0.2765 -0.2220 -0.1088
  117OSM   H14A12243   6.075   2.894  11.242  0.7329 -0.3308 -0.4268
  117OSM   H14B12244   5.948   2.932  11.128  0.1101  0.8386  1.4612
  117OSM   H14C12245   6.112   2.936  11.084 -0.5579  2.3109  2.0291
  117OSM    C1312246   6.164   2.674  11.145 -0.1474  0.3539  0.0974
  117OSM   H13A12247   6.164   2.576  11.099  1.4053  0.1923  0.3822
  117OSM   H13B12248   6.181   2.678  11.252  0.3008 -0.3994  0.0619
  117OSM   H13C12249   6.249   2.728  11.105 -0.3285  0.4726 -0.1248
  117OSM    C1212250   6.014   2.713  10.955  0.2619 -0.1860  0.1950
  117OSM   H12A12251   6.104   2.742  10.903 -0.6490 -0.9886 -1.9088
  117OSM   H12B12252   5.938   2.779  10.915 -0.2831 -0.6738  0.4066
  117OSM    C1112253   5.971   2.572  10.903 -0.5204  0.1285 -0.1079
  117OSM   H11A12254   5.991   2.564  10.794 -1.0617  0.3794 -0.2247
  117OSM   H11B12255   5.865   2.571  10.933 -0.4860 -0.0076  0.0069
  117OSM      P12256   6.008   2.333  10.979  0.2268  0.0523 -0.1120
  117OSM    O1312257   6.102   2.258  11.070 -0.0437 -0.4564 -0.4328
  117OSM    O1412258   5.862   2.318  11.003 -0.2481  0.1808  0.5603
  117OSM    O1112259   6.033   2.287  10.830 -0.5388  0.1373  0.8718
  117OSM    O1212260   6.050   2.483  10.972 -0.0441 -1.0442 -0.9149
  117OSM    C1S12261   6.167   2.306  10.789  0.5386 -0.7450  0.2845
  117OSM    H1S12262   6.235   2.243  10.849  1.4718  1.6693  1.8077
  117OSM    H1T12263   6.207   2.409  10.784  1.3426 -1.0724 -0.0248
  117OSM     NF12264   6.314   2.259  10.601 -0.1928 -0.5208 -0.1862
  117OSM    HNF12265   6.355   2.342  10.565  1.1113 -0.6548  0.9495
  117OSM    C2S12266   6.174   2.256  10.641 -0.0163 -0.4470  0.2486
  117OSM    H2S12267   6.141   2.150  10.644  0.0692 -0.5587 -2.0013
  117OSM    C3S12268   6.075   2.340  10.544  0.3785 -0.3550 -0.5724
  117OSM    H3S12269   6.089   2.448  10.565  2.8844 -0.8287  0.4580
  117OSM     O312270   5.941   2.323  10.582  0.1096  0.7427 -0.3778
  117OSM    HO312271   5.944   2.293  10.673 -0.2992 -1.5983 -1.1132
  117OSM    C4S12272   6.087   2.310  10.402  0.0509 -0.6705 -0.4397
  117OSM    H4S12273   6.055   2.208  10.376  0.9749 -0.9490 -0.4969
  117OSM    C5S12274   6.125   2.388  10.301 -0.3436 -0.2604 -0.1197
  117OSM    H5S12275   6.158   2.490  10.325  1.6037 -0.6110 -1.2063
  117OSM    C6S12276   6.134   2.340  10.162  0.1409 -0.3997  0.0850
  117OSM    H6S12277   6.099   2.235  10.153  0.2847 -0.6937  2.5231
  117OSM    H6T12278   6.241   2.335  10.133 -0.1175 -0.1575 -0.9268
  117OSM    C7S12279   6.057   2.431  10.072  0.4215 -0.6844  0.6549
  117OSM    H7S12280   6.123   2.519  10.054 -1.1322  0.4881  0.5976
  117OSM    H7T12281   5.964   2.467  10.122  1.1918  1.0072  0.9198
  117OSM    C8S12282   6.009   2.382   9.931 -0.0764  0.2769 -0.9378
  117OSM    H8S12283   5.922   2.313   9.940  0.8128 -0.7267  0.1056
  117OSM    H8T12284   6.093   2.315   9.906 -0.1410 -0.5954  1.1024
  117OSM    C9S12285   5.991   2.487   9.826 -0.5860  0.3481  0.4144
  117OSM    H9S12286   6.087   2.542   9.816 -1.2350  1.5918  0.8854
  117OSM    H9T12287   5.919   2.564   9.862  0.8828  2.8704 -1.8797
  117OSM   C10S12288   5.936   2.440   9.686  0.2486 -0.2681 -0.7079
  117OSM   H10S12289   5.867   2.353   9.694  0.8382 -0.9083 -2.4049
  117OSM   H10T12290   6.023   2.397   9.633 -0.5293 -0.3582 -1.9283
  117OSM   C11S12291   5.886   2.557   9.597 -0.0683  0.2762 -0.8061
  117OSM   H11S12292   5.969   2.631   9.597 -1.5598  1.9777 -1.5026
  117OSM   H11T12293   5.807   2.613   9.653 -1.1793 -2.6777  0.6859
  117OSM   C12S12294   5.850   2.521   9.452  0.4861  0.6788  0.1954
  117OSM   H12S12295   5.767   2.584   9.412 -0.8530 -0.3399  1.2896
  117OSM   H12T12296   5.805   2.419   9.450  0.0968  0.8640 -1.2229
  117OSM   C13S12297   5.959   2.541   9.345 -0.1275  0.1790  0.3140
  117OSM   H13S12298   6.042   2.482   9.389 -1.2932 -1.2177  0.6749
  117OSM   H13T12299   5.999   2.644   9.344 -0.2465  0.3086  3.4131
  117OSM   C14S12300   5.924   2.499   9.203  0.0696  0.8947  0.4656
  117OSM   H14S12301   5.918   2.389   9.199 -0.1139  0.8644  1.5014
  117OSM   H14T12302   6.005   2.530   9.134 -0.8121  2.3317  0.0349
  117OSM   C15S12303   5.800   2.560   9.148  0.4383 -0.2027  0.3852
  117OSM   H15S12304   5.779   2.659   9.194 -0.4591  0.4403 -1.3901
  117OSM   H15T12305   5.717   2.492   9.174  0.6428 -0.7169 -0.2868
  117OSM   C16S12306   5.797   2.591   8.998 -0.1258 -0.3451 -0.2380
  117OSM   H16S12307   5.792   2.500   8.935  0.7693 -0.2578 -0.4442
  117OSM   H16T12308   5.894   2.644   8.985 -0.6365  0.8622  0.7977
  117OSM   C17S12309   5.674   2.682   8.977  0.5100 -0.3427  0.1218
  117OSM   H17S12310   5.691   2.776   9.034  2.5063 -0.7477  0.2307
  117OSM   H17T12311   5.578   2.634   9.004  0.6255  0.3057  1.7095
  117OSM   C18S12312   5.648   2.728   8.830 -0.7741  0.1316 -0.6507
  117OSM   H18S12313   5.638   2.642   8.760  0.7261  0.9936 -1.9525
  117OSM   H18T12314   5.729   2.798   8.800 -1.4326  1.3209  0.3180
  117OSM   H18U12315   5.549   2.779   8.825 -0.7780  0.5480  2.6104
  117OSM    C1F12316   6.407   2.167  10.625  0.0664  0.8204 -0.5433
  117OSM     OF12317   6.385   2.069  10.693  0.2370 -0.3829  0.3042
  117OSM    C2F12318   6.546   2.200  10.573 -0.3427  0.1503 -0.2304
  117OSM    H2F12319   6.620   2.123  10.605  1.1781  2.0262  0.8663
  117OSM    H2G12320   6.574   2.291  10.631  0.9264  0.2504 -0.9822
  117OSM    C3F12321   6.554   2.238  10.420 -0.3132 -0.7492 -0.1483
  117OSM    H3F12322   6.660   2.256  10.392 -1.3323  0.6245 -3.4580
  117OSM    H3G12323   6.501   2.334  10.402  1.6020  0.7330  1.8633
  117OSM    C4F12324   6.509   2.128  10.333 -0.6257 -0.0967 -0.5410
  117OSM    H4F12325   6.402   2.104  10.355 -0.8205  1.1278 -0.1497
  117OSM    H4G12326   6.579   2.042  10.342 -0.5633 -0.2808 -2.5067
  117OSM    C5F12327   6.512   2.179  10.192 -0.0600 -0.4925 -0.7071
  117OSM    H5F12328   6.615   2.220  10.186 -0.2900  0.3807  0.9648
  117OSM    H5G12329   6.448   2.271  10.194 -0.8181 -1.0445  1.5388
  117OSM    C6F12330   6.476   2.077  10.096 -0.3292  1.1967  0.0623
  117OSM    H6F12331   6.405   2.007  10.146 -1.8292  0.3329 -3.0944
  117OSM    H6G12332   6.567   2.026  10.058 -0.1717  0.2505  1.7076
  117OSM    C7F12333   6.409   2.139   9.973 -0.1315 -0.4589  0.7744
  117OSM    H7F12334   6.448   2.238   9.942 -1.2369  0.3430  1.8795
  117OSM    H7G12335   6.307   2.158  10.015 -1.0499  0.7251 -1.8546
  117OSM    C8F12336   6.396   2.038   9.855 -0.7507  0.2507  0.0403
  117OSM    H8F12337   6.300   2.058   9.802 -0.4923 -0.3884 -0.6761
  117OSM    H8G12338   6.386   1.939   9.904  0.4831  0.2362  0.2831
  117OSM    C9F12339   6.525   2.045   9.766 -0.2529  0.3294  0.3017
  117OSM    H9F12340   6.610   1.985   9.801 -0.0922 -0.1969 -0.9726
  117OSM   C10F12341   6.543   2.114   9.657 -0.3022 -0.4402  0.1381
  117OSM   H10F12342   6.643   2.119   9.612  0.3397 -2.1397  1.3507
  117OSM   C11F12343   6.432   2.193   9.592  0.0844  0.4240 -0.0916
  117OSM   H11F12344   6.463   2.299   9.575  0.5484  0.3437  0.2504
  117OSM   H11G12345   6.337   2.195   9.649 -0.2988  1.0095 -0.7421
  117OSM   C12F12346   6.396   2.147   9.457  0.5943 -0.2270 -0.6670
  117OSM   H12F12347   6.434   2.044   9.439 -0.6155 -0.7643 -0.2161
  117OSM   H12G12348   6.460   2.204   9.386  0.1350 -0.4661 -1.2857
  117OSM   C13F12349   6.248   2.148   9.416 -1.1569  0.3421 -0.0653
  117OSM   H13F12350   6.225   2.252   9.448  0.8392  1.0733 -0.9078
  117OSM   H13G12351   6.196   2.070   9.475  1.8399 -0.9973  0.8776
  117OSM   C14F12352   6.216   2.125   9.265 -0.1848 -0.5400  0.2564
  117OSM   H14F12353   6.112   2.092   9.243  0.9851 -3.9431 -0.4539
  117OSM   H14G12354   6.293   2.051   9.233 -0.1313 -0.4159  0.0965
  117OSM   C15F12355   6.242   2.249   9.179 -0.3147 -0.5811  0.2881
  117OSM   H15F12356   6.350   2.275   9.178 -0.3639 -0.3749 -0.0613
  117OSM   H15G12357   6.184   2.334   9.221  0.1646  1.5617 -3.1431
  117OSM   C16F12358   6.211   2.229   9.032 -0.0868 -0.5579 -0.2811
  117OSM   H16F12359   6.101   2.233   9.018 -0.0539 -0.2833 -0.4751
  117OSM   H16G12360   6.260   2.135   8.998  2.1314  0.1934  0.7175
  117OSM   C17F12361   6.258   2.343   8.937 -0.6684  0.0413  0.6301
  117OSM   H17F12362   6.365   2.366   8.954 -0.5989  0.1318  0.0698
  117OSM   H17G12363   6.212   2.437   8.972 -1.0932 -0.4286  1.3516
  117OSM   C18F12364   6.219   2.325   8.788  0.6283 -0.1163 -0.8090
  117OSM   H18F12365   6.109   2.307   8.783 -0.1526  3.9280 -0.3105
  117OSM   H18G12366   6.285   2.242   8.757  2.1315 -0.4291  2.9332
  117OSM   H18H12367   6.241   2.418   8.732 -0.4822  0.3655 -0.4720
  118OSM      N12368   0.107   3.349  11.241 -0.4356  0.2274 -0.3973
  118OSM    C1512369  -0.024   3.312  11.297  0.4681 -0.7149  0.3641
  118OSM   H15A12370  -0.035   3.329  11.403 -1.1337  0.9777 -0.0291
  118OSM   H15B12371  -0.052   3.212  11.268  2.1278 -0.9117 -0.6475
  118OSM   H15C12372  -0.104   3.374  11.259 -0.3672 -1.1430  1.4155
  118OSM    C1412373   0.140   3.472  11.306 -0.5685  0.0941 -0.2383
  118OSM   H14A12374   0.075   3.555  11.284  0.5668  0.7883 -1.0225
  118OSM   H14B12375   0.240   3.505  11.281 -0.8535  2.2007  1.2502
  118OSM   H14C12376   0.136   3.469  11.414 -0.3333  0.8249 -0.2042
  118OSM    C1312377   0.209   3.251  11.285  0.4967 -0.1772  0.0973
  118OSM   H13A12378   0.184   3.151  11.252  0.6627 -0.8812  2.0035
  118OSM   H13B12379   0.216   3.240  11.392  1.9720  2.9901  0.3659
  118OSM   H13C12380   0.310   3.276  11.255  1.5965 -3.5779  0.7317
  118OSM    C1212381   0.104   3.357  11.088 -0.3060 -0.2451 -0.2808
  118OSM   H12A12382   0.087   3.261  11.043 -0.1287  0.5187 -2.0387
  118OSM   H12B12383   0.202   3.391  11.055  0.4375 -1.3874  0.7222
  118OSM    C1112384   0.001   3.453  11.018 -0.1807 -0.1566  0.0199
  118OSM   H11A12385  -0.100   3.428  11.058 -0.2534  2.8601  1.9259
  118OSM   H11B12386   0.004   3.435  10.909 -2.8528  3.1305 -0.6556
  118OSM      P12387  -0.081   3.697  11.049 -0.5122  0.1861  0.3927
  118OSM    O1312388  -0.166   3.690  11.168  0.1808 -0.0828 -0.2898
  118OSM    O1412389  -0.007   3.820  11.017 -0.1902 -0.2359  0.0678
  118OSM    O1112390  -0.171   3.660  10.927  0.0799  0.0890 -0.1318
  118OSM    O1212391   0.031   3.587  11.050 -0.3582 -1.2233  0.6012
  118OSM    C1S12392  -0.152   3.704  10.791  0.2401 -0.0751  0.4317
  118OSM    H1S12393  -0.046   3.688  10.762  1.0928 -0.9718  3.7543
  118OSM    H1T12394  -0.165   3.814  10.782  0.3239 -0.0056  1.1147
  118OSM     NF12395  -0.189   3.644  10.559  0.4720 -0.5449 -0.3242
  118OSM    HNF12396  -0.240   3.705  10.498  0.8388  0.4785  0.3827
  118OSM    C2S12397  -0.240   3.616  10.695  0.8001  0.0977  0.7674
  118OSM    H2S12398  -0.225   3.510  10.723 -1.6356 -0.6257 -0.4586
  118OSM    C3S12399  -0.388   3.658  10.721 -0.2220 -0.2153 -1.1992
  118OSM    H3S12400  -0.400   3.769  10.720 -2.4157 -0.4382 -1.6550
  118OSM     O312401  -0.442   3.611  10.848  0.1821 -0.3759 -0.0798
  118OSM    HO312402  -0.376   3.548  10.879  0.4541  0.5539  1.3033
  118OSM    C4S12403  -0.480   3.600  10.626  0.0590 -0.1124 -0.5045
  118OSM    H4S12404  -0.476   3.490  10.637 -0.2067  0.0665  1.5117
  118OSM    C5S12405  -0.558   3.661  10.533  0.3142 -0.3716  0.0888
  118OSM    H5S12406  -0.566   3.770  10.523  1.4645 -0.2242  0.6644
  118OSM    C6S12407  -0.654   3.588  10.445 -0.7381  0.8229 -0.0650
  118OSM    H6S12408  -0.734   3.663  10.429 -2.0588 -0.3916  0.6881
  118OSM    H6T12409  -0.704   3.498  10.488 -0.6238  1.0052  0.4624
  118OSM    C7S12410  -0.592   3.552  10.318  0.4800  0.2208  0.8294
  118OSM    H7S12411  -0.675   3.504  10.262  3.5762 -2.1606 -1.8827
  118OSM    H7T12412  -0.511   3.477  10.316 -0.9580 -1.3477 -0.6499
  118OSM    C8S12413  -0.555   3.671  10.234  0.3755 -0.4001  0.2784
  118OSM    H8S12414  -0.479   3.736  10.283 -0.8004 -0.9312  2.8664
  118OSM    H8T12415  -0.652   3.722  10.213  1.5932  1.6124 -0.5983
  118OSM    C9S12416  -0.489   3.625  10.099  0.5727  0.5158  0.1473
  118OSM    H9S12417  -0.394   3.577  10.131  0.4422  1.1594  1.5057
  118OSM    H9T12418  -0.471   3.710  10.030  1.8450  0.2352  0.1304
  118OSM   C10S12419  -0.566   3.509  10.021 -0.7668 -0.0037 -0.0753
  118OSM   H10S12420  -0.673   3.538  10.022 -1.3059 -1.9613  0.2240
  118OSM   H10T12421  -0.574   3.412  10.074  1.2048  0.2909  0.7948
  118OSM   C11S12422  -0.518   3.489   9.883 -0.1675 -0.2971  0.5173
  118OSM   H11S12423  -0.561   3.391   9.853 -0.9056  1.0437 -3.0199
  118OSM   H11T12424  -0.409   3.474   9.868 -0.3829  0.2345 -1.6329
  118OSM   C12S12425  -0.569   3.580   9.764  0.1204 -0.5099 -0.8678
  118OSM   H12S12426  -0.562   3.689   9.785  0.1434  0.0812 -3.6991
  118OSM   H12T12427  -0.674   3.550   9.743 -0.6754  1.7198 -0.2858
  118OSM   C13S12428  -0.480   3.570   9.641 -0.4433  0.2079 -0.3074
  118OSM   H13S12429  -0.469   3.461   9.621 -0.6512 -0.4764  3.1073
  118OSM   H13T12430  -0.381   3.609   9.676  1.3322 -2.6878 -1.8876
  118OSM   C14S12431  -0.528   3.645   9.513 -0.0803 -0.2276 -0.1779
  118OSM   H14S12432  -0.463   3.612   9.429  0.2045 -0.5779  0.1781
  118OSM   H14T12433  -0.518   3.754   9.534 -0.4951  0.0604 -1.4058
  118OSM   C15S12434  -0.670   3.612   9.464 -0.2258 -0.0355 -0.3025
  118OSM   H15S12435  -0.732   3.619   9.556  0.9598 -1.0614  0.5879
  118OSM   H15T12436  -0.667   3.506   9.432  0.3113 -0.0543 -0.1923
  118OSM   C16S12437  -0.728   3.694   9.352 -0.2322  0.2999  0.2560
  118OSM   H16S12438  -0.713   3.802   9.376  0.2482  0.1490  0.6499
  118OSM   H16T12439  -0.836   3.675   9.368 -0.4612  0.6184 -0.8685
  118OSM   C17S12440  -0.664   3.659   9.218  0.2430 -0.2226  0.1782
  118OSM   H17S12441  -0.689   3.553   9.196  0.5282 -0.4128  0.7517
  118OSM   H17T12442  -0.555   3.680   9.225 -0.1270  1.8567 -0.2006
  118OSM   C18S12443  -0.721   3.733   9.096 -0.6107 -0.0632  0.5896
  118OSM   H18S12444  -0.818   3.688   9.067  0.4141 -0.1527 -2.8678
  118OSM   H18T12445  -0.649   3.725   9.012 -0.2112  0.3050  0.8919
  118OSM   H18U12446  -0.742   3.840   9.119  1.1807  0.4251  0.0354
  118OSM    C1F12447  -0.067   3.599  10.523  0.0812 -0.7340 -0.7068
  118OSM     OF12448  -0.012   3.508  10.582  0.1230 -0.5892 -0.3266
  118OSM    C2F12449  -0.006   3.666  10.402  0.6236 -0.2727 -0.6360
  118OSM    H2F12450   0.091   3.710  10.433 -0.3010 -0.1274  2.1987
  118OSM    H2G12451  -0.073   3.750  10.376 -1.8054 -1.9021  0.1710
  118OSM    C3F12452  -0.001   3.559  10.290  0.0676 -0.0847 -0.2353
  118OSM    H3F12453   0.063   3.471  10.315  2.3086  1.5611 -0.0280
  118OSM    H3G12454   0.060   3.616  10.216 -1.3093  2.2510  0.3874
  118OSM    C4F12455  -0.143   3.512  10.243  0.2958  0.0694  0.0167
  118OSM    H4F12456  -0.197   3.608  10.226 -0.0999 -0.0109  0.8033
  118OSM    H4G12457  -0.190   3.455  10.326 -1.5614 -1.1841 -1.8619
  118OSM    C5F12458  -0.148   3.408  10.130 -0.5316 -0.8696  0.4289
  118OSM    H5F12459  -0.256   3.395  10.109 -0.1753 -1.4146 -1.1319
  118OSM    H5G12460  -0.115   3.305  10.157 -2.0558 -1.1486  1.3062
  118OSM    C6F12461  -0.089   3.449   9.997  0.3919  0.3025 -0.2325
  118OSM    H6F12462  -0.093   3.560   9.987  0.2272  0.8429  4.8209
  118OSM    H6G12463  -0.148   3.403   9.915 -0.3535  3.2631 -1.4180
  118OSM    C7F12464   0.051   3.391   9.979  0.0008  0.2115 -0.2429
  118OSM    H7F12465   0.049   3.281   9.966  3.3361 -0.1236  1.4570
  118OSM    H7G12466   0.108   3.411  10.072 -0.7960  1.4205 -0.0101
  118OSM    C8F12467   0.137   3.454   9.869  0.3397  0.2917  0.2731
  118OSM    H8F12468   0.239   3.410   9.879  0.2766  0.2933  0.9946
  118OSM    H8G12469   0.148   3.560   9.899 -2.2731  0.2676  1.5031
  118OSM    C9F12470   0.065   3.439   9.728 -0.3794  0.2191 -0.1443
  118OSM    H9F12471  -0.042   3.417   9.736 -0.2239  0.1386  2.2785
  118OSM   C10F12472   0.126   3.445   9.608 -0.2422 -0.1650  0.2531
  118OSM   H10F12473   0.069   3.410   9.521 -0.7238 -0.2696  0.6113
  118OSM   C11F12474   0.269   3.473   9.592  0.2220  0.1000  0.3474
  118OSM   H11F12475   0.326   3.480   9.687  0.5310 -2.7469  0.4335
  118OSM   H11G12476   0.282   3.577   9.555  0.5921  0.1485  0.6176
  118OSM   C12F12477   0.334   3.370   9.506  0.0790  0.8444 -0.1316
  118OSM   H12F12478   0.307   3.267   9.539 -1.8729  1.5726  0.5982
  118OSM   H12G12479   0.444   3.376   9.519  0.0843 -2.2122  1.8140
  118OSM   C13F12480   0.305   3.387   9.354  0.1094 -0.2310 -0.3839
  118OSM   H13F12481   0.224   3.462   9.340  0.3925  0.7749  3.0261
  118OSM   H13G12482   0.273   3.289   9.312 -0.2871  0.3184 -1.4117
  118OSM   C14F12483   0.418   3.431   9.259 -0.3717 -0.1764 -0.1735
  118OSM   H14F12484   0.389   3.431   9.151  1.5395 -2.7242 -0.7333
  118OSM   H14G12485   0.498   3.354   9.270  0.5189  0.7288 -0.1733
  118OSM   C15F12486   0.482   3.572   9.288  0.3855  0.1651  0.0411
  118OSM   H15F12487   0.540   3.557   9.381  0.2331 -0.8621 -0.0250
  118OSM   H15G12488   0.407   3.653   9.300 -0.3125 -0.6604  1.3437
  118OSM   C16F12489   0.592   3.606   9.187 -0.1857 -0.2771  0.3716
  118OSM   H16F12490   0.544   3.625   9.088  0.1232 -0.7759  0.1223
  118OSM   H16G12491   0.673   3.530   9.192  1.1927  1.1239 -0.2185
  118OSM   C17F12492   0.669   3.744   9.223 -0.2827 -0.0074  0.1916
  118OSM   H17F12493   0.657   3.761   9.332 -0.6586 -0.2482  0.1894
  118OSM   H17G12494   0.624   3.833   9.173  1.3060  0.4843 -0.3754
  118OSM   C18F12495   0.813   3.724   9.178  0.1424 -0.3358 -0.2839
  118OSM   H18F12496   0.821   3.722   9.067 -1.4229 -2.5350 -0.3717
  118OSM   H18G12497   0.862   3.634   9.220  0.2224  0.8343  2.1923
  118OSM   H18H12498   0.871   3.814   9.209  0.4249 -0.6199  0.0143
  119OSM      N12499   0.810   2.549  11.068 -0.4287  0.7491 -0.3242
  119OSM    C1512500   0.903   2.428  11.030  0.1482 -0.6168 -0.1119
  119OSM   H15A12501   0.899   2.353  11.108  1.5293 -0.8847 -0.2813
  119OSM   H15B12502   1.006   2.457  11.019 -0.6450  1.2731 -2.8476
  119OSM   H15C12503   0.862   2.381  10.942 -2.8715 -0.5609  1.2064
  119OSM    C1412504   0.694   2.495  11.139 -0.6306 -0.7785 -0.4016
  119OSM   H14A12505   0.619   2.448  11.077  0.7861 -0.1172 -2.6456
  119OSM   H14B12506   0.648   2.581  11.186  0.9809 -0.2035  0.1610
  119OSM   H14C12507   0.720   2.423  11.216  1.8068  0.5405  0.0601
  119OSM    C1312508   0.898   2.625  11.170 -0.3956  0.5785  0.5560
  119OSM   H13A12509   0.997   2.637  11.129  0.0526 -2.5476  0.6245
  119OSM   H13B12510   0.916   2.558  11.253 -2.4393 -0.9181 -0.1621
  119OSM   H13C12511   0.854   2.714  11.212 -0.2219 -0.3027  2.6908
  119OSM    C1212512   0.767   2.622  10.951  0.2021  0.0238 -0.3990
  119OSM   H12A12513   0.854   2.648  10.893  1.6145 -0.0857  1.6124
  119OSM   H12B12514   0.720   2.716  10.973 -1.3682 -1.4670  3.0382
  119OSM    C1112515   0.666   2.558  10.854  0.2928  0.0999 -0.5803
  119OSM   H11A12516   0.692   2.450  10.845  0.1638  0.2003 -2.2015
  119OSM   H11B12517   0.661   2.605  10.754  0.4956 -0.1286 -0.6996
  119OSM      P12518   0.457   2.710  10.905  0.0436  0.2700 -0.1101
  119OSM    O1312519   0.324   2.689  10.960 -0.3369  0.5445  0.0105
  119OSM    O1412520   0.547   2.810  10.965  0.3435 -0.0465  0.5304
  119OSM    O1112521   0.446   2.734  10.748 -0.2541  0.2167  0.3443
  119OSM    O1212522   0.539   2.573  10.914 -0.1128  0.1233  1.1259
  119OSM    C1S12523   0.373   2.637  10.667 -0.3818  0.0900  0.1816
  119OSM    H1S12524   0.268   2.631  10.703 -0.2812 -0.4081  0.3927
  119OSM    H1T12525   0.422   2.537  10.667 -1.3581 -0.4082 -1.7564
  119OSM     NF12526   0.272   2.586  10.453 -0.4104 -0.1206  0.3847
  119OSM    HNF12527   0.323   2.518  10.401  0.4614  0.1174  0.9135
  119OSM    C2S12528   0.365   2.678  10.521 -0.2423 -0.2693  0.0092
  119OSM    H2S12529   0.313   2.775  10.510  1.2030  0.7557  1.9512
  119OSM    C3S12530   0.505   2.675  10.449  0.0222 -0.9352  0.0779
  119OSM    H3S12531   0.550   2.575  10.463 -0.0261 -0.9089  0.4242
  119OSM     O312532   0.591   2.764  10.522 -0.1920 -0.1390 -0.1112
  119OSM    HO312533   0.543   2.778  10.604  0.8454 -0.7807  0.6244
  119OSM    C4S12534   0.517   2.706  10.302 -0.5415  0.5811 -1.3976
  119OSM    H4S12535   0.579   2.631  10.250  0.6057  1.0451 -0.7229
  119OSM    C5S12536   0.466   2.804  10.231  0.2926  0.1692 -0.4817
  119OSM    H5S12537   0.414   2.884  10.284  3.6755  1.6942  0.6311
  119OSM    C6S12538   0.476   2.821  10.082  0.5307  0.9442 -0.5202
  119OSM    H6S12539   0.583   2.837  10.059 -0.1195  2.2242 -2.7221
  119OSM    H6T12540   0.428   2.908  10.033  0.2150  0.2304 -1.4947
  119OSM    C7S12541   0.433   2.690  10.004 -0.3865  0.2032 -0.4096
  119OSM    H7S12542   0.332   2.656  10.035 -0.1476 -1.6461 -1.5789
  119OSM    H7T12543   0.500   2.605  10.024  1.9692  2.0796 -0.1148
  119OSM    C8S12544   0.460   2.716   9.853  0.1201 -0.9806  0.4565
  119OSM    H8S12545   0.560   2.763   9.845  0.6721 -2.2130 -0.0702
  119OSM    H8T12546   0.387   2.784   9.804  2.5144 -0.9980 -3.3102
  119OSM    C9S12547   0.462   2.580   9.787  0.4075 -0.7464 -1.0837
  119OSM    H9S12548   0.376   2.512   9.808  0.8380 -1.4908 -1.6977
  119OSM    H9T12549   0.551   2.524   9.822  0.0124 -1.6745 -1.5466
  119OSM   C10S12550   0.482   2.596   9.634 -0.4333  0.2010  0.3280
  119OSM   H10S12551   0.572   2.659   9.616  0.8219 -2.0215 -1.4439
  119OSM   H10T12552   0.396   2.658   9.600  1.3177  1.1335 -2.5744
  119OSM   C11S12553   0.474   2.470   9.557  0.0414 -0.1784  1.0986
  119OSM   H11S12554   0.396   2.405   9.603 -1.4122  1.1059  0.4936
  119OSM   H11T12555   0.575   2.425   9.563  0.4825  0.3715 -1.5783
  119OSM   C12S12556   0.427   2.501   9.413  0.7889 -0.0534 -0.4731
  119OSM   H12S12557   0.481   2.587   9.367 -0.6371  0.8834 -0.4406
  119OSM   H12T12558   0.318   2.525   9.418  0.8557  0.6956 -2.2536
  119OSM   C13S12559   0.436   2.368   9.337  0.1753 -0.3522  1.0013
  119OSM   H13S12560   0.385   2.290   9.399 -1.2357 -2.0968 -2.1730
  119OSM   H13T12561   0.543   2.338   9.336  0.6257  0.9964  3.7657
  119OSM   C14S12562   0.378   2.367   9.197  0.5055  0.8598 -0.6925
  119OSM   H14S12563   0.267   2.375   9.204  0.4057 -1.6505  1.0045
  119OSM   H14T12564   0.409   2.280   9.135 -0.6312  1.6265 -2.3801
  119OSM   C15S12565   0.435   2.483   9.111  0.9766 -0.6015 -0.5752
  119OSM   H15S12566   0.423   2.581   9.162  0.3335 -1.4271  0.8711
  119OSM   H15T12567   0.378   2.483   9.015  2.0163 -1.7922 -1.1999
  119OSM   C16S12568   0.580   2.466   9.073  0.2453 -0.1001  0.8277
  119OSM   H16S12569   0.604   2.361   9.045 -3.1762 -0.4539 -1.0361
  119OSM   H16T12570   0.624   2.500   9.169 -2.5931  2.8508  1.1343
  119OSM   C17S12571   0.614   2.563   8.954 -0.4286  0.0640  0.7558
  119OSM   H17S12572   0.721   2.591   8.960 -0.3980 -0.0676  0.8122
  119OSM   H17T12573   0.559   2.656   8.981 -1.9256 -0.6977  0.4041
  119OSM   C18S12574   0.584   2.530   8.808 -0.2912 -0.0780 -0.4855
  119OSM   H18S12575   0.667   2.467   8.768 -0.5093 -0.9009  0.3199
  119OSM   H18T12576   0.572   2.623   8.750 -1.3874 -0.1884 -0.4369
  119OSM   H18U12577   0.485   2.482   8.796  0.9947 -3.0846  0.1715
  119OSM    C1F12578   0.140   2.586  10.452  0.7514  0.9078  0.4933
  119OSM     OF12579   0.081   2.668  10.516  0.3340 -0.0643  0.1630
  119OSM    C2F12580   0.065   2.497  10.351 -0.4730  0.3498 -0.2192
  119OSM    H2F12581  -0.044   2.494  10.368 -0.2035 -1.6492  1.3744
  119OSM    H2G12582   0.105   2.396  10.374 -2.6986  0.3068  3.7594
  119OSM    C3F12583   0.115   2.532  10.208 -0.0431  0.0638  0.8915
  119OSM    H3F12584   0.223   2.513  10.190 -0.3835 -0.3876 -0.7790
  119OSM    H3G12585   0.095   2.641  10.196 -1.8965 -0.5710 -2.2169
  119OSM    C4F12586   0.030   2.447  10.115  0.7556 -0.5911 -0.1609
  119OSM    H4F12587  -0.080   2.450  10.127  0.8109 -0.6894  0.3802
  119OSM    H4G12588   0.060   2.341  10.133  0.0460 -0.8466 -0.4456
  119OSM    C5F12589   0.050   2.489   9.968  0.4225 -0.3323  0.4271
  119OSM    H5F12590   0.148   2.540   9.964 -0.3712  1.1652 -0.4266
  119OSM    H5G12591  -0.027   2.569   9.958 -0.6043 -1.5099 -1.5070
  119OSM    C6F12592   0.026   2.372   9.876  0.0100  0.1988  0.2883
  119OSM    H6F12593  -0.078   2.336   9.859  0.1234 -0.0847  0.1876
  119OSM    H6G12594   0.088   2.290   9.918  1.8024 -0.9548 -4.3677
  119OSM    C7F12595   0.077   2.389   9.733  0.2313  0.8539 -0.1040
  119OSM    H7F12596   0.039   2.292   9.692 -2.4538  2.2143 -0.9736
  119OSM    H7G12597   0.187   2.390   9.722  0.8227 -1.8439  4.1903
  119OSM    C8F12598   0.009   2.510   9.666  0.2124  0.7002 -0.5142
  119OSM    H8F12599   0.033   2.600   9.727 -0.2137  0.8703 -0.5942
  119OSM    H8G12600  -0.100   2.490   9.679  0.1059  0.6011 -1.5537
  119OSM    C9F12601   0.029   2.559   9.525 -0.1631  0.7547  0.7489
  119OSM    H9F12602   0.102   2.639   9.507 -0.0986  0.5373  0.0583
  119OSM   C10F12603  -0.023   2.497   9.412  0.1805  0.1784 -0.2604
  119OSM   H10F12604   0.006   2.540   9.315  0.4107 -1.4338 -0.9261
  119OSM   C11F12605  -0.113   2.373   9.389 -0.4827 -0.3788 -0.2700
  119OSM   H11F12606  -0.210   2.405   9.345 -1.5279 -0.7110  1.7162
  119OSM   H11G12607  -0.137   2.316   9.482 -0.3783 -2.2108 -1.3320
  119OSM   C12F12608  -0.050   2.282   9.283 -0.2084  0.6387  0.0287
  119OSM   H12F12609  -0.092   2.180   9.298  0.3935  0.5413  1.1100
  119OSM   H12G12610   0.057   2.270   9.308  0.1162  0.0476 -1.6051
  119OSM   C13F12611  -0.073   2.307   9.136 -0.0238 -0.5379 -0.4813
  119OSM   H13F12612  -0.181   2.329   9.122  0.0172  0.4764  0.7244
  119OSM   H13G12613  -0.047   2.222   9.069  0.3647 -1.3435  0.6760
  119OSM   C14F12614  -0.010   2.429   9.072 -0.5638 -0.0384  0.3680
  119OSM   H14F12615   0.098   2.420   9.096 -0.5092  0.5378  0.3499
  119OSM   H14G12616  -0.060   2.521   9.110  0.2065  0.4738  0.1630
  119OSM   C15F12617  -0.022   2.434   8.917  0.2543 -0.2982 -0.6275
  119OSM   H15F12618  -0.131   2.425   8.895  0.0247 -0.2025  0.4644
  119OSM   H15G12619   0.035   2.344   8.888  0.4458 -0.2779 -0.3132
  119OSM   C16F12620   0.032   2.562   8.855 -0.7874 -0.0893 -0.6231
  119OSM   H16F12621  -0.021   2.644   8.909 -1.9443 -1.6072  0.6317
  119OSM   H16G12622   0.026   2.571   8.745  1.3236 -1.4932 -0.8741
  119OSM   C17F12623   0.184   2.589   8.869 -0.1524  0.0306 -0.7450
  119OSM   H17F12624   0.232   2.502   8.820  1.0162  0.4023 -0.2825
  119OSM   H17G12625   0.211   2.572   8.975 -0.4115 -1.8602 -0.9666
  119OSM   C18F12626   0.236   2.711   8.793 -0.7347  0.5963 -0.1623
  119OSM   H18F12627   0.193   2.722   8.692 -1.9884  2.3514  0.5382
  119OSM   H18G12628   0.347   2.706   8.796 -0.8201 -2.3323 -0.3054
  119OSM   H18H12629   0.207   2.808   8.840 -0.3287  0.8631 -0.4637
  120OSM      N12630   5.936   6.279  10.967  0.4396 -0.3691  0.3826
  120OSM    C1512631   5.923   6.349  11.091 -0.4163  0.0871 -0.1697
  120OSM   H15A12632   5.825   6.388  11.115 -0.0173 -0.4711  2.5174
  120OSM   H15B12633   5.994   6.430  11.083  0.4315 -0.6822 -0.5170
  120OSM   H15C12634   5.956   6.280  11.167 -0.1048 -1.4807 -1.6696
  120OSM    C1412635   6.072   6.209  10.973  0.7993 -0.7216  0.6039
  120OSM   H14A12636   6.148   6.284  10.988  0.9711 -0.5179 -1.1385
  120OSM   H14B12637   6.085   6.167  10.874  1.4592 -0.0617  0.3999
  120OSM   H14C12638   6.074   6.145  11.059 -2.3083  0.8337  1.9187
  120OSM    C1312639   5.824   6.174  10.969  0.0489  0.0293  0.1187
  120OSM   H13A12640   5.838   6.102  10.888 -2.5935  0.6407 -0.9152
  120OSM   H13B12641   5.730   6.224  10.955  1.8135  2.2707 -4.7896
  120OSM   H13C12642   5.815   6.127  11.065 -0.2715 -2.1671 -0.9449
  120OSM    C1212643   5.923   6.368  10.844  0.7500 -0.0829  0.5628
  120OSM   H12A12644   5.994   6.450  10.843  0.0238  0.5629 -1.0335
  120OSM   H12B12645   5.828   6.416  10.862  1.1836  1.9553 -2.2156
  120OSM    C1112646   5.915   6.290  10.702  0.0771 -0.1897 -0.3759
  120OSM   H11A12647   5.884   6.363  10.624  0.6826 -0.6133 -1.0186
  120OSM   H11B12648   5.829   6.221  10.713  0.9620 -1.1417  0.6802
  120OSM      P12649   6.060   6.093  10.606 -0.3452 -0.2441 -0.2914
  120OSM    O1312650   6.203   6.059  10.614  0.4208 -0.2223  0.5795
  120OSM    O1412651   5.966   6.000  10.671  0.3191  0.1770  0.5282
  120OSM    O1112652   6.035   6.109  10.456 -0.0759 -0.0441 -0.0303
  120OSM    O1212653   6.041   6.235  10.664 -0.2572 -0.1023  0.3029
  120OSM    C1S12654   6.091   6.222  10.384 -0.2671 -0.4791 -0.0152
  120OSM    H1S12655   6.174   6.268  10.443 -1.5191  0.1361  1.3177
  120OSM    H1T12656   6.016   6.302  10.364 -0.9986 -1.1612 -0.0347
  120OSM     NF12657   6.208   6.281  10.176 -0.0351  0.5820  0.1225
  120OSM    HNF12658   6.155   6.335  10.112 -0.3088  2.2827  1.7347
  120OSM    C2S12659   6.141   6.173  10.247 -0.0524 -0.1036  0.7779
  120OSM    H2S12660   6.214   6.090  10.257  0.5185  0.3748  0.5723
  120OSM    C3S12661   6.034   6.111  10.158 -0.4740 -0.6464 -0.0122
  120OSM    H3S12662   5.945   6.175  10.144  1.5539  2.3288  0.0982
  120OSM     O312663   5.977   6.001  10.229  0.0838  0.1562  0.0349
  120OSM    HO312664   5.992   6.024  10.321 -0.0898  0.4297 -0.0058
  120OSM    C4S12665   6.082   6.060  10.021 -0.0024 -0.5946 -0.0321
  120OSM    H4S12666   6.141   5.967  10.027  1.8019  0.5145 -0.1000
  120OSM    C5S12667   6.072   6.127   9.905  0.9836 -0.4697  0.1557
  120OSM    H5S12668   6.021   6.224   9.907  1.0009 -0.4773  1.2523
  120OSM    C6S12669   6.127   6.068   9.774  0.3704  0.3041 -0.2321
  120OSM    H6S12670   6.047   6.018   9.717  1.8148 -0.2140 -1.8558
  120OSM    H6T12671   6.197   5.988   9.806 -1.9224 -2.1162 -1.0884
  120OSM    C7S12672   6.207   6.170   9.690  0.3132 -0.5850 -0.3256
  120OSM    H7S12673   6.301   6.197   9.742 -0.1590  0.5542 -0.0488
  120OSM    H7T12674   6.135   6.252   9.671 -0.0280 -1.3976 -2.7483
  120OSM    C8S12675   6.248   6.099   9.559  0.5961  0.3317 -0.4480
  120OSM    H8S12676   6.154   6.049   9.526 -0.8500  2.1797  0.7656
  120OSM    H8T12677   6.331   6.027   9.575 -0.3025 -0.8802 -1.1198
  120OSM    C9S12678   6.296   6.211   9.461 -0.1210  0.3729  0.6022
  120OSM    H9S12679   6.391   6.246   9.506 -0.5506  0.5207  1.4061
  120OSM    H9T12680   6.231   6.300   9.450  0.9128  1.0093 -0.4138
  120OSM   C10S12681   6.322   6.164   9.314  0.2714 -0.7283 -0.2168
  120OSM   H10S12682   6.224   6.124   9.282 -0.7290  1.1598  0.4381
  120OSM   H10T12683   6.391   6.076   9.314 -1.9627 -2.5304  0.1323
  120OSM   C11S12684   6.375   6.269   9.218  0.2599 -0.6783 -0.0037
  120OSM   H11S12685   6.477   6.310   9.230 -0.3146  0.4845  0.9427
  120OSM   H11T12686   6.312   6.360   9.228 -1.1828 -1.7174  0.5427
  120OSM   C12S12687   6.361   6.247   9.061  0.0313  0.3516  0.7278
  120OSM   H12S12688   6.447   6.183   9.035 -0.3170  0.5324 -0.9028
  120OSM   H12T12689   6.387   6.342   9.009 -0.2250  1.0514  1.8441
  120OSM   C13S12690   6.226   6.203   9.009  0.2951 -0.1279 -0.3681
  120OSM   H13S12691   6.144   6.255   9.064 -0.0800  0.2399 -1.2725
  120OSM   H13T12692   6.211   6.099   9.044 -2.6972  0.4551  0.2540
  120OSM   C14S12693   6.203   6.223   8.853  0.5348  0.3668  0.2631
  120OSM   H14S12694   6.183   6.331   8.832  0.9343  0.5160  0.6392
  120OSM   H14T12695   6.105   6.176   8.831  0.9465 -1.5584  2.3373
  120OSM   C15S12696   6.303   6.162   8.761 -0.0885 -0.8877  0.7665
  120OSM   H15S12697   6.382   6.235   8.734 -0.9989 -0.4958 -0.9263
  120OSM   H15T12698   6.240   6.152   8.670 -2.5278 -1.7462  2.5172
  120OSM   C16S12699   6.365   6.022   8.802 -0.3231  0.0733 -0.3454
  120OSM   H16S12700   6.402   6.031   8.906 -0.4765 -0.4215 -0.2448
  120OSM   H16T12701   6.449   6.005   8.732 -0.8216  0.1553 -0.9630
  120OSM   C17S12702   6.259   5.918   8.786  0.6050  0.0529 -0.7288
  120OSM   H17S12703   6.202   5.929   8.691  0.2191 -1.7697 -0.7368
  120OSM   H17T12704   6.180   5.948   8.858 -2.3304 -1.5175 -3.1594
  120OSM   C18S12705   6.307   5.770   8.811  0.4066 -0.3330  0.1560
  120OSM   H18S12706   6.220   5.720   8.858  0.9857  2.1460  4.0634
  120OSM   H18T12707   6.388   5.762   8.887  2.8553 -1.2658 -2.4590
  120OSM   H18U12708   6.344   5.732   8.713  0.3801 -0.3508  0.1539
  120OSM    C1F12709   6.328   6.309  10.213  0.4719 -0.3463 -0.0359
  120OSM     OF12710   6.366   6.274  10.321 -0.0882  0.5531 -0.5461
  120OSM    C2F12711   6.419   6.383  10.110  0.6853 -0.2230  0.2184
  120OSM    H2F12712   6.524   6.356  10.138  1.2131  0.3460 -1.1902
  120OSM    H2G12713   6.402   6.491  10.128  0.4392 -0.2853  0.3553
  120OSM    C3F12714   6.396   6.340   9.967  0.3272  0.0567 -0.2234
  120OSM    H3F12715   6.291   6.354   9.933  0.1041  0.4684  0.5963
  120OSM    H3G12716   6.418   6.234   9.947  0.0092  0.1903 -1.2945
  120OSM    C4F12717   6.489   6.432   9.877 -0.4242 -0.4252  0.0708
  120OSM    H4F12718   6.593   6.413   9.913 -0.6110 -3.5178 -0.8817
  120OSM    H4G12719   6.459   6.539   9.889 -0.8283 -0.7776  2.5273
  120OSM    C5F12720   6.488   6.402   9.732 -0.9653 -1.0785  0.6186
  120OSM    H5F12721   6.386   6.406   9.688  0.0996  1.6112 -1.7814
  120OSM    H5G12722   6.525   6.298   9.720  0.0564 -0.5695 -0.6779
  120OSM    C6F12723   6.581   6.490   9.648 -0.3737  0.2791 -0.8297
  120OSM    H6F12724   6.681   6.452   9.678 -0.9871 -1.6810 -1.1842
  120OSM    H6G12725   6.558   6.596   9.667  1.1755  0.3610  0.7956
  120OSM    C7F12726   6.571   6.464   9.494  1.0326 -0.2047 -0.4661
  120OSM    H7F12727   6.467   6.482   9.459  1.0974  0.7220 -0.2149
  120OSM    H7G12728   6.598   6.357   9.481 -1.1779 -0.7430 -0.7750
  120OSM    C8F12729   6.661   6.545   9.407  0.0509 -0.2003 -0.0021
  120OSM    H8F12730   6.657   6.501   9.306 -1.0471  1.7870 -0.8467
  120OSM    H8G12731   6.770   6.541   9.432  0.0008 -1.7251  0.0032
  120OSM    C9F12732   6.618   6.692   9.403  0.1023  0.2024 -0.5570
  120OSM    H9F12733   6.640   6.745   9.497  1.7602  1.2829 -1.5295
  120OSM   C10F12734   6.569   6.761   9.301  0.2998  0.2579  0.4397
  120OSM   H10F12735   6.537   6.865   9.314 -2.2321 -0.6295  1.6167
  120OSM   C11F12736   6.550   6.705   9.165 -0.3767  0.0322  0.3562
  120OSM   H11F12737   6.443   6.718   9.140 -0.3468 -0.3196  0.0472
  120OSM   H11G12738   6.556   6.594   9.155  0.2054  0.0688  0.2497
  120OSM   C12F12739   6.637   6.751   9.048 -0.7383  0.1295  0.3649
  120OSM   H12F12740   6.625   6.862   9.057 -0.7549  0.2351 -0.8591
  120OSM   H12G12741   6.596   6.725   8.949  1.0602 -1.1335 -0.0787
  120OSM   C13F12742   6.783   6.700   9.067 -0.3018  0.0118 -0.1117
  120OSM   H13F12743   6.778   6.592   9.045  1.0710  0.4060 -2.5862
  120OSM   H13G12744   6.809   6.722   9.173 -1.1046  2.2804 -0.3409
  120OSM   C14F12745   6.885   6.773   8.981 -0.3441  0.3367  0.1938
  120OSM   H14F12746   6.987   6.731   8.986  0.0106  1.0299 -0.9486
  120OSM   H14G12747   6.885   6.881   9.008 -0.5133  0.4633 -0.2916
  120OSM   C15F12748   6.853   6.765   8.829  0.7587 -0.2012  0.7846
  120OSM   H15F12749   6.775   6.832   8.786  0.1653 -0.7772  0.9595
  120OSM   H15G12750   6.816   6.662   8.809  0.9841 -0.4818  1.7822
  120OSM   C16F12751   6.977   6.784   8.735  0.7447  0.1243 -0.0575
  120OSM   H16F12752   6.963   6.738   8.634  3.8872 -0.6580 -0.2069
  120OSM   H16G12753   7.057   6.719   8.778 -1.1323 -2.2151  0.0187
  120OSM   C17F12754   7.027   6.928   8.728  0.0260 -0.2798 -0.7900
  120OSM   H17F12755   6.992   6.976   8.822 -0.7136 -0.8395 -0.7742
  120OSM   H17G12756   6.965   6.965   8.643 -0.1687 -0.4776 -0.7344
  120OSM   C18F12757   7.178   6.953   8.708 -0.4826 -1.0938 -0.2609
  120OSM   H18F12758   7.192   7.063   8.716 -4.3266 -0.6225  1.2663
  120OSM   H18G12759   7.214   6.913   8.611 -0.0787  1.3423 -1.1464
  120OSM   H18H12760   7.240   6.901   8.784  0.8854 -0.5014 -0.9600
  121OSM      N12761   5.092   2.631  10.843 -0.7161 -0.5995  0.1385
  121OSM    C1512762   5.171   2.688  10.733  0.4256  0.6480  0.6503
  121OSM   H15A12763   5.157   2.793  10.713 -0.6568  0.4837  0.5029
  121OSM   H15B12764   5.166   2.629  10.642  2.9332  2.1884 -0.5577
  121OSM   H15C12765   5.273   2.675  10.766  0.2948  2.0484  1.6370
  121OSM    C1412766   4.949   2.648  10.810  0.0907  0.3949  0.0560
  121OSM   H14A12767   4.913   2.747  10.834  0.2110  0.0274  1.8200
  121OSM   H14B12768   4.878   2.584  10.861  0.1032 -1.2816 -1.9749
  121OSM   H14C12769   4.931   2.630  10.705  3.3294 -1.6611 -0.2169
  121OSM    C1312770   5.117   2.484  10.863  0.2230  0.8604  0.2111
  121OSM   H13A12771   5.224   2.469  10.869 -0.0995 -0.9169  1.9919
  121OSM   H13B12772   5.088   2.434  10.772 -0.4540  0.8977  0.4019
  121OSM   H13C12773   5.066   2.439  10.947  0.8492  2.5102  1.4920
  121OSM    C1212774   5.125   2.711  10.973 -0.4766 -0.7017 -0.2580
  121OSM   H12A12775   5.062   2.665  11.049 -0.4532  2.7181  1.9768
  121OSM   H12B12776   5.099   2.813  10.949  1.4217 -0.1765 -0.1674
  121OSM    C1112777   5.272   2.710  11.017 -0.1060  0.0318 -0.1775
  121OSM   H11A12778   5.285   2.779  11.103  2.5949 -1.3391  0.5779
  121OSM   H11B12779   5.333   2.756  10.936 -0.3021 -0.1813 -0.4495
  121OSM      P12780   5.457   2.537  11.021  0.0455 -0.1050  0.1237
  121OSM    O1312781   5.549   2.613  11.105 -0.3328  0.6496 -0.3235
  121OSM    O1412782   5.480   2.390  11.024  0.4193  0.1816 -0.2071
  121OSM    O1112783   5.481   2.584  10.868 -0.1385  0.5454 -0.0655
  121OSM    O1212784   5.310   2.573  11.052  0.1028  0.2195 -0.0109
  121OSM    C1S12785   5.564   2.497  10.789  0.2815 -0.0508  0.4633
  121OSM    H1S12786   5.515   2.397  10.779 -0.7235  0.4021  0.8097
  121OSM    H1T12787   5.662   2.477  10.837  0.8692  3.1706  0.6908
  121OSM     NF12788   5.635   2.438  10.572  0.7026  0.0731 -0.2860
  121OSM    HNF12789   5.732   2.428  10.554  0.6948 -0.8755  0.1756
  121OSM    C2S12790   5.595   2.554  10.648 -1.0484 -0.4232  0.0626
  121OSM    H2S12791   5.500   2.596  10.607 -0.0070  0.8720 -1.0427
  121OSM    C3S12792   5.709   2.657  10.651 -1.0659  0.3568  0.8289
  121OSM    H3S12793   5.799   2.601  10.685 -1.8812 -0.3835  1.7907
  121OSM     O312794   5.694   2.756  10.744  0.1692  0.3264 -0.3278
  121OSM    HO312795   5.618   2.727  10.795  0.3566  0.0571 -0.1995
  121OSM    C4S12796   5.746   2.716  10.511  0.2717 -0.0193  0.1057
  121OSM    H4S12797   5.784   2.634  10.448  1.0078 -0.9221  1.6935
  121OSM    C5S12798   5.730   2.840  10.470 -0.1089  0.2546  0.5790
  121OSM    H5S12799   5.681   2.912  10.537 -0.9530  0.5141 -0.3113
  121OSM    C6S12800   5.772   2.884  10.331 -0.8523  0.1110  0.3658
  121OSM    H6S12801   5.844   2.968  10.336 -0.5257 -0.1389 -0.0916
  121OSM    H6T12802   5.684   2.912  10.269 -0.0191  1.1572 -0.3452
  121OSM    C7S12803   5.831   2.767  10.246 -0.3715  0.4161 -0.2492
  121OSM    H7S12804   5.758   2.683  10.238 -0.6786  0.8203 -1.8819
  121OSM    H7T12805   5.932   2.734  10.279 -1.6055 -2.7123  0.6649
  121OSM    C8S12806   5.855   2.803  10.098  0.3932 -0.3685 -0.3897
  121OSM    H8S12807   5.772   2.873  10.078 -0.3150 -1.4132 -1.1679
  121OSM    H8T12808   5.843   2.713  10.033  0.1481 -0.2993 -0.4395
  121OSM    C9S12809   5.996   2.878  10.075 -0.1338  0.0617 -0.2744
  121OSM    H9S12810   6.076   2.802  10.063 -0.8022 -0.8708  1.0062
  121OSM    H9T12811   6.021   2.939  10.164  2.6633 -0.1295 -0.8903
  121OSM   C10S12812   6.007   2.981   9.958 -0.8516 -0.4909 -0.5359
  121OSM   H10S12813   6.101   3.039   9.951  0.1215 -2.0007 -0.1066
  121OSM   H10T12814   5.930   3.060   9.976 -0.5692 -0.5924  1.1978
  121OSM   C11S12815   5.980   2.919   9.821  0.1275 -0.4892 -0.4096
  121OSM   H11S12816   5.881   2.868   9.830  0.9876 -1.7558  2.2788
  121OSM   H11T12817   6.059   2.842   9.806  1.2004  0.3116  1.0338
  121OSM   C12S12818   5.988   3.019   9.708  1.0978  0.1602 -0.3976
  121OSM   H12S12819   6.077   3.082   9.729  1.5376 -0.8403  0.7651
  121OSM   H12T12820   5.898   3.083   9.716  0.2167 -1.1426  0.2588
  121OSM   C13S12821   6.014   2.959   9.577 -0.2861 -0.0345 -0.3943
  121OSM   H13S12822   5.942   2.875   9.561 -0.4569  0.1225 -0.4536
  121OSM   H13T12823   6.109   2.902   9.582 -1.2698 -2.2502 -4.6185
  121OSM   C14S12824   6.016   3.051   9.459  0.5558  0.0433  0.2348
  121OSM   H14S12825   6.118   3.091   9.443  0.2493  0.8839  0.3664
  121OSM   H14T12826   5.953   3.141   9.475  3.1333  2.0644 -0.5862
  121OSM   C15S12827   5.961   2.983   9.332 -0.4698  0.0998  0.5806
  121OSM   H15S12828   5.850   2.982   9.340 -0.5975  0.6934 -0.8811
  121OSM   H15T12829   6.006   2.883   9.311  1.4139  0.7423  1.4085
  121OSM   C16S12830   5.988   3.068   9.208  0.3512 -0.0275  0.5153
  121OSM   H16S12831   6.097   3.086   9.205 -0.0023  2.0761 -2.7723
  121OSM   H16T12832   5.955   3.170   9.234 -2.7748 -1.1641  1.2767
  121OSM   C17S12833   5.927   3.017   9.076  0.0742 -0.6878  0.1058
  121OSM   H17S12834   5.817   3.004   9.082 -0.0651  0.1784 -0.4186
  121OSM   H17T12835   5.960   2.911   9.075  0.1981 -0.6764  1.6085
  121OSM   C18S12836   5.969   3.077   8.943 -1.1657 -0.0736  0.6901
  121OSM   H18S12837   5.947   3.014   8.855 -2.1370  1.9024 -0.5233
  121OSM   H18T12838   6.080   3.087   8.951 -1.1024 -0.9698  0.9831
  121OSM   H18U12839   5.919   3.174   8.923 -3.0115 -1.2907 -0.7401
  121OSM    C1F12840   5.544   2.353  10.523 -0.0050  0.2457  0.3200
  121OSM     OF12841   5.424   2.378  10.530  0.2273 -0.1341  0.7148
  121OSM    C2F12842   5.590   2.226  10.457 -0.4098 -0.5195  0.3744
  121OSM    H2F12843   5.531   2.152  10.515 -0.6463 -0.6472 -0.0300
  121OSM    H2G12844   5.698   2.205  10.472 -0.0062  0.5725 -0.8751
  121OSM    C3F12845   5.540   2.223  10.313 -0.1117 -0.2024  0.4572
  121OSM    H3F12846   5.433   2.251  10.304 -0.2134 -0.5291  0.6243
  121OSM    H3G12847   5.550   2.119  10.275  1.1815 -0.1019  0.5212
  121OSM    C4F12848   5.618   2.327  10.223 -0.5750  0.3061 -0.2625
  121OSM    H4F12849   5.724   2.331  10.256 -0.2064 -2.6897 -0.9751
  121OSM    H4G12850   5.576   2.425  10.251 -0.2885  0.5586 -0.7067
  121OSM    C5F12851   5.609   2.296  10.072  0.2010 -0.0892  0.0856
  121OSM    H5F12852   5.667   2.204  10.051  1.9387  1.1532 -0.6521
  121OSM    H5G12853   5.663   2.364  10.003 -0.9169 -0.2941 -1.0118
  121OSM    C6F12854   5.462   2.303  10.019 -0.3911 -0.4271  0.0742
  121OSM    H6F12855   5.427   2.406   9.999  1.7414  0.6173  1.5839
  121OSM    H6G12856   5.394   2.249  10.090 -0.3698  0.4966  0.8006
  121OSM    C7F12857   5.446   2.237   9.881 -0.7350 -0.4887  0.1318
  121OSM    H7F12858   5.345   2.195   9.866  0.2000 -2.0485 -1.9581
  121OSM    H7G12859   5.507   2.144   9.880  0.6805  0.4317 -0.0694
  121OSM    C8F12860   5.495   2.327   9.758  0.1917 -0.1775 -0.1835
  121OSM    H8F12861   5.520   2.255   9.677 -2.9315  0.5001 -1.8209
  121OSM    H8G12862   5.591   2.375   9.784  1.5114 -2.0866 -1.4176
  121OSM    C9F12863   5.400   2.435   9.713  0.0576  0.3708  0.3014
  121OSM    H9F12864   5.349   2.501   9.785 -0.3271  2.9332 -2.2311
  121OSM   C10F12865   5.369   2.445   9.584  0.1431 -0.4464  0.0528
  121OSM   H10F12866   5.290   2.517   9.558 -0.7756 -1.2185  0.7144
  121OSM   C11F12867   5.431   2.366   9.470  0.8768 -0.0052 -0.3853
  121OSM   H11F12868   5.373   2.272   9.459  0.8052  0.0618 -0.5928
  121OSM   H11G12869   5.537   2.339   9.486  1.0450 -1.0499 -2.9621
  121OSM   C12F12870   5.425   2.453   9.351  0.2200  1.3911 -0.1260
  121OSM   H12F12871   5.521   2.441   9.297 -0.4812  0.8060 -1.2505
  121OSM   H12G12872   5.416   2.559   9.384  0.4486  0.8770  1.6527
  121OSM   C13F12873   5.317   2.406   9.249  0.1577 -1.0968 -0.1595
  121OSM   H13F12874   5.217   2.410   9.298  1.2663 -1.0520  2.1596
  121OSM   H13G12875   5.334   2.297   9.243  0.8100 -1.0941  1.4607
  121OSM   C14F12876   5.312   2.472   9.112  0.6463 -0.2902 -0.1022
  121OSM   H14F12877   5.275   2.406   9.030  3.1967 -0.9337 -0.7723
  121OSM   H14G12878   5.412   2.502   9.073  0.5274  0.0006 -0.1865
  121OSM   C15F12879   5.232   2.601   9.128  0.0383  0.3812  0.3539
  121OSM   H15F12880   5.276   2.645   9.220  0.8276  1.4089 -0.4979
  121OSM   H15G12881   5.123   2.596   9.148  0.0017  1.8163  0.6078
  121OSM   C16F12882   5.248   2.700   9.018 -0.2374 -0.1765 -0.1555
  121OSM   H16F12883   5.353   2.733   9.030 -0.6411  1.5024 -1.0406
  121OSM   H16G12884   5.196   2.793   9.049 -0.4667 -0.6252  0.8324
  121OSM   C17F12885   5.200   2.656   8.875 -0.3247 -0.2212  0.3929
  121OSM   H17F12886   5.090   2.647   8.876 -0.2449 -1.2520  0.7699
  121OSM   H17G12887   5.235   2.553   8.852  0.9362  0.1172  0.7642
  121OSM   C18F12888   5.244   2.739   8.756 -0.1093  0.6449  0.2897
  121OSM   H18F12889   5.354   2.755   8.752 -0.0965  0.1976 -2.2060
  121OSM   H18G12890   5.196   2.838   8.770  0.1131  0.9304 -0.8957
  121OSM   H18H12891   5.216   2.691   8.659  0.5399 -0.4523  0.6387
  122OSM      N12892   5.982   0.894  10.805 -0.7399  0.4797  0.2654
  122OSM    C1512893   5.857   0.819  10.785  0.1495  0.0760 -0.8733
  122OSM   H15A12894   5.794   0.859  10.707 -0.6213  1.7769  0.5853
  122OSM   H15B12895   5.802   0.811  10.877  2.3215 -2.5276  0.2540
  122OSM   H15C12896   5.884   0.721  10.749  0.0479 -1.1329  2.2627
  122OSM    C1412897   5.947   1.035  10.808  0.3599 -0.7664 -0.4784
  122OSM   H14A12898   6.027   1.103  10.835 -0.9693  0.1932  1.1987
  122OSM   H14B12899   5.863   1.054  10.873 -0.1040 -1.0275 -1.0036
  122OSM   H14C12900   5.907   1.069  10.714  1.4635  0.7321 -0.4246
  122OSM    C1312901   6.048   0.856  10.931 -0.4477  0.0077 -0.3211
  122OSM   H13A12902   5.978   0.866  11.013  1.8971  1.9952  1.5033
  122OSM   H13B12903   6.129   0.926  10.946  0.0672 -0.5008 -0.6841
  122OSM   H13C12904   6.100   0.762  10.931 -0.5944 -0.1376 -3.5096
  122OSM    C1212905   6.089   0.863  10.700 -0.7567  0.4182  0.3273
  122OSM   H12A12906   6.052   0.870  10.599  0.2622  1.0632 -0.0092
  122OSM   H12B12907   6.107   0.758  10.718 -1.6313  0.3631  0.8906
  122OSM    C1112908   6.229   0.940  10.708 -0.0202  0.0249 -0.2671
  122OSM   H11A12909   6.219   1.049  10.731  1.3718  0.0405  0.2972
  122OSM   H11B12910   6.281   0.935  10.610  1.9473 -0.5497  0.7863
  122OSM      P12911   6.374   0.731  10.777 -0.1899  0.0834 -0.2294
  122OSM    O1312912   6.490   0.701  10.860  0.0713  0.1711 -0.1206
  122OSM    O1412913   6.258   0.633  10.785 -0.0096 -0.6347  0.2492
  122OSM    O1112914   6.421   0.745  10.623 -0.6713  0.0919 -0.6464
  122OSM    O1212915   6.316   0.880  10.811  0.7879 -0.1780  0.2578
  122OSM    C1S12916   6.555   0.800  10.586 -0.2870 -0.4104  0.1779
  122OSM    H1S12917   6.633   0.768  10.659  0.0762  1.2798  0.5546
  122OSM    H1T12918   6.553   0.911  10.586  2.0886 -0.3550 -0.0323
  122OSM     NF12919   6.715   0.813  10.414 -0.6388 -0.2503 -0.1270
  122OSM    HNF12920   6.722   0.870  10.332 -0.8679  0.2981  0.2363
  122OSM    C2S12921   6.590   0.752  10.440 -0.0387 -0.6524  0.8576
  122OSM    H2S12922   6.601   0.642  10.447 -0.9552 -0.9979 -2.3201
  122OSM    C3S12923   6.477   0.778  10.331  0.5903  0.8326  0.1946
  122OSM    H3S12924   6.438   0.882  10.330 -1.3565  0.1147 -1.6123
  122OSM     O312925   6.357   0.705  10.361 -0.0177  0.1034 -0.5360
  122OSM    HO312926   6.356   0.685  10.455  0.6563 -1.2590 -0.8067
  122OSM    C4S12927   6.533   0.735  10.198  0.5376  0.0702 -0.2630
  122OSM    H4S12928   6.516   0.817  10.127  1.8083  1.1494  0.6585
  122OSM    C5S12929   6.580   0.616  10.155  0.8349  0.0137 -0.6836
  122OSM    H5S12930   6.573   0.528  10.221  1.8979 -0.7179 -1.5264
  122OSM    C6S12931   6.624   0.589  10.014  0.6739  1.2972  0.1802
  122OSM    H6S12932   6.590   0.490   9.977  1.3923  1.1247 -0.0286
  122OSM    H6T12933   6.734   0.575  10.010  0.1968 -2.5116 -1.5259
  122OSM    C7S12934   6.585   0.696   9.913  0.7771  0.6173  0.0796
  122OSM    H7S12935   6.639   0.783   9.956 -1.4012  0.5562  3.1370
  122OSM    H7T12936   6.477   0.718   9.900  0.4213 -0.6676  0.8103
  122OSM    C8S12937   6.646   0.673   9.780  0.8960 -0.2173 -0.0177
  122OSM    H8S12938   6.630   0.568   9.747  0.2413  0.4069 -1.7006
  122OSM    H8T12939   6.752   0.705   9.778  0.8619  0.2363  2.9288
  122OSM    C9S12940   6.571   0.753   9.678 -0.2292 -0.1025  0.5725
  122OSM    H9S12941   6.587   0.860   9.701  0.6761 -0.0062 -0.4895
  122OSM    H9T12942   6.462   0.736   9.692 -0.4145 -0.6169 -1.3725
  122OSM   C10S12943   6.609   0.741   9.531  0.4736 -0.1669 -0.3191
  122OSM   H10S12944   6.562   0.648   9.491 -3.7347  2.6534 -2.3475
  122OSM   H10T12945   6.717   0.729   9.511  0.1584 -0.1282 -2.1536
  122OSM   C11S12946   6.553   0.856   9.444  0.2002 -0.3267 -0.1786
  122OSM   H11S12947   6.603   0.951   9.470  0.2078 -0.3418 -0.1396
  122OSM   H11T12948   6.443   0.859   9.460 -0.3353  1.3988 -3.7247
  122OSM   C12S12949   6.570   0.818   9.301  0.0583 -0.1934  0.4290
  122OSM   H12S12950   6.532   0.714   9.288  1.1088 -0.4702 -0.4717
  122OSM   H12T12951   6.677   0.811   9.274  0.1274 -0.4062  0.7518
  122OSM   C13S12952   6.485   0.911   9.208 -0.7311  0.0861  0.3271
  122OSM   H13S12953   6.536   1.010   9.211  0.8701 -0.7178  0.1746
  122OSM   H13T12954   6.381   0.919   9.246 -0.9254 -0.9205 -0.0025
  122OSM   C14S12955   6.483   0.865   9.066  0.4962 -0.1344 -0.0758
  122OSM   H14S12956   6.403   0.788   9.054  0.8126 -0.4831  0.0232
  122OSM   H14T12957   6.577   0.811   9.042  0.1479 -1.5706  1.5754
  122OSM   C15S12958   6.464   0.968   8.962 -0.2326 -0.0680  0.7228
  122OSM   H15S12959   6.502   1.067   8.992  1.5965 -0.5433  0.0445
  122OSM   H15T12960   6.354   0.970   8.944 -0.1450  1.8139  0.3494
  122OSM   C16S12961   6.520   0.937   8.825 -0.1633  0.1907 -0.5231
  122OSM   H16S12962   6.482   0.835   8.799  3.0125 -1.3547  0.5716
  122OSM   H16T12963   6.628   0.913   8.832 -0.2890 -0.4534 -0.7430
  122OSM   C17S12964   6.496   1.043   8.719  0.2977  0.0844 -0.6641
  122OSM   H17S12965   6.564   1.035   8.631 -0.1384 -0.1134 -0.9821
  122OSM   H17T12966   6.523   1.135   8.776 -2.6158 -0.4322  1.6626
  122OSM   C18S12967   6.352   1.065   8.670 -0.2900 -0.7376  0.2729
  122OSM   H18S12968   6.344   1.158   8.609  1.4662  0.6140  2.0074
  122OSM   H18T12969   6.282   1.079   8.755 -0.3033 -0.7316  0.2600
  122OSM   H18U12970   6.324   0.974   8.613 -1.7370 -2.1857  3.1706
  122OSM    C1F12971   6.831   0.796  10.481 -0.0160 -0.5725 -0.3657
  122OSM     OF12972   6.843   0.713  10.571  0.0856  0.1812 -0.4067
  122OSM    C2F12973   6.949   0.878  10.449  0.1661  0.4602 -0.2954
  122OSM    H2F12974   7.017   0.883  10.537  1.3755  1.4281 -1.2654
  122OSM    H2G12975   6.921   0.981  10.419  0.1322  0.8063  0.9241
  122OSM    C3F12976   7.038   0.812  10.343  0.2088  0.2081  0.0273
  122OSM    H3F12977   7.042   0.704  10.370 -2.5213 -0.2345 -1.1915
  122OSM    H3G12978   7.140   0.857  10.349  0.1229  0.3305  0.6419
  122OSM    C4F12979   6.983   0.821  10.197 -0.3813  0.5077  0.8238
  122OSM    H4F12980   6.994   0.927  10.166  0.4227  0.4298  0.8501
  122OSM    H4G12981   6.877   0.795  10.173  0.1021  1.5226 -2.6580
  122OSM    C5F12982   7.071   0.742  10.104 -0.4794  0.4884 -0.5995
  122OSM    H5F12983   7.075   0.633  10.123 -1.4147  0.3579 -1.1264
  122OSM    H5G12984   7.171   0.783  10.131 -0.1089 -0.6172 -0.2394
  122OSM    C6F12985   7.030   0.749   9.959 -0.6867  0.6850  0.6742
  122OSM    H6F12986   7.049   0.851   9.918  1.3544  0.7212  1.6373
  122OSM    H6G12987   6.923   0.722   9.962 -0.2181 -1.5915 -1.3985
  122OSM    C7F12988   7.103   0.637   9.875 -0.2364  0.4269  0.1700
  122OSM    H7F12989   7.074   0.534   9.904  0.3622  0.4756  0.9415
  122OSM    H7G12990   7.210   0.651   9.898 -0.0984  2.2677 -1.5086
  122OSM    C8F12991   7.087   0.647   9.722  0.0839 -0.4638  0.5507
  122OSM    H8F12992   7.101   0.751   9.685 -1.0466 -0.6871 -0.5621
  122OSM    H8G12993   6.979   0.625   9.705 -0.2677  1.0505  0.7086
  122OSM    C9F12994   7.171   0.558   9.644 -0.3236  0.2425  0.4588
  122OSM    H9F12995   7.243   0.492   9.695  0.4992 -0.9191 -2.1083
  122OSM   C10F12996   7.168   0.542   9.511  1.0544 -1.0550 -0.3327
  122OSM   H10F12997   7.241   0.482   9.456 -0.3349 -2.9310 -0.1679
  122OSM   C11F12998   7.082   0.626   9.417 -0.0639 -0.7060 -0.0857
  122OSM   H11F12999   7.047   0.720   9.464 -0.2630 -1.4573  1.2938
  122OSM   H11G13000   6.989   0.566   9.422 -1.7435  1.7506 -1.1039
  122OSM   C12F13001   7.118   0.650   9.264 -0.0114  0.0687 -0.7457
  122OSM   H12F13002   7.049   0.721   9.214  0.7470  0.0170 -1.8637
  122OSM   H12G13003   7.116   0.550   9.218  0.8127 -0.8425  1.1402
  122OSM   C13F13004   7.254   0.708   9.241  0.5651 -0.3125  0.7596
  122OSM   H13F13005   7.323   0.636   9.291 -2.6077 -2.2403  2.5606
  122OSM   H13G13006   7.266   0.801   9.301 -0.5417  0.4378 -0.1747
  122OSM   C14F13007   7.281   0.735   9.092 -0.0457  0.2873  0.2958
  122OSM   H14F13008   7.353   0.818   9.073 -1.2209  1.0576 -0.8903
  122OSM   H14G13009   7.179   0.767   9.062  0.5521  2.4228  0.4314
  122OSM   C15F13010   7.327   0.611   9.012  0.3402 -0.4860  0.9298
  122OSM   H15F13011   7.269   0.524   9.048 -1.9152  0.0940 -1.1604
  122OSM   H15G13012   7.433   0.589   9.039 -1.0033 -2.1236  5.2905
  122OSM   C16F13013   7.313   0.629   8.862 -0.6831 -0.1137  0.2016
  122OSM   H16F13014   7.369   0.719   8.829 -1.5992  0.2660 -0.3313
  122OSM   H16G13015   7.210   0.662   8.837  0.3449  0.4868 -3.6025
  122OSM   C17F13016   7.355   0.496   8.795  0.8828 -0.5320 -0.4873
  122OSM   H17F13017   7.312   0.496   8.693 -2.1865 -0.5780  0.7793
  122OSM   H17G13018   7.311   0.405   8.840 -0.5243  0.0827 -0.6214
  122OSM   C18F13019   7.509   0.484   8.783 -0.1119  0.0090 -0.2579
  122OSM   H18F13020   7.532   0.382   8.745 -2.2663  0.2803 -2.4323
  122OSM   H18G13021   7.549   0.485   8.886  0.1061  0.4548 -0.3491
  122OSM   H18H13022   7.547   0.559   8.710  1.9849 -2.1093 -1.4008
  123OSM      N13023   4.923   6.207   5.903 -0.1705 -0.3673  0.0236
  123OSM    C1513024   4.903   6.258   6.039 -0.6211 -0.0226  0.6992
  123OSM   H15A13025   4.974   6.210   6.105 -0.2937 -1.1862 -0.4951
  123OSM   H15B13026   4.804   6.244   6.081 -1.3525  0.2356 -0.9143
  123OSM   H15C13027   4.919   6.365   6.043 -1.4702  0.2547 -2.1785
  123OSM    C1413028   4.808   6.246   5.817  0.3699  0.0062 -0.2100
  123OSM   H14A13029   4.830   6.213   5.717  1.8960 -1.5602  0.6085
  123OSM   H14B13030   4.799   6.353   5.817  1.7158  0.1378 -2.3662
  123OSM   H14C13031   4.715   6.203   5.850 -0.4922  0.5205 -1.9151
  123OSM    C1313032   5.048   6.261   5.841  0.8318 -0.7352 -0.0471
  123OSM   H13A13033   5.048   6.364   5.809 -0.4540 -0.7011  0.0422
  123OSM   H13B13034   5.071   6.206   5.751  1.1202 -0.5145 -0.1070
  123OSM   H13C13035   5.124   6.245   5.917  1.9384  0.5102 -0.8864
  123OSM    C1213036   4.938   6.056   5.900  0.0009 -0.6329  0.0665
  123OSM   H12A13037   5.026   6.025   5.955  1.2479 -3.6909 -3.4599
  123OSM   H12B13038   4.940   6.019   5.799 -0.1402 -1.3458  0.3216
  123OSM    C1113039   4.823   5.966   5.966 -0.1674 -0.3825  0.5390
  123OSM   H11A13040   4.833   5.975   6.077  3.2776  0.5931  0.1815
  123OSM   H11B13041   4.851   5.859   5.956  0.8383 -0.0350 -0.3178
  123OSM      P13042   4.554   5.974   6.001 -0.0060 -0.6093  0.2330
  123OSM    O1313043   4.462   6.077   5.959  0.2312  0.5229 -0.5663
  123OSM    O1413044   4.508   5.833   5.980  0.1603 -0.5145  0.7905
  123OSM    O1113045   4.612   5.985   6.150  0.1690 -0.2167  0.7627
  123OSM    O1213046   4.689   5.993   5.921 -0.4267 -0.3723 -0.0723
  123OSM    C1S13047   4.607   6.125   6.203  0.0734  0.0366  0.0062
  123OSM    H1S13048   4.574   6.203   6.130 -2.5405 -1.6186 -0.6450
  123OSM    H1T13049   4.707   6.151   6.243 -0.3863  0.4080  0.9383
  123OSM     NF13050   4.535   6.274   6.390  0.1701 -0.0951  0.1971
  123OSM    HNF13051   4.589   6.283   6.473  1.5872 -0.4115 -0.6720
  123OSM    C2S13052   4.516   6.142   6.328 -0.0087 -0.7627 -0.9265
  123OSM    H2S13053   4.411   6.136   6.292 -0.8291  0.6136  1.1200
  123OSM    C3S13054   4.553   6.027   6.426 -1.0156 -0.2298  0.3033
  123OSM    H3S13055   4.660   6.042   6.454 -1.4804  1.9418  1.0412
  123OSM     O313056   4.531   5.896   6.376  0.2184 -0.2014 -0.5978
  123OSM    HO313057   4.538   5.906   6.281  0.6990 -0.4491 -0.5876
  123OSM    C4S13058   4.463   6.028   6.555  0.2763  0.1429  0.6074
  123OSM    H4S13059   4.357   6.030   6.525  0.0817 -1.2239  1.1761
  123OSM    C5S13060   4.496   6.024   6.689  0.0390  1.0749 -0.0601
  123OSM    H5S13061   4.597   6.011   6.731  0.0097  2.6491  0.5331
  123OSM    C6S13062   4.388   6.036   6.800  1.2690  0.0292  0.0708
  123OSM    H6S13063   4.370   5.932   6.833 -3.8485  0.4848 -0.9855
  123OSM    H6T13064   4.293   6.084   6.768  0.0100 -1.3312  1.7249
  123OSM    C7S13065   4.434   6.130   6.918  0.6389  0.2937  0.5810
  123OSM    H7S13066   4.466   6.229   6.880  0.6822  0.3282  0.7065
  123OSM    H7T13067   4.520   6.089   6.976  2.6076  2.1025 -0.9754
  123OSM    C8S13068   4.314   6.135   7.016 -0.1897 -0.0022  0.1457
  123OSM    H8S13069   4.279   6.030   7.025 -1.7856  0.6145  1.2740
  123OSM    H8T13070   4.227   6.189   6.973 -0.1166 -1.2187 -1.6104
  123OSM    C9S13071   4.348   6.200   7.144 -0.2270 -0.0710 -0.2370
  123OSM    H9S13072   4.380   6.305   7.122  2.2695  0.0477  3.3562
  123OSM    H9T13073   4.435   6.156   7.197 -0.3375 -1.5058 -1.2297
  123OSM   C10S13074   4.227   6.202   7.250  0.3779  0.0679  0.6357
  123OSM   H10S13075   4.199   6.095   7.250 -0.1955  0.1808 -1.7672
  123OSM   H10T13076   4.139   6.246   7.197 -0.1662 -1.2282  0.4600
  123OSM   C11S13077   4.262   6.268   7.383 -0.5084  0.6856  0.2981
  123OSM   H11S13078   4.303   6.370   7.375  1.7849 -0.2565 -0.3699
  123OSM   H11T13079   4.338   6.197   7.421  1.1163  1.5122 -1.3356
  123OSM   C12S13080   4.147   6.261   7.483 -0.1140 -0.0020 -0.0150
  123OSM   H12S13081   4.108   6.158   7.500  1.5925 -0.7993 -0.7846
  123OSM   H12T13082   4.067   6.329   7.448 -0.0112  0.0107 -0.2257
  123OSM   C13S13083   4.186   6.310   7.623 -0.1810 -0.1456 -0.4443
  123OSM   H13S13084   4.091   6.319   7.680  0.7780 -2.2676  1.5604
  123OSM   H13T13085   4.222   6.414   7.613 -0.8142  0.1804  0.5559
  123OSM   C14S13086   4.290   6.235   7.702  0.0243  0.1110  0.0297
  123OSM   H14S13087   4.384   6.226   7.643  0.4863 -2.4876  1.1006
  123OSM   H14T13088   4.247   6.135   7.723 -1.5282  0.2057 -2.4288
  123OSM   C15S13089   4.322   6.300   7.836 -0.3010  0.9208 -0.8775
  123OSM   H15S13090   4.232   6.314   7.900  0.9262 -0.4970  1.2202
  123OSM   H15T13091   4.357   6.404   7.823  0.5742  0.4809 -2.0382
  123OSM   C16S13092   4.430   6.220   7.915 -0.5645  0.2555 -0.6514
  123OSM   H16S13093   4.454   6.260   8.016  0.1749  0.1158 -0.7703
  123OSM   H16T13094   4.529   6.226   7.864  0.4127 -1.0585  1.0256
  123OSM   C17S13095   4.398   6.074   7.936 -0.1780  0.5539  0.1923
  123OSM   H17S13096   4.406   6.023   7.837 -1.9065  1.5172 -0.4832
  123OSM   H17T13097   4.295   6.058   7.975 -0.7449 -0.4632 -1.6593
  123OSM   C18S13098   4.498   6.001   8.026 -0.0459  0.9656 -0.1256
  123OSM   H18S13099   4.492   5.891   8.012  3.4457  0.4089  2.0363
  123OSM   H18T13100   4.483   6.022   8.134  1.0119 -0.1243  0.2543
  123OSM   H18U13101   4.606   6.023   8.009  0.8723 -2.7466  0.3542
  123OSM    C1F13102   4.488   6.387   6.335  1.0377 -0.1050 -0.1381
  123OSM     OF13103   4.417   6.379   6.236  0.2702 -0.0867  0.4857
  123OSM    C2F13104   4.529   6.515   6.376  0.2339 -0.2384 -0.2981
  123OSM    H2F13105   4.547   6.578   6.287  1.1917  4.4484  2.9969
  123OSM    H2G13106   4.621   6.492   6.435 -0.0140 -2.1170 -0.6159
  123OSM    C3F13107   4.424   6.598   6.452 -0.0643  0.7033 -0.1010
  123OSM    H3F13108   4.343   6.637   6.386 -0.1785 -2.0030 -1.6226
  123OSM    H3G13109   4.478   6.692   6.475  0.0869  0.8895 -1.1533
  123OSM    C4F13110   4.383   6.538   6.587 -0.0314 -0.6241  0.4361
  123OSM    H4F13111   4.362   6.623   6.656 -1.2336  0.3705 -1.1115
  123OSM    H4G13112   4.464   6.484   6.640  0.9835  2.0706  1.7552
  123OSM    C5F13113   4.262   6.443   6.572 -0.4315 -0.5516  0.0955
  123OSM    H5F13114   4.294   6.350   6.519 -0.4492 -1.0558  0.9682
  123OSM    H5G13115   4.182   6.494   6.513 -0.6398 -2.0779 -0.9723
  123OSM    C6F13116   4.191   6.415   6.705 -0.4875 -0.5902  0.0921
  123OSM    H6F13117   4.187   6.517   6.750 -1.1574 -0.9153  0.7790
  123OSM    H6G13118   4.248   6.344   6.768 -0.4600 -0.0023  0.7362
  123OSM    C7F13119   4.045   6.367   6.692 -0.2220 -0.0084  0.8185
  123OSM    H7F13120   3.980   6.429   6.627  0.8464 -0.8406 -1.1123
  123OSM    H7G13121   4.007   6.367   6.796 -0.9988  0.4079  0.5381
  123OSM    C8F13122   4.034   6.215   6.657 -0.7334 -0.3500  0.7225
  123OSM    H8F13123   4.082   6.152   6.734 -0.3667 -0.3648  0.4789
  123OSM    H8G13124   4.065   6.200   6.552 -1.3236  0.5863  0.4037
  123OSM    C9F13125   3.889   6.173   6.661  0.0193 -0.6215 -0.4492
  123OSM    H9F13126   3.826   6.249   6.613 -1.5669 -1.0061  0.9520
  123OSM   C10F13127   3.823   6.074   6.712  0.3917 -0.0472  0.0201
  123OSM   H10F13128   3.714   6.072   6.692  0.0227  0.6892  1.8968
  123OSM   C11F13129   3.876   5.966   6.797 -0.2242  0.9212  0.0835
  123OSM   H11F13130   3.984   5.980   6.820  0.2286 -1.6532 -0.4290
  123OSM   H11G13131   3.851   5.872   6.744  3.2884 -0.0546  0.0670
  123OSM   C12F13132   3.820   5.966   6.938  0.7978  0.3973  0.2695
  123OSM   H12F13133   3.858   5.878   6.994  1.8603  0.8727  0.3095
  123OSM   H12G13134   3.711   5.967   6.918  0.8835 -1.7366 -0.4848
  123OSM   C13F13135   3.845   6.090   7.023 -0.5434  0.0464  0.0216
  123OSM   H13F13136   3.803   6.179   6.972  0.9319 -0.4053 -2.0623
  123OSM   H13G13137   3.955   6.094   7.038 -0.2041 -0.8850 -1.9864
  123OSM   C14F13138   3.768   6.085   7.153  0.4132 -0.0489  0.2825
  123OSM   H14F13139   3.793   5.989   7.203 -0.5298  0.0766  1.0126
  123OSM   H14G13140   3.660   6.092   7.129  1.0934  0.8289 -2.7454
  123OSM   C15F13141   3.806   6.189   7.251 -0.1014  0.0290 -0.2788
  123OSM   H15F13142   3.807   6.290   7.205  2.6830  0.5235  0.7738
  123OSM   H15G13143   3.906   6.173   7.298 -0.2772  3.2434  1.3117
  123OSM   C16F13144   3.705   6.196   7.368  0.0348  0.0185  0.2569
  123OSM   H16F13145   3.697   6.095   7.414  3.3805 -1.0901 -1.4835
  123OSM   H16G13146   3.608   6.218   7.319 -0.1969 -1.3032  0.1122
  123OSM   C17F13147   3.746   6.296   7.474 -0.6704  0.2742  0.9098
  123OSM   H17F13148   3.764   6.396   7.429  1.4391 -0.2628  0.5153
  123OSM   H17G13149   3.846   6.272   7.516  0.1202  1.7982 -0.0604
  123OSM   C18F13150   3.641   6.296   7.584 -0.3395  0.1371 -0.7195
  123OSM   H18F13151   3.681   6.359   7.667 -1.2347  0.7796 -0.7712
  123OSM   H18G13152   3.636   6.193   7.625  1.2747  1.2900  2.5248
  123OSM   H18H13153   3.542   6.341   7.562 -0.2963  0.4980 -0.1712
  124OSM      N13154   6.479   3.522   6.365 -0.3445  0.3851  0.5974
  124OSM    C1513155   6.550   3.418   6.438  0.0492  0.0313  0.3497
  124OSM   H15A13156   6.481   3.355   6.492 -1.3349 -0.8369 -2.3527
  124OSM   H15B13157   6.630   3.468   6.490  2.1273 -0.9552 -1.7963
  124OSM   H15C13158   6.598   3.348   6.372 -0.5576 -0.6236  0.5932
  124OSM    C1413159   6.582   3.594   6.283  0.4732 -0.0850  1.0463
  124OSM   H14A13160   6.635   3.536   6.208  0.4260  0.0507  0.9087
  124OSM   H14B13161   6.665   3.626   6.344  1.2671 -0.5989  0.2581
  124OSM   H14C13162   6.536   3.680   6.237  0.6388 -1.0657 -1.0185
  124OSM    C1313163   6.388   3.454   6.267 -0.1693 -0.2007  0.0969
  124OSM   H13A13164   6.323   3.523   6.216  2.0386  1.6913 -0.1978
  124OSM   H13B13165   6.326   3.390   6.329  0.5200 -0.2893  0.7009
  124OSM   H13C13166   6.429   3.380   6.200  1.4454 -1.7784  2.7006
  124OSM    C1213167   6.405   3.622   6.448  0.9331 -0.0060  0.1349
  124OSM   H12A13168   6.317   3.573   6.487  0.4837  1.2511  0.7399
  124OSM   H12B13169   6.384   3.703   6.380 -0.4779  0.4969  1.1453
  124OSM    C1113170   6.470   3.694   6.562 -0.2581  0.3156 -0.1785
  124OSM   H11A13171   6.507   3.615   6.631 -0.4011  0.9542  0.6373
  124OSM   H11B13172   6.402   3.765   6.614 -0.3549  0.8729 -1.0556
  124OSM      P13173   6.590   3.921   6.490  0.1762  0.2952 -0.5150
  124OSM    O1313174   6.721   3.953   6.427  0.3190 -0.0101  0.2138
  124OSM    O1413175   6.469   3.961   6.413  0.2636 -0.3873  0.0510
  124OSM    O1113176   6.591   3.991   6.634  0.3159  0.2823  0.4141
  124OSM    O1213177   6.593   3.763   6.519 -0.4189  0.9858  0.0164
  124OSM    C1S13178   6.719   3.998   6.701 -0.2586 -0.1198  0.0459
  124OSM    H1S13179   6.785   4.075   6.658  0.3960 -1.2913 -1.0933
  124OSM    H1T13180   6.775   3.902   6.703  2.5593  1.4932  1.9207
  124OSM     NF13181   6.822   4.056   6.926  0.4414  0.4143  0.1421
  124OSM    HNF13182   6.876   3.988   6.975  1.8902  0.5267 -1.2747
  124OSM    C2S13183   6.696   4.027   6.860  0.9352 -0.5753  0.7339
  124OSM    H2S13184   6.625   4.112   6.863  2.4125  0.9446 -4.0587
  124OSM    C3S13185   6.622   3.905   6.921  0.1377 -0.2127 -0.3725
  124OSM    H3S13186   6.698   3.829   6.948  0.1518  0.5993  1.9577
  124OSM     O313187   6.526   3.838   6.833  0.0711 -0.0897 -0.1656
  124OSM    HO313188   6.523   3.888   6.751  2.0463 -1.0480 -0.8446
  124OSM    C4S13189   6.539   3.935   7.053  0.5975  0.6956 -0.4878
  124OSM    H4S13190   6.470   4.021   7.051  0.1456  0.3355 -0.1077
  124OSM    C5S13191   6.561   3.865   7.166  0.3125  0.0853 -0.4833
  124OSM    H5S13192   6.649   3.799   7.170 -0.2557 -0.8188 -2.4635
  124OSM    C6S13193   6.493   3.891   7.297  0.1994  0.1621 -0.5220
  124OSM    H6S13194   6.386   3.917   7.287  0.1031 -0.1407 -0.3019
  124OSM    H6T13195   6.537   3.980   7.347 -0.2034  0.5084 -0.7837
  124OSM    C7S13196   6.500   3.760   7.384 -0.5054  0.4957 -0.2324
  124OSM    H7S13197   6.608   3.739   7.401 -0.4198 -1.0728 -2.5263
  124OSM    H7T13198   6.468   3.677   7.319  1.2798  1.4863 -2.4489
  124OSM    C8S13199   6.445   3.764   7.528  0.0245 -1.2368  0.2512
  124OSM    H8S13200   6.335   3.777   7.527 -0.0182 -1.6314 -0.4929
  124OSM    H8T13201   6.499   3.844   7.584 -0.3311 -1.5705  1.0740
  124OSM    C9S13202   6.492   3.645   7.622  0.6677  0.0117  0.0357
  124OSM    H9S13203   6.600   3.624   7.605  0.5465  0.4859 -1.4497
  124OSM    H9T13204   6.431   3.556   7.593  1.4147 -0.0039 -1.5497
  124OSM   C10S13205   6.455   3.678   7.771 -0.5108  0.2845  0.7660
  124OSM   H10S13206   6.346   3.671   7.790 -0.8233  0.4079 -0.8705
  124OSM   H10T13207   6.472   3.788   7.774 -0.2975  0.3144 -1.0185
  124OSM   C11S13208   6.549   3.606   7.863 -1.0591 -0.1719 -0.1951
  124OSM   H11S13209   6.647   3.657   7.864  1.4733 -4.7816 -1.0887
  124OSM   H11T13210   6.589   3.511   7.823 -2.8262 -1.4054  0.8780
  124OSM   C12S13211   6.485   3.578   8.001 -0.5888  0.3591  0.1960
  124OSM   H12S13212   6.385   3.531   7.991  0.2750 -2.5732  3.9888
  124OSM   H12T13213   6.463   3.670   8.059 -3.9848 -0.0652 -0.3091
  124OSM   C13S13214   6.565   3.485   8.087 -0.2763 -0.6086 -0.0671
  124OSM   H13S13215   6.669   3.524   8.086 -0.5958  0.2474 -0.1628
  124OSM   H13T13216   6.573   3.386   8.037  0.4792 -0.6787  0.1900
  124OSM   C14S13217   6.525   3.473   8.237 -0.2106  1.4391 -0.5674
  124OSM   H14S13218   6.418   3.443   8.242  0.3885 -0.6857  0.2253
  124OSM   H14T13219   6.525   3.577   8.274 -0.6254  0.9104  0.9517
  124OSM   C15S13220   6.619   3.368   8.310 -0.0387  0.7800 -0.0789
  124OSM   H15S13221   6.727   3.393   8.298  0.1109  0.7091  1.0822
  124OSM   H15T13222   6.591   3.264   8.281  1.7822  1.1891 -3.5531
  124OSM   C16S13223   6.608   3.392   8.463  0.0409 -0.3590  1.1205
  124OSM   H16S13224   6.499   3.385   8.481 -0.6321 -0.1702 -2.5427
  124OSM   H16T13225   6.641   3.498   8.477 -0.7548  0.1068 -0.4437
  124OSM   C17S13226   6.682   3.300   8.556 -0.1456  0.1197  0.6183
  124OSM   H17S13227   6.677   3.338   8.660 -0.6554 -1.1539  1.0736
  124OSM   H17T13228   6.790   3.295   8.528 -0.1434  1.1215  0.4414
  124OSM   C18S13229   6.605   3.170   8.557 -0.4481 -0.1679  0.4860
  124OSM   H18S13230   6.504   3.200   8.594 -0.9539  1.5137 -2.1114
  124OSM   H18T13231   6.663   3.108   8.628  0.0244  1.8126  1.8831
  124OSM   H18U13232   6.603   3.120   8.458  1.7289 -0.5069  0.6008
  124OSM    C1F13233   6.877   4.175   6.913 -0.3855  0.1549  0.3426
  124OSM     OF13234   6.816   4.266   6.870 -0.1026  0.1377  0.4232
  124OSM    C2F13235   7.018   4.194   6.972 -0.0877  0.8092  0.5998
  124OSM    H2F13236   7.069   4.263   6.901  0.7372  2.5109  2.7806
  124OSM    H2G13237   7.074   4.099   6.968 -0.9481  0.2393  1.7613
  124OSM    C3F13238   7.001   4.260   7.113  0.0650  0.6706  0.3549
  124OSM    H3F13239   6.943   4.194   7.180  0.9522 -0.6197 -0.1276
  124OSM    H3G13240   6.951   4.358   7.099  1.6655  1.3133 -1.1468
  124OSM    C4F13241   7.132   4.290   7.180  0.3419 -0.7284 -0.3578
  124OSM    H4F13242   7.184   4.350   7.103 -0.2216  1.2440  0.7526
  124OSM    H4G13243   7.175   4.189   7.192  1.1493 -0.4703 -0.9958
  124OSM    C5F13244   7.126   4.363   7.313 -0.1938 -0.2594  0.8061
  124OSM    H5F13245   7.085   4.466   7.302 -0.0699  0.0100  2.6050
  124OSM    H5G13246   7.233   4.379   7.341  1.0477 -1.4956 -2.9419
  124OSM    C6F13247   7.050   4.292   7.427  0.1315 -0.5451  0.5102
  124OSM    H6F13248   7.050   4.182   7.406  0.6923 -0.6847  1.2117
  124OSM    H6G13249   6.947   4.330   7.442  0.0668 -0.6846  0.4230
  124OSM    C7F13250   7.121   4.323   7.566  0.3574  0.2349  0.6846
  124OSM    H7F13251   7.123   4.433   7.581 -0.2878  0.2568  0.6540
  124OSM    H7G13252   7.221   4.281   7.544 -0.1014  0.5429 -2.1863
  124OSM    C8F13253   7.059   4.252   7.690  0.2534 -0.1404  0.5117
  124OSM    H8F13254   7.147   4.233   7.755  1.0250 -0.6708 -0.6675
  124OSM    H8G13255   7.025   4.150   7.662 -1.1529  0.6308 -0.6759
  124OSM    C9F13256   6.953   4.334   7.752 -0.5500  0.1591 -0.2267
  124OSM    H9F13257   6.889   4.378   7.674 -0.7663 -0.4458 -0.3928
  124OSM   C10F13258   6.927   4.345   7.882  0.1105  0.3151  0.0504
  124OSM   H10F13259   6.855   4.422   7.912  0.4751  0.6172  0.1465
  124OSM   C11F13260   7.010   4.275   7.992  0.0242  0.8663  0.5961
  124OSM   H11F13261   7.046   4.174   7.961  2.1778  2.1633 -1.3014
  124OSM   H11G13262   6.949   4.245   8.080  0.5111 -0.4108  0.5229
  124OSM   C12F13263   7.139   4.357   8.021 -0.6057  1.0124 -0.6667
  124OSM   H12F13264   7.101   4.453   8.060  0.6200  1.0336  0.5145
  124OSM   H12G13265   7.202   4.368   7.930 -0.1025 -1.4768 -0.6670
  124OSM   C13F13266   7.244   4.299   8.119 -0.1643  0.3279  0.3500
  124OSM   H13F13267   7.286   4.208   8.070  0.7670  0.2060  1.3441
  124OSM   H13G13268   7.192   4.258   8.209  1.0542  0.4660  1.1287
  124OSM   C14F13269   7.354   4.392   8.160  0.0251  0.6760  0.3489
  124OSM   H14F13270   7.393   4.431   8.063 -0.4477 -0.0892 -0.1537
  124OSM   H14G13271   7.433   4.334   8.213 -1.0343 -3.3096 -2.2288
  124OSM   C15F13272   7.313   4.508   8.248  0.0061  0.2066 -0.0780
  124OSM   H15F13273   7.257   4.467   8.335 -1.4092 -0.2439 -1.1830
  124OSM   H15G13274   7.244   4.584   8.205  3.5708  3.6382 -0.0155
  124OSM   C16F13275   7.435   4.593   8.289 -0.2106 -0.2300  0.6275
  124OSM   H16F13276   7.487   4.635   8.201  0.5120 -2.0305  0.1682
  124OSM   H16G13277   7.506   4.532   8.349  0.9444  1.0396  0.5674
  124OSM   C17F13278   7.369   4.702   8.373 -0.2458  0.0252 -0.9054
  124OSM   H17F13279   7.321   4.653   8.460  0.9880  0.9757  0.3333
  124OSM   H17G13280   7.290   4.741   8.306 -0.1546 -0.5321 -1.3452
  124OSM   C18F13281   7.458   4.822   8.419 -0.0984  0.1712  0.0452
  124OSM   H18F13282   7.406   4.917   8.444  0.6226  0.9503 -1.3745
  124OSM   H18G13283   7.516   4.849   8.328 -1.1857  2.7093  0.0548
  124OSM   H18H13284   7.519   4.783   8.503 -0.7132 -0.8266  0.0352
  125OSM      N13285   5.943   5.552   6.151  0.2306 -0.8288 -0.3658
  125OSM    C1513286   5.873   5.487   6.035  0.1047  0.4636  0.3945
  125OSM   H15A13287   5.785   5.541   6.005 -0.9712 -0.5439  1.6484
  125OSM   H15B13288   5.854   5.384   6.064 -1.8508  0.7130  0.0173
  125OSM   H15C13289   5.938   5.480   5.949  1.3078  0.6909  1.2754
  125OSM    C1413290   5.962   5.699   6.120  0.1082  0.2241 -0.2538
  125OSM   H14A13291   6.003   5.708   6.021 -0.6979  0.7102 -0.5478
  125OSM   H14B13292   6.037   5.752   6.178 -1.1400 -0.0231  1.6142
  125OSM   H14C13293   5.871   5.756   6.119  0.2509  0.5479  1.8757
  125OSM    C1313294   5.864   5.552   6.278  0.2202 -0.5788 -0.0806
  125OSM   H13A13295   5.767   5.599   6.266  0.3178 -0.0415  1.1223
  125OSM   H13B13296   5.919   5.617   6.345  1.3820 -2.6177  0.9664
  125OSM   H13C13297   5.860   5.451   6.315 -1.8755  0.8520  3.8946
  125OSM    C1213298   6.073   5.477   6.162 -0.2628 -0.0092 -0.3216
  125OSM   H12A13299   6.129   5.485   6.070  1.8582  3.7485  1.1623
  125OSM   H12B13300   6.047   5.373   6.163  1.1785 -0.3827  1.4916
  125OSM    C1113301   6.167   5.515   6.281 -0.0657 -0.5500  0.6585
  125OSM   H11A13302   6.169   5.626   6.291 -2.6323 -0.5908  1.8556
  125OSM   H11B13303   6.274   5.498   6.253 -0.2777  1.2132 -1.4055
  125OSM      P13304   6.151   5.304   6.416 -0.0197 -0.0494  0.2189
  125OSM    O1313305   6.058   5.228   6.503 -0.2166  0.5751  0.3084
  125OSM    O1413306   6.178   5.243   6.287 -0.1889 -0.5563 -0.0431
  125OSM    O1113307   6.293   5.312   6.495  0.2924  0.0770 -0.1963
  125OSM    O1213308   6.123   5.456   6.402  0.1172  0.5165 -0.0573
  125OSM    C1S13309   6.312   5.387   6.611 -0.4400  0.4870  0.1544
  125OSM    H1S13310   6.234   5.466   6.607 -0.0452  0.8729 -0.0361
  125OSM    H1T13311   6.413   5.433   6.599 -1.2968  2.4781  0.3744
  125OSM     NF13312   6.306   5.389   6.865  0.3994 -0.1536  0.6189
  125OSM    HNF13313   6.390   5.425   6.903  0.2808 -0.3211  1.0379
  125OSM    C2S13314   6.308   5.299   6.739  0.0962 -0.0203  0.0424
  125OSM    H2S13315   6.210   5.246   6.737  0.0498  0.1000 -1.3868
  125OSM    C3S13316   6.424   5.195   6.745  0.6085 -0.3542 -0.5090
  125OSM    H3S13317   6.516   5.255   6.757  1.1088 -1.4563  1.1916
  125OSM     O313318   6.452   5.127   6.624 -0.3100 -0.4678  0.4546
  125OSM    HO313319   6.390   5.175   6.570 -1.5317 -1.7524  0.6905
  125OSM    C4S13320   6.412   5.109   6.868 -0.9535  0.0948 -0.5832
  125OSM    H4S13321   6.430   5.163   6.962  0.4767  0.3723 -1.0187
  125OSM    C5S13322   6.372   4.978   6.883 -0.5765 -0.5909 -0.3025
  125OSM    H5S13323   6.352   4.925   6.788 -0.0441 -0.0396 -0.7295
  125OSM    C6S13324   6.340   4.894   7.012 -1.1708 -0.6389  0.4873
  125OSM    H6S13325   6.360   4.785   7.008 -2.5907 -0.9079  0.2247
  125OSM    H6T13326   6.229   4.892   7.011 -1.2842  2.5708 -0.7220
  125OSM    C7S13327   6.414   4.948   7.139 -0.4432 -0.4653 -0.2737
  125OSM    H7S13328   6.373   5.050   7.156 -0.0918 -0.1343 -1.4159
  125OSM    H7T13329   6.522   4.966   7.120 -0.7777  0.1665 -1.6228
  125OSM    C8S13330   6.405   4.850   7.252 -0.2684  0.3999 -0.1214
  125OSM    H8S13331   6.448   4.753   7.219  1.0997  1.1388 -0.5468
  125OSM    H8T13332   6.302   4.819   7.277  0.6059 -1.7320  0.9465
  125OSM    C9S13333   6.477   4.894   7.378  0.5883  0.2863  0.0472
  125OSM    H9S13334   6.439   4.992   7.412  0.4591 -0.4735  2.1939
  125OSM    H9T13335   6.587   4.902   7.367  0.4637 -0.8975 -2.3397
  125OSM   C10S13336   6.455   4.790   7.492  0.0717 -0.3765 -0.3159
  125OSM   H10S13337   6.508   4.696   7.468 -0.1670 -0.0391 -2.2047
  125OSM   H10T13338   6.346   4.775   7.509  0.1087  0.3158  0.6126
  125OSM   C11S13339   6.523   4.835   7.618  0.2907 -0.0349 -0.5368
  125OSM   H11S13340   6.495   4.941   7.640  1.5519  0.0903  0.5361
  125OSM   H11T13341   6.633   4.823   7.605  0.0165 -0.2919 -2.8458
  125OSM   C12S13342   6.474   4.756   7.743  0.0737  0.3338  0.1542
  125OSM   H12S13343   6.509   4.651   7.739 -0.4146  0.1774 -0.0804
  125OSM   H12T13344   6.363   4.748   7.742  0.1605 -1.1552  1.8676
  125OSM   C13S13345   6.527   4.817   7.872 -0.0147 -0.5039  0.4918
  125OSM   H13S13346   6.507   4.926   7.879  0.0401 -0.5330  1.0684
  125OSM   H13T13347   6.637   4.805   7.862 -0.1036  0.1087 -1.4164
  125OSM   C14S13348   6.489   4.728   7.996  0.2375 -0.0436  0.1963
  125OSM   H14S13349   6.562   4.645   7.990 -0.5786 -0.8329  0.9940
  125OSM   H14T13350   6.384   4.690   7.994  0.0351  0.5166 -0.0530
  125OSM   C15S13351   6.491   4.803   8.135 -0.2869 -0.1826  0.2012
  125OSM   H15S13352   6.596   4.839   8.139 -0.4518  0.2675  0.5606
  125OSM   H15T13353   6.480   4.728   8.216 -0.4814 -0.0501  0.2978
  125OSM   C16S13354   6.403   4.922   8.154  0.0196 -0.0298 -0.2616
  125OSM   H16S13355   6.303   4.876   8.174  0.3572 -0.4679  0.4436
  125OSM   H16T13356   6.391   4.971   8.055 -1.7963  0.7492  0.3094
  125OSM   C17S13357   6.439   5.013   8.273 -0.0964 -0.1400  0.3782
  125OSM   H17S13358   6.539   5.053   8.246 -0.7475  1.3237  0.0770
  125OSM   H17T13359   6.449   4.948   8.362  1.1854 -0.0612  0.3111
  125OSM   C18S13360   6.347   5.132   8.301 -0.3350  0.4217 -0.2905
  125OSM   H18S13361   6.337   5.198   8.212  1.3818  3.3888  1.6886
  125OSM   H18T13362   6.383   5.174   8.397  3.1465  2.5167 -2.4159
  125OSM   H18U13363   6.243   5.100   8.324 -0.3318  0.7291  0.1399
  125OSM    C1F13364   6.214   5.477   6.876 -0.4083  0.2086  0.6503
  125OSM     OF13365   6.112   5.472   6.805  0.4437  0.3538  0.4798
  125OSM    C2F13366   6.245   5.581   6.972  0.3553 -1.0680  0.2956
  125OSM    H2F13367   6.345   5.624   6.948  0.6732 -1.6383  0.5791
  125OSM    H2G13368   6.256   5.528   7.069 -2.1724 -0.1352  1.1290
  125OSM    C3F13369   6.150   5.701   6.982  0.7864 -0.0179 -0.2671
  125OSM    H3F13370   6.045   5.662   6.984  0.4043  0.9850 -0.4322
  125OSM    H3G13371   6.137   5.754   6.885  0.6421  0.2749 -0.0914
  125OSM    C4F13372   6.172   5.818   7.079  0.0097  0.6377 -0.6975
  125OSM    H4F13373   6.076   5.872   7.091  1.0759  2.6483 -0.9190
  125OSM    H4G13374   6.237   5.893   7.029 -0.9251  2.4898  0.7961
  125OSM    C5F13375   6.233   5.778   7.215  0.4786  0.1823  0.0531
  125OSM    H5F13376   6.327   5.721   7.197  0.9722  1.2180 -0.7460
  125OSM    H5G13377   6.164   5.714   7.274 -0.0279  0.1866 -0.5328
  125OSM    C6F13378   6.281   5.908   7.286  0.2009  0.3633  0.1770
  125OSM    H6F13379   6.189   5.967   7.303 -0.3917 -0.5306  0.0949
  125OSM    H6G13380   6.353   5.964   7.222 -0.3626  0.4052 -0.4259
  125OSM    C7F13381   6.359   5.884   7.417 -0.3915 -0.2491  0.0731
  125OSM    H7F13382   6.410   5.977   7.451 -1.5716  1.1521 -1.9067
  125OSM    H7G13383   6.442   5.814   7.394  0.6986  1.1519 -0.3153
  125OSM    C8F13384   6.263   5.830   7.533  0.0959 -0.1276 -0.5310
  125OSM    H8F13385   6.343   5.796   7.603 -1.1978 -2.7858 -0.2550
  125OSM    H8G13386   6.205   5.742   7.498 -0.6808 -0.1437  0.7384
  125OSM    C9F13387   6.187   5.940   7.596  0.5664 -0.2293  0.4472
  125OSM    H9F13388   6.123   5.993   7.524  1.0051  2.4237  1.9507
  125OSM   C10F13389   6.189   5.974   7.728 -0.0111  0.5862 -0.3552
  125OSM   H10F13390   6.121   6.055   7.758 -0.7004  0.5867 -1.8550
  125OSM   C11F13391   6.271   5.907   7.837 -0.4919  0.4498 -0.2610
  125OSM   H11F13392   6.344   5.979   7.880  0.4459 -1.4869  1.4790
  125OSM   H11G13393   6.318   5.812   7.802 -0.8701 -0.0355  0.5369
  125OSM   C12F13394   6.167   5.884   7.953 -0.0538 -0.0883  0.4251
  125OSM   H12F13395   6.081   5.823   7.918 -0.2421  0.0899  0.5787
  125OSM   H12G13396   6.132   5.983   7.988  2.4118  1.0363 -0.1848
  125OSM   C13F13397   6.235   5.807   8.071 -0.0654  0.9629 -0.1619
  125OSM   H13F13398   6.155   5.813   8.149  1.1572  1.5073  1.0808
  125OSM   H13G13399   6.328   5.857   8.107  0.3089  0.1718 -0.0216
  125OSM   C14F13400   6.265   5.663   8.046  0.5706 -0.1564 -0.2615
  125OSM   H14F13401   6.369   5.649   8.010  0.4231 -0.8518 -0.4335
  125OSM   H14G13402   6.192   5.624   7.971 -0.4526  1.2257  0.0083
  125OSM   C15F13403   6.246   5.582   8.178  0.0333  0.3173  0.1999
  125OSM   H15F13404   6.269   5.482   8.137 -2.3557  0.3568 -1.3756
  125OSM   H15G13405   6.142   5.598   8.214 -0.2366 -0.0529 -0.4204
  125OSM   C16F13406   6.345   5.615   8.290  0.1279 -0.0202  1.0362
  125OSM   H16F13407   6.422   5.682   8.247 -1.0764  1.1402  0.6557
  125OSM   H16G13408   6.405   5.525   8.314 -0.8360 -1.0991 -0.4954
  125OSM   C17F13409   6.279   5.696   8.405  0.1931  0.6791  0.0418
  125OSM   H17F13410   6.210   5.772   8.362  0.9347 -0.0049 -2.4403
  125OSM   H17G13411   6.358   5.744   8.465 -0.9639  2.7355 -0.0400
  125OSM   C18F13412   6.190   5.604   8.494  0.7405  0.2930 -1.1971
  125OSM   H18F13413   6.153   5.660   8.583  0.4248  0.1002 -1.2040
  125OSM   H18G13414   6.246   5.513   8.524 -0.7864 -0.1797  0.3633
  125OSM   H18H13415   6.103   5.562   8.440  0.3246  0.4255 -0.6420
  126OSM      N13416   3.994   4.483   6.230 -0.4324  0.9519  0.5691
  126OSM    C1513417   3.862   4.538   6.180  0.5496 -0.3261 -0.5164
  126OSM   H15A13418   3.844   4.505   6.079  0.0505 -1.8192  0.0471
  126OSM   H15B13419   3.862   4.646   6.182  0.0404 -0.3427  0.5605
  126OSM   H15C13420   3.780   4.499   6.238  0.4493  0.9010  0.1856
  126OSM    C1413421   4.008   4.340   6.175  0.1144  0.0415  0.2577
  126OSM   H14A13422   4.100   4.298   6.210  0.5818  0.8781  0.0496
  126OSM   H14B13423   3.998   4.344   6.067 -1.1118 -1.3824  0.3080
  126OSM   H14C13424   3.932   4.279   6.222 -0.0158 -0.3397 -0.4423
  126OSM    C1313425   4.110   4.564   6.171 -0.2763 -0.0104 -0.2799
  126OSM   H13A13426   4.202   4.508   6.181  0.9845  1.8207 -1.3013
  126OSM   H13B13427   4.128   4.653   6.230 -1.5462 -1.6107  2.6705
  126OSM   H13C13428   4.106   4.592   6.067 -0.0764 -2.8328 -1.0866
  126OSM    C1213429   4.000   4.490   6.378 -0.1466  0.1517  0.3235
  126OSM   H12A13430   4.038   4.587   6.405 -0.4510  1.1430 -2.6433
  126OSM   H12B13431   4.066   4.413   6.415  1.1394  1.3479  0.5692
  126OSM    C1113432   3.860   4.473   6.451  0.9794 -0.6482  0.4614
  126OSM   H11A13433   3.874   4.457   6.560 -4.0169 -0.3616  1.2574
  126OSM   H11B13434   3.806   4.387   6.406 -0.9126  0.9008 -0.2807
  126OSM      P13435   3.823   4.718   6.523  0.1073 -0.4552  0.5079
  126OSM    O1313436   3.938   4.773   6.455  0.1086  0.5697 -0.2190
  126OSM    O1413437   3.706   4.802   6.550  0.0804  0.0412  0.5399
  126OSM    O1113438   3.874   4.654   6.668 -0.4719 -0.7302  1.0692
  126OSM    O1213439   3.773   4.581   6.442 -0.1290 -0.3566  0.5126
  126OSM    C1S13440   3.895   4.739   6.779  1.0706 -0.7501  0.7638
  126OSM    H1S13441   3.799   4.782   6.815  0.5060 -0.9033 -0.5471
  126OSM    H1T13442   3.946   4.831   6.743  0.3926 -1.5023 -2.2003
  126OSM     NF13443   4.009   4.797   6.988 -0.3364  0.9784 -0.1617
  126OSM    HNF13444   4.107   4.817   6.989 -0.2446  0.6127 -1.5455
  126OSM    C2S13445   3.970   4.685   6.900 -0.1750  0.2342 -0.2420
  126OSM    H2S13446   3.895   4.621   6.951 -1.0494  0.0459 -1.7406
  126OSM    C3S13447   4.088   4.590   6.860 -0.1501 -0.1732  0.1934
  126OSM    H3S13448   4.168   4.637   6.798  1.4358 -1.7467  0.9928
  126OSM     O313449   4.054   4.487   6.771  0.5959 -0.2696  0.3577
  126OSM    HO313450   3.976   4.527   6.733  1.3686  3.7285  2.5737
  126OSM    C4S13451   4.141   4.530   6.978  1.0859  0.2527 -0.1573
  126OSM    H4S13452   4.073   4.454   7.019  0.8328  0.2520 -0.5745
  126OSM    C5S13453   4.259   4.554   7.039  0.2662 -0.2791 -0.0137
  126OSM    H5S13454   4.337   4.621   6.999  1.0382 -0.1161  1.6897
  126OSM    C6S13455   4.299   4.474   7.153 -0.5926  0.2107 -0.2788
  126OSM    H6S13456   4.392   4.424   7.118 -0.4462  0.5578 -0.3892
  126OSM    H6T13457   4.229   4.390   7.173  0.2857 -0.5996 -0.5495
  126OSM    C7S13458   4.346   4.544   7.275 -0.0931 -0.1194  0.1401
  126OSM    H7S13459   4.444   4.589   7.251 -1.4396  2.4747 -0.6075
  126OSM    H7T13460   4.380   4.472   7.353 -0.9874 -1.0187 -0.2889
  126OSM    C8S13461   4.248   4.643   7.336  0.6598 -0.0856  0.0707
  126OSM    H8S13462   4.152   4.599   7.370  0.3603  0.5896  0.1063
  126OSM    H8T13463   4.223   4.735   7.280 -0.8532 -0.0001  0.8700
  126OSM    C9S13464   4.300   4.703   7.472  0.4756  0.6875 -0.6962
  126OSM    H9S13465   4.400   4.744   7.447  1.6770 -1.8449 -0.2359
  126OSM    H9T13466   4.319   4.621   7.544  1.1707  1.5808  0.1385
  126OSM   C10S13467   4.204   4.800   7.544  0.5701  0.7983  0.9678
  126OSM   H10S13468   4.098   4.768   7.534  1.7337 -2.5366 -1.7763
  126OSM   H10T13469   4.220   4.899   7.497 -0.2821  1.1108  1.3138
  126OSM   C11S13470   4.221   4.802   7.695 -0.2433  0.5169  0.1893
  126OSM   H11S13471   4.205   4.701   7.738 -1.0487  0.5792  0.0329
  126OSM   H11T13472   4.149   4.874   7.738 -2.8465 -1.9145  0.0381
  126OSM   C12S13473   4.359   4.847   7.743  0.4090 -0.5958  0.3454
  126OSM   H12S13474   4.390   4.943   7.696  1.9293 -0.7306  1.0500
  126OSM   H12T13475   4.437   4.779   7.703  1.5866  1.4945 -1.0150
  126OSM   C13S13476   4.369   4.854   7.898  0.6232  0.4532 -0.5767
  126OSM   H13S13477   4.375   4.750   7.938  0.5800 -0.3760 -2.6993
  126OSM   H13T13478   4.283   4.900   7.951  1.6080  2.3955 -0.6147
  126OSM   C14S13479   4.494   4.926   7.940  1.5207  0.0266 -0.0382
  126OSM   H14S13480   4.510   5.020   7.882 -1.6438  1.1377  0.7823
  126OSM   H14T13481   4.584   4.866   7.916  0.4870 -1.8551  0.7584
  126OSM   C15S13482   4.499   4.970   8.084 -0.0953  0.3207 -0.3287
  126OSM   H15S13483   4.440   5.062   8.099  2.0962  2.1489 -2.4424
  126OSM   H15T13484   4.600   5.015   8.096 -0.1734 -0.0004  1.6062
  126OSM   C16S13485   4.476   4.858   8.184 -0.2783  0.4602 -0.4539
  126OSM   H16S13486   4.517   4.898   8.279 -0.5590  0.0785 -0.1648
  126OSM   H16T13487   4.521   4.763   8.147  2.5732  1.8112 -0.5831
  126OSM   C17S13488   4.325   4.836   8.218 -0.5012 -0.1599 -0.0944
  126OSM   H17S13489   4.256   4.784   8.148  1.2165  0.4829 -2.3222
  126OSM   H17T13490   4.283   4.938   8.233  2.5013  0.8609  1.6132
  126OSM   C18S13491   4.316   4.753   8.347  0.4668 -1.0909 -0.3613
  126OSM   H18S13492   4.217   4.710   8.376 -0.1811  0.5390 -0.0965
  126OSM   H18T13493   4.362   4.803   8.435  0.0200 -0.7744 -0.3047
  126OSM   H18U13494   4.378   4.661   8.343  3.1080  0.6010  0.4693
  126OSM    C1F13495   3.917   4.878   7.040  0.4522  0.3846  0.2540
  126OSM     OF13496   3.798   4.834   7.050 -0.0252  0.0234  0.0407
  126OSM    C2F13497   3.957   5.015   7.082  0.0422 -0.1005  0.2076
  126OSM    H2F13498   3.957   5.079   6.991 -0.7466 -0.8471 -0.3212
  126OSM    H2G13499   4.060   5.018   7.124  0.3471 -1.4983 -0.4162
  126OSM    C3F13500   3.856   5.086   7.177  0.0223  0.2521  0.2856
  126OSM    H3F13501   3.889   5.045   7.274  0.4347 -1.1189 -0.4160
  126OSM    H3G13502   3.749   5.064   7.158  0.7216 -2.5238 -0.7300
  126OSM    C4F13503   3.885   5.235   7.176 -0.1968  0.9012  0.3295
  126OSM    H4F13504   3.876   5.277   7.074 -2.8781 -0.4694 -0.0359
  126OSM    H4G13505   3.987   5.261   7.213 -0.5944  2.9971  0.0454
  126OSM    C5F13506   3.779   5.323   7.242 -0.9619 -0.5770  0.2276
  126OSM    H5F13507   3.684   5.315   7.184 -0.8105  0.7073 -0.2056
  126OSM    H5G13508   3.819   5.425   7.228 -1.8719 -0.1705  0.5323
  126OSM    C6F13509   3.756   5.279   7.391  0.0740 -0.2620  0.3190
  126OSM    H6F13510   3.851   5.261   7.447 -0.0857  0.2243  0.7498
  126OSM    H6G13511   3.697   5.185   7.389 -1.0057  0.3956  0.8290
  126OSM    C7F13512   3.689   5.391   7.471 -0.0845  0.0452  0.1619
  126OSM    H7F13513   3.579   5.388   7.455 -0.4203  0.1928  2.2886
  126OSM    H7G13514   3.730   5.486   7.432 -0.1864 -0.3391 -0.8879
  126OSM    C8F13515   3.706   5.383   7.622  0.4930 -0.4535  0.1053
  126OSM    H8F13516   3.677   5.290   7.676 -3.8453  1.8779  2.0060
  126OSM    H8G13517   3.624   5.443   7.666  0.2703  0.0732 -1.0122
  126OSM    C9F13518   3.843   5.410   7.665  0.2403 -0.5644  0.2478
  126OSM    H9F13519   3.918   5.395   7.587 -1.7502  1.4524 -2.1457
  126OSM   C10F13520   3.881   5.465   7.784  0.0102 -0.9420  0.4693
  126OSM   H10F13521   3.987   5.489   7.803 -0.5122  0.4622  1.7334
  126OSM   C11F13522   3.793   5.505   7.896 -0.2348 -0.0945  0.1373
  126OSM   H11F13523   3.689   5.497   7.859 -0.1862  0.6361 -0.1574
  126OSM   H11G13524   3.807   5.610   7.930  0.6338 -0.6529  1.5412
  126OSM   C12F13525   3.798   5.413   8.025 -0.2145  0.1242 -0.2036
  126OSM   H12F13526   3.900   5.435   8.063 -0.1335  0.9258 -0.8750
  126OSM   H12G13527   3.804   5.308   7.989 -0.7055 -0.2501  0.7982
  126OSM   C13F13528   3.689   5.446   8.125  0.2373 -0.1954 -0.7890
  126OSM   H13F13529   3.594   5.446   8.068  0.1200 -0.8163 -0.5873
  126OSM   H13G13530   3.711   5.553   8.149  0.1423  0.0150 -1.6028
  126OSM   C14F13531   3.686   5.371   8.255 -0.1276  0.0812 -0.6544
  126OSM   H14F13532   3.792   5.351   8.282 -0.8432  0.1723  2.3360
  126OSM   H14G13533   3.644   5.268   8.244  0.4093 -0.2604  0.4587
  126OSM   C15F13534   3.614   5.435   8.371 -0.2201  0.3898  0.1563
  126OSM   H15F13535   3.669   5.526   8.403 -2.0555  1.0295  1.5529
  126OSM   H15G13536   3.616   5.362   8.454  1.6760  1.7718  1.3811
  126OSM   C16F13537   3.469   5.470   8.337 -0.3702 -0.0023 -0.4532
  126OSM   H16F13538   3.403   5.381   8.334 -1.6758  0.8260  2.2921
  126OSM   H16G13539   3.460   5.511   8.234 -1.0199  1.9130  0.3490
  126OSM   C17F13540   3.404   5.563   8.433 -0.3200  0.2369 -0.4956
  126OSM   H17F13541   3.473   5.649   8.450  1.3255 -1.1006 -0.2981
  126OSM   H17G13542   3.404   5.515   8.534  1.9594 -0.3155 -0.7201
  126OSM   C18F13543   3.265   5.608   8.402 -0.9252  0.8637  1.0901
  126OSM   H18F13544   3.262   5.689   8.326 -0.0289 -0.2792 -0.1848
  126OSM   H18G13545   3.213   5.648   8.492  0.3322  0.2669  2.1042
  126OSM   H18H13546   3.217   5.519   8.356 -0.5016  0.8813  0.6166
  127OSM      N13547   4.774   3.646   5.895  0.4795  0.8206 -0.2317
  127OSM    C1513548   4.695   3.680   5.771 -0.7967  0.3172  0.4795
  127OSM   H15A13549   4.725   3.781   5.745 -0.7100  0.0761 -0.3675
  127OSM   H15B13550   4.589   3.681   5.788 -1.1073 -0.7411 -1.3021
  127OSM   H15C13551   4.717   3.618   5.685 -0.8838 -0.6842  1.1810
  127OSM    C1413552   4.916   3.665   5.866 -0.7524 -0.1353  0.6533
  127OSM   H14A13553   4.935   3.768   5.838  2.1981 -0.8151 -0.0920
  127OSM   H14B13554   4.959   3.609   5.785  1.6444  3.5155 -0.7217
  127OSM   H14C13555   4.978   3.648   5.953  1.0385 -0.4204 -0.6648
  127OSM    C1313556   4.733   3.739   6.003  0.2007 -0.7483 -0.0022
  127OSM   H13A13557   4.629   3.769   6.000  0.2577 -0.2744  1.8974
  127OSM   H13B13558   4.785   3.831   5.982 -1.7377 -0.1947 -2.6695
  127OSM   H13C13559   4.760   3.713   6.104 -2.4023  1.9811  1.4937
  127OSM    C1213560   4.737   3.501   5.931 -0.0335 -0.1315 -0.5316
  127OSM   H12A13561   4.756   3.437   5.846  2.8401  0.2400 -0.2301
  127OSM   H12B13562   4.630   3.503   5.944  0.1960 -1.0770  1.7320
  127OSM    C1113563   4.806   3.442   6.054  0.4068  0.0204  0.4105
  127OSM   H11A13564   4.916   3.449   6.039  0.0985  2.8415 -0.9159
  127OSM   H11B13565   4.777   3.335   6.058 -0.2502  0.2208  1.1919
  127OSM      P13566   4.639   3.465   6.250 -0.4993 -0.0805 -0.4513
  127OSM    O1313567   4.606   3.580   6.333 -0.6292 -0.5247 -0.3322
  127OSM    O1413568   4.535   3.409   6.158 -0.6343  0.2413 -0.1392
  127OSM    O1113569   4.694   3.343   6.334  0.2348  0.0867  0.5626
  127OSM    O1213570   4.770   3.506   6.171  0.3566  0.1930  0.4767
  127OSM    C1S13571   4.815   3.369   6.413 -0.1147  0.9853  0.8617
  127OSM    H1S13572   4.801   3.459   6.477 -2.6068  0.4840  1.1079
  127OSM    H1T13573   4.911   3.384   6.360  0.0353  0.6135  1.0270
  127OSM     NF13574   4.943   3.315   6.607  0.2836 -0.2669  0.4719
  127OSM    HNF13575   5.039   3.305   6.585  0.0376  0.5113 -1.0583
  127OSM    C2S13576   4.844   3.260   6.516  0.3873  0.1763 -0.1582
  127OSM    H2S13577   4.751   3.232   6.570 -0.9197  2.3534 -1.2181
  127OSM    C3S13578   4.885   3.138   6.429  0.3395  0.3269 -0.3845
  127OSM    H3S13579   4.983   3.158   6.380  0.7380 -1.9367 -0.5955
  127OSM     O313580   4.791   3.083   6.336 -0.1334  0.0806 -0.0904
  127OSM    HO313581   4.728   3.154   6.328  1.1367  1.6708  3.2436
  127OSM    C4S13582   4.901   3.023   6.526 -0.1376 -0.0835 -0.6035
  127OSM    H4S13583   4.805   2.986   6.565  0.1919 -1.4233 -1.0687
  127OSM    C5S13584   5.016   2.964   6.572  0.2488 -0.6661  0.4492
  127OSM    H5S13585   5.115   3.004   6.545 -1.2795  1.7266 -1.8722
  127OSM    C6S13586   5.022   2.844   6.653  0.1834  0.2743 -0.4021
  127OSM    H6S13587   5.119   2.789   6.653  0.1525  0.2103  0.4762
  127OSM    H6T13588   4.942   2.772   6.627 -1.7452  2.2168  0.0830
  127OSM    C7S13589   5.017   2.894   6.804 -0.2537 -0.0751 -0.1480
  127OSM    H7S13590   5.007   2.813   6.880 -0.6363  0.8050  0.7624
  127OSM    H7T13591   4.933   2.961   6.835  0.5554  0.1688  1.5586
  127OSM    C8S13592   5.146   2.980   6.836 -0.6268 -0.5114  0.0385
  127OSM    H8S13593   5.134   3.073   6.776 -0.0701  0.0883  0.8559
  127OSM    H8T13594   5.236   2.925   6.800 -0.7410 -0.0448 -0.9738
  127OSM    C9S13595   5.153   3.033   6.978  0.4405  0.5213 -0.5921
  127OSM    H9S13596   5.067   3.102   6.992 -2.7080 -3.0995 -1.1923
  127OSM    H9T13597   5.249   3.088   6.989  0.8243 -0.6560  2.5632
  127OSM   C10S13598   5.137   2.933   7.095  0.0540 -0.0458 -0.4293
  127OSM   H10S13599   5.221   2.861   7.086  0.9791  1.1295 -1.3906
  127OSM   H10T13600   5.045   2.871   7.095 -0.4126  0.6392 -1.0136
  127OSM   C11S13601   5.161   3.009   7.227  0.0864  0.0225  0.4861
  127OSM   H11S13602   5.094   3.097   7.234  0.8659  0.6210  0.5802
  127OSM   H11T13603   5.265   3.047   7.215  0.3069 -0.8338 -0.3237
  127OSM   C12S13604   5.164   2.917   7.351  0.0904 -0.1946 -0.4662
  127OSM   H12S13605   5.220   2.821   7.341  0.5171  0.0519 -0.4719
  127OSM   H12T13606   5.062   2.887   7.383  0.4306  0.2730  1.1474
  127OSM   C13S13607   5.221   2.988   7.475  0.2161  0.7686  0.5865
  127OSM   H13S13608   5.159   3.080   7.479 -1.0797 -0.0829  0.3405
  127OSM   H13T13609   5.327   3.020   7.459  0.8232 -1.3198  0.2196
  127OSM   C14S13610   5.222   2.892   7.597 -0.4503  0.2187  0.0617
  127OSM   H14S13611   5.261   2.794   7.561 -1.0922  0.9649 -2.7922
  127OSM   H14T13612   5.120   2.873   7.637 -0.5995 -0.0960 -0.4613
  127OSM   C15S13613   5.315   2.920   7.712  0.0906 -0.4260 -0.4488
  127OSM   H15S13614   5.290   3.021   7.750  2.2126 -0.6611  1.7473
  127OSM   H15T13615   5.420   2.927   7.677  0.2422 -1.2491 -0.1785
  127OSM   C16S13616   5.302   2.830   7.836 -0.1955  0.1701  0.7408
  127OSM   H16S13617   5.353   2.736   7.807 -1.9292 -0.5222 -0.1174
  127OSM   H16T13618   5.194   2.809   7.847  0.1958 -2.0763  0.3892
  127OSM   C17S13619   5.373   2.874   7.963 -0.2854  0.4556 -0.7262
  127OSM   H17S13620   5.473   2.913   7.933  0.2992 -0.0231  0.5235
  127OSM   H17T13621   5.396   2.784   8.025 -0.8155  0.4316 -0.5692
  127OSM   C18S13622   5.286   2.977   8.031  0.0220  0.4245 -0.2027
  127OSM   H18S13623   5.244   3.047   7.956 -0.6818 -1.7280 -1.8715
  127OSM   H18T13624   5.326   3.030   8.120  0.9172 -1.8930  0.8214
  127OSM   H18U13625   5.194   2.927   8.070 -0.0063 -1.4581 -2.5613
  127OSM    C1F13626   4.918   3.383   6.716  0.3781  0.1830 -0.6999
  127OSM     OF13627   4.809   3.432   6.726  0.2524 -1.0335 -0.2350
  127OSM    C2F13628   5.029   3.416   6.819 -0.0242  0.2496  0.0437
  127OSM    H2F13629   5.085   3.505   6.784  0.8768 -1.0241 -1.7973
  127OSM    H2G13630   5.091   3.324   6.825  0.8400  0.7853 -0.5742
  127OSM    C3F13631   4.974   3.428   6.963  0.2023  0.6016  0.0468
  127OSM    H3F13632   4.926   3.334   6.998  2.0817 -0.1506  0.6845
  127OSM    H3G13633   4.895   3.506   6.960  0.3702  0.7971  0.6312
  127OSM    C4F13634   5.078   3.459   7.061 -0.2765 -0.2684  0.5192
  127OSM    H4F13635   5.114   3.561   7.035 -2.7341  0.8765  1.4974
  127OSM    H4G13636   5.165   3.390   7.052  0.3259  0.5267  0.1553
  127OSM    C5F13637   5.041   3.462   7.207  0.5626  0.2456  0.5357
  127OSM    H5F13638   4.985   3.370   7.232 -0.7855  0.8852 -0.0680
  127OSM    H5G13639   4.970   3.544   7.230  1.1523  0.2069  2.5814
  127OSM    C6F13640   5.149   3.479   7.313 -0.0676 -0.8092 -0.1063
  127OSM    H6F13641   5.187   3.583   7.322  1.2834 -1.5202  3.2636
  127OSM    H6G13642   5.236   3.411   7.297  1.1131  0.8220 -0.7911
  127OSM    C7F13643   5.099   3.452   7.458 -0.3122  0.1605  0.3191
  127OSM    H7F13644   5.069   3.345   7.455 -0.0478  0.1066 -0.6369
  127OSM    H7G13645   5.014   3.521   7.480  1.5819  2.8198 -0.4631
  127OSM    C8F13646   5.200   3.464   7.584 -0.4823 -0.8151  0.0458
  127OSM    H8F13647   5.220   3.572   7.605 -1.7490 -0.3632 -0.9922
  127OSM    H8G13648   5.296   3.411   7.569 -0.6715 -1.6726  1.8060
  127OSM    C9F13649   5.129   3.409   7.708 -0.2634  0.0658 -0.3316
  127OSM    H9F13650   5.060   3.329   7.679 -1.6644  1.1996 -0.1962
  127OSM   C10F13651   5.134   3.450   7.844  0.2831  0.2418 -0.0171
  127OSM   H10F13652   5.070   3.400   7.919 -0.2279  3.7067  1.9515
  127OSM   C11F13653   5.213   3.569   7.895 -0.3369 -0.2591  0.1708
  127OSM   H11F13654   5.267   3.623   7.814 -0.9372  0.8447  0.5052
  127OSM   H11G13655   5.294   3.534   7.962  0.8213  0.3047 -0.9087
  127OSM   C12F13656   5.118   3.658   7.964  0.3033 -0.2417  0.3951
  127OSM   H12F13657   5.061   3.599   8.039  0.4917 -0.4258  0.3949
  127OSM   H12G13658   5.053   3.708   7.889  0.2164 -0.4634  0.3233
  127OSM   C13F13659   5.181   3.765   8.056 -0.4433  0.7371 -0.0489
  127OSM   H13F13660   5.095   3.809   8.110  0.3780  1.3245  0.7951
  127OSM   H13G13661   5.220   3.842   7.985 -2.1313  0.8408 -0.8915
  127OSM   C14F13662   5.291   3.720   8.162 -0.1550 -0.5169 -0.2175
  127OSM   H14F13663   5.386   3.706   8.108  0.4242 -0.8415  0.8677
  127OSM   H14G13664   5.254   3.620   8.193 -1.9802 -1.2623 -4.5289
  127OSM   C15F13665   5.307   3.803   8.284 -0.0408  0.3675 -0.2540
  127OSM   H15F13666   5.210   3.850   8.310 -0.6818 -0.6663 -0.7282
  127OSM   H15G13667   5.388   3.874   8.258  1.0082 -1.5132 -2.2532
  127OSM   C16F13668   5.351   3.723   8.409 -0.6591  0.5485 -0.3492
  127OSM   H16F13669   5.267   3.657   8.442 -0.1855 -0.4151 -1.0275
  127OSM   H16G13670   5.369   3.797   8.489 -0.2994 -1.4716  1.4993
  127OSM   C17F13671   5.467   3.635   8.386 -0.0577  0.2597 -0.2515
  127OSM   H17F13672   5.515   3.672   8.293 -0.9859 -1.5094 -1.4628
  127OSM   H17G13673   5.425   3.534   8.366 -1.0333  0.1371  2.2952
  127OSM   C18F13674   5.577   3.637   8.495 -0.1808  0.1930 -0.2272
  127OSM   H18F13675   5.527   3.627   8.594  2.1916 -1.0314  0.8794
  127OSM   H18G13676   5.627   3.735   8.489  0.3880 -0.0227  0.8585
  127OSM   H18H13677   5.649   3.553   8.483  0.2410  0.5617 -0.2878
  128OSM      N13678   0.597   0.190   5.926  0.0639  0.2622  0.5515
  128OSM    C1513679   0.596   0.044   5.892 -0.6243 -0.4184  0.0116
  128OSM   H15A13680   0.689   0.002   5.927 -1.0188 -1.2461  0.0968
  128OSM   H15B13681   0.573   0.019   5.790 -0.3734 -3.3723  0.6051
  128OSM   H15C13682   0.522  -0.009   5.951  0.0674 -1.5249 -0.0844
  128OSM    C1413683   0.667   0.251   5.804 -0.0062 -0.2085 -0.1182
  128OSM   H14A13684   0.771   0.221   5.813 -0.1504 -1.4083 -2.1198
  128OSM   H14B13685   0.670   0.358   5.817 -0.1238 -0.4039  1.6120
  128OSM   H14C13686   0.632   0.220   5.707 -1.9071 -0.3635  0.6068
  128OSM    C1313687   0.458   0.244   5.920 -0.4767  0.2175 -0.2246
  128OSM   H13A13688   0.404   0.214   5.831 -0.2896  0.0716 -0.2897
  128OSM   H13B13689   0.444   0.351   5.916 -1.2804  0.1860  1.4811
  128OSM   H13C13690   0.391   0.205   5.996  0.6729  0.0238  0.6944
  128OSM    C1213691   0.658   0.216   6.060 -0.1977 -0.0228 -0.3811
  128OSM   H12A13692   0.607   0.164   6.139 -0.1251  1.4574  0.6540
  128OSM   H12B13693   0.646   0.323   6.074  1.2746  0.1634 -0.5024
  128OSM    C1113694   0.809   0.179   6.078 -0.0797 -0.1638 -0.0503
  128OSM   H11A13695   0.845   0.230   6.169 -2.7902  0.9498  0.4682
  128OSM   H11B13696   0.862   0.219   5.989  0.4990 -3.9048 -1.4769
  128OSM      P13697   0.882  -0.050   6.192 -0.1840 -0.3320  0.2952
  128OSM    O1313698   0.840  -0.191   6.169 -0.1542  0.0529  0.0131
  128OSM    O1413699   1.028  -0.018   6.208  1.0007 -0.9107 -0.3494
  128OSM    O1113700   0.811   0.002   6.324  0.0940  0.0716  0.7428
  128OSM    O1213701   0.828   0.035   6.077  0.1181  0.1250  0.4901
  128OSM    C1S13702   0.782  -0.090   6.427  0.1701  0.6746 -0.0670
  128OSM    H1S13703   0.853  -0.175   6.425  0.8250  1.2259 -0.1996
  128OSM    H1T13704   0.681  -0.136   6.423  0.6764 -0.4528  0.0465
  128OSM     NF13705   0.778  -0.129   6.665  0.0269 -0.0895  0.0565
  128OSM    HNF13706   0.688  -0.142   6.706  0.5599  1.9233  1.9480
  128OSM    C2S13707   0.792  -0.022   6.568 -0.3594  0.2714 -0.1232
  128OSM    H2S13708   0.883   0.041   6.571 -1.0863  1.3395 -0.2676
  128OSM    C3S13709   0.669   0.070   6.585 -0.4449  0.8015 -0.3767
  128OSM    H3S13710   0.575   0.013   6.601  0.4351 -0.3983  0.6411
  128OSM     O313711   0.658   0.160   6.471  0.1455  0.0466  0.3577
  128OSM    HO313712   0.706   0.122   6.397 -0.6759  0.2055 -0.2598
  128OSM    C4S13713   0.671   0.147   6.712  0.5754  0.2261 -0.5135
  128OSM    H4S13714   0.596   0.103   6.780  0.6040 -0.4834 -0.9410
  128OSM    C5S13715   0.734   0.263   6.747 -0.4345  0.1000 -0.5206
  128OSM    H5S13716   0.807   0.305   6.676  3.2887  1.1720  3.6762
  128OSM    C6S13717   0.708   0.337   6.880  0.2703 -0.3414 -0.7285
  128OSM    H6S13718   0.640   0.423   6.864  1.2023  0.5986  0.3320
  128OSM    H6T13719   0.807   0.368   6.919 -0.7008 -0.7458  2.1830
  128OSM    C7S13720   0.655   0.259   6.998 -0.2674  0.3231  0.4403
  128OSM    H7S13721   0.712   0.164   6.999  0.5877  0.8315  0.3196
  128OSM    H7T13722   0.547   0.240   6.981  0.0410 -1.3232  0.2544
  128OSM    C8S13723   0.673   0.331   7.131  0.7605 -0.3998 -0.1500
  128OSM    H8S13724   0.594   0.409   7.139 -0.4344 -1.2269 -3.1544
  128OSM    H8T13725   0.769   0.386   7.134  0.3630  0.3438 -0.8111
  128OSM    C9S13726   0.657   0.239   7.255  0.0287 -0.1851  0.3931
  128OSM    H9S13727   0.738   0.163   7.257  0.5108  0.2412 -1.5553
  128OSM    H9T13728   0.556   0.194   7.257  0.0811 -0.2473  2.3879
  128OSM   C10S13729   0.670   0.330   7.377 -0.6525  0.7604 -0.1965
  128OSM   H10S13730   0.591   0.409   7.380  0.5764  1.9441  1.6935
  128OSM   H10T13731   0.761   0.392   7.362 -0.0725  0.0733  0.4709
  128OSM   C11S13732   0.666   0.269   7.512  0.3001 -0.1038  0.1764
  128OSM   H11S13733   0.761   0.218   7.536 -0.3461  0.3432  4.0678
  128OSM   H11T13734   0.585   0.193   7.514  1.1887 -1.1200 -1.7350
  128OSM   C12S13735   0.627   0.372   7.611  0.2434  0.3734 -0.1866
  128OSM   H12S13736   0.527   0.410   7.581  0.4493 -0.2891 -1.7666
  128OSM   H12T13737   0.712   0.443   7.600  0.6541 -0.0031  0.5476
  128OSM   C13S13738   0.615   0.323   7.754 -0.2416  0.6221 -0.1214
  128OSM   H13S13739   0.547   0.237   7.771  1.0352 -0.1326  1.2805
  128OSM   H13T13740   0.572   0.407   7.814 -1.1722 -0.9120  1.4261
  128OSM   C14S13741   0.755   0.303   7.825 -0.4021 -0.1226  0.0615
  128OSM   H14S13742   0.803   0.403   7.815  0.3062 -0.4480  0.1166
  128OSM   H14T13743   0.814   0.228   7.769 -0.6685  1.7461 -2.8400
  128OSM   C15S13744   0.751   0.272   7.972  0.6988 -0.1341  0.0206
  128OSM   H15S13745   0.672   0.332   8.023 -0.6819  0.3782 -2.6147
  128OSM   H15T13746   0.852   0.301   8.008 -0.7097  2.9818  1.6442
  128OSM   C16S13747   0.727   0.121   7.998  0.0336  0.1995  0.0416
  128OSM   H16S13748   0.692   0.076   7.904  1.6366 -0.2149 -0.3703
  128OSM   H16T13749   0.640   0.114   8.067  0.5611 -1.3900  0.5658
  128OSM   C17S13750   0.851   0.050   8.055  0.2509 -0.2730 -1.0386
  128OSM   H17S13751   0.932   0.077   7.985  0.8370  3.9393  1.1154
  128OSM   H17T13752   0.828  -0.059   8.047 -1.4466  0.2380 -3.6060
  128OSM   C18S13753   0.889   0.097   8.195 -0.1172  0.1881 -0.4002
  128OSM   H18S13754   0.894   0.208   8.194 -0.8772  0.2906  2.5651
  128OSM   H18T13755   0.993   0.065   8.216 -0.3526 -1.0428 -1.0782
  128OSM   H18U13756   0.825   0.060   8.279 -0.8903 -3.1689 -2.3840
  128OSM    C1F13757   0.874  -0.219   6.678 -0.0943  0.7356 -0.9071
  128OSM     OF13758   0.985  -0.198   6.631 -0.2527  0.0838  0.1267
  128OSM    C2F13759   0.839  -0.350   6.740 -0.0239 -0.5688 -0.2225
  128OSM    H2F13760   0.760  -0.398   6.678  0.0947 -1.2635  0.1584
  128OSM    H2G13761   0.790  -0.333   6.838 -2.1253  0.9214 -1.4982
  128OSM    C3F13762   0.963  -0.438   6.770 -0.7403 -0.0042  0.0720
  128OSM    H3F13763   1.036  -0.383   6.833  1.3661 -1.7362 -0.8220
  128OSM    H3G13764   1.010  -0.453   6.671 -0.3346  3.5945 -0.3430
  128OSM    C4F13765   0.924  -0.577   6.821  0.3180 -0.3034 -0.7737
  128OSM    H4F13766   1.013  -0.644   6.820  0.2507 -0.3948 -0.5849
  128OSM    H4G13767   0.855  -0.629   6.751  2.6761 -2.1661 -1.8099
  128OSM    C5F13768   0.895  -0.583   6.966  0.2984  0.2664  0.3008
  128OSM    H5F13769   0.824  -0.501   6.989  2.3943  2.2665 -0.1857
  128OSM    H5G13770   0.979  -0.588   7.039  0.5288 -0.4487 -0.0084
  128OSM    C6F13771   0.812  -0.711   6.997 -0.0019 -0.0433 -0.3858
  128OSM    H6F13772   0.870  -0.793   6.951  0.3029  0.1167 -0.2881
  128OSM    H6G13773   0.709  -0.705   6.955 -0.6482  0.7929  1.2810
  128OSM    C7F13774   0.808  -0.754   7.149  0.4261  0.7305  0.3093
  128OSM    H7F13775   0.900  -0.810   7.175  0.8042  1.8782  1.5265
  128OSM    H7G13776   0.724  -0.827   7.162  0.2697  0.4957 -1.9003
  128OSM    C8F13777   0.779  -0.641   7.259 -0.5337 -0.1742 -0.2344
  128OSM    H8F13778   0.846  -0.552   7.263  0.1759 -0.6760 -0.8099
  128OSM    H8G13779   0.781  -0.686   7.360  1.9453 -0.3683 -0.3466
  128OSM    C9F13780   0.643  -0.586   7.234  0.2626 -0.2881 -0.4225
  128OSM    H9F13781   0.628  -0.540   7.135  0.6040  0.3205 -0.1928
  128OSM   C10F13782   0.534  -0.599   7.314 -0.1365 -0.4480 -0.5947
  128OSM   H10F13783   0.439  -0.557   7.280 -0.6062  0.1340  1.3577
  128OSM   C11F13784   0.529  -0.659   7.453  0.3702  0.4783 -0.7656
  128OSM   H11F13785   0.631  -0.667   7.496 -0.4492 -0.1270  1.1574
  128OSM   H11G13786   0.501  -0.766   7.440 -0.0162  0.1697  2.1148
  128OSM   C12F13787   0.425  -0.601   7.549  0.2208 -0.3259  0.1247
  128OSM   H12F13788   0.325  -0.607   7.500  0.0774  2.7865 -0.0550
  128OSM   H12G13789   0.452  -0.494   7.564 -2.6822  0.4157  0.3305
  128OSM   C13F13790   0.422  -0.679   7.686  0.2740 -0.1639  0.1477
  128OSM   H13F13791   0.516  -0.678   7.744 -0.0698 -2.2252  0.7608
  128OSM   H13G13792   0.390  -0.782   7.661 -0.7650  1.0028 -3.8522
  128OSM   C14F13793   0.305  -0.627   7.768  0.0727 -0.6209 -0.2797
  128OSM   H14F13794   0.220  -0.611   7.698 -1.0650  1.2296  1.4739
  128OSM   H14G13795   0.329  -0.530   7.816 -1.0068  0.4233 -1.8077
  128OSM   C15F13796   0.255  -0.729   7.871  0.5738 -0.7800  0.5418
  128OSM   H15F13797   0.331  -0.751   7.949  1.1142  0.6758  0.4582
  128OSM   H15G13798   0.238  -0.825   7.819  0.1833 -1.5724  2.0977
  128OSM   C16F13799   0.134  -0.684   7.948 -0.5698  0.2227 -0.0054
  128OSM   H16F13800   0.050  -0.668   7.878  0.1965  1.4182 -0.6687
  128OSM   H16G13801   0.156  -0.588   8.000 -0.7201 -0.8920  2.1559
  128OSM   C17F13802   0.091  -0.785   8.065 -0.3424 -0.5457 -0.4010
  128OSM   H17F13803   0.024  -0.730   8.134 -0.0241  1.9403 -1.9790
  128OSM   H17G13804   0.183  -0.818   8.117 -1.2374 -1.3259  0.7107
  128OSM   C18F13805   0.010  -0.909   8.015 -0.6474 -0.6083  0.2885
  128OSM   H18F13806   0.077  -0.949   7.936  0.1474 -0.0511  0.6605
  128OSM   H18G13807  -0.087  -0.876   7.971  0.0828 -0.4703 -1.2470
  128OSM   H18H13808  -0.006  -0.987   8.093  2.1109 -2.1474 -0.6280
  129OSM      N13809   3.987   3.528   6.499  0.0361  0.3473  0.2467
  129OSM    C1513810   4.011   3.676   6.495  0.5570  0.1120  0.0101
  129OSM   H15A13811   4.097   3.705   6.436 -0.8310 -1.3679 -2.7947
  129OSM   H15B13812   4.001   3.723   6.592 -0.3045  0.4252 -0.2300
  129OSM   H15C13813   3.933   3.734   6.447  1.3379  1.2536  0.0842
  129OSM    C1413814   3.853   3.506   6.558  0.3831  0.5689 -0.0376
  129OSM   H14A13815   3.847   3.400   6.578 -1.2032  0.1866 -2.4280
  129OSM   H14B13816   3.779   3.529   6.484  1.4079 -1.0191 -1.5959
  129OSM   H14C13817   3.841   3.561   6.651 -0.7958 -0.6218  0.5213
  129OSM    C1313818   3.995   3.463   6.370  0.0775  0.1208  0.0530
  129OSM   H13A13819   3.914   3.481   6.301 -0.2434  0.8052  0.6015
  129OSM   H13B13820   3.988   3.355   6.373  0.2625  0.0482 -1.8270
  129OSM   H13C13821   4.084   3.488   6.315  0.2907  1.1033  0.8271
  129OSM    C1213822   4.096   3.466   6.587  0.0775  0.2803 -0.5709
  129OSM   H12A13823   4.108   3.536   6.668  1.0578 -0.9032  0.3348
  129OSM   H12B13824   4.192   3.470   6.539  0.7040 -1.3119  0.5083
  129OSM    C1113825   4.088   3.316   6.627 -0.3999  0.2723 -0.4017
  129OSM   H11A13826   3.980   3.290   6.639  0.1231 -1.1780  1.3226
  129OSM   H11B13827   4.141   3.293   6.722 -1.6466  1.0312  0.5055
  129OSM      P13828   4.300   3.247   6.484  0.2301 -0.4156 -0.3657
  129OSM    O1313829   4.333   3.133   6.401  0.1367  0.2668 -0.0834
  129OSM    O1413830   4.321   3.385   6.433  0.1974  0.0665 -0.5637
  129OSM    O1113831   4.364   3.236   6.629 -0.8960  0.3597  0.2938
  129OSM    O1213832   4.147   3.240   6.524 -0.0276  0.0209  0.4006
  129OSM    C1S13833   4.441   3.348   6.680 -0.4871 -0.2873 -0.3457
  129OSM    H1S13834   4.387   3.445   6.684 -2.1859 -1.2170  0.0485
  129OSM    H1T13835   4.527   3.371   6.615  0.7646  0.7727  1.6425
  129OSM     NF13836   4.565   3.421   6.877  0.1265  0.8189 -0.8197
  129OSM    HNF13837   4.660   3.437   6.851  0.6206  1.1366  1.1224
  129OSM    C2S13838   4.498   3.310   6.822  0.7046  0.3952  0.1369
  129OSM    H2S13839   4.412   3.280   6.885 -0.2995  0.8879 -0.9886
  129OSM    C3S13840   4.582   3.174   6.808  0.2689 -0.4734 -0.3333
  129OSM    H3S13841   4.671   3.193   6.744 -0.0900 -0.2081 -0.7602
  129OSM     O313842   4.516   3.065   6.745 -0.2954  0.5392  0.5693
  129OSM    HO313843   4.449   3.117   6.700 -1.2935 -1.3897 -0.2483
  129OSM    C4S13844   4.621   3.126   6.945  0.1336 -0.3515  0.7145
  129OSM    H4S13845   4.533   3.097   7.003 -0.7781 -1.2443 -1.0692
  129OSM    C5S13846   4.742   3.111   7.009  0.2383  0.6118 -0.1705
  129OSM    H5S13847   4.830   3.127   6.945 -0.5013  1.6044 -0.9457
  129OSM    C6S13848   4.741   3.061   7.149  0.7290  0.5017  0.0859
  129OSM    H6S13849   4.837   3.007   7.165  1.3180  1.7758  0.8654
  129OSM    H6T13850   4.652   2.994   7.157  2.0641 -1.6756 -2.3523
  129OSM    C7S13851   4.742   3.176   7.252 -0.4159 -0.0242  0.2438
  129OSM    H7S13852   4.646   3.231   7.253 -1.8546 -2.4509  0.4293
  129OSM    H7T13853   4.828   3.246   7.249  1.4148 -2.2370 -0.2855
  129OSM    C8S13854   4.759   3.110   7.399 -0.4731 -0.2576 -0.1564
  129OSM    H8S13855   4.856   3.056   7.411 -1.4074 -1.9528 -0.1784
  129OSM    H8T13856   4.671   3.044   7.416 -0.4167  0.0257  1.3293
  129OSM    C9S13857   4.743   3.224   7.499 -0.0965  0.7780  0.5629
  129OSM    H9S13858   4.639   3.264   7.501  0.5105  2.5262 -1.0094
  129OSM    H9T13859   4.804   3.314   7.475 -1.2181  1.5813  0.6578
  129OSM   C10S13860   4.784   3.194   7.643  0.5242  0.3088 -0.3256
  129OSM   H10S13861   4.894   3.175   7.643  1.3556  4.5071 -1.9080
  129OSM   H10T13862   4.731   3.103   7.678  0.3048 -0.3493 -2.3130
  129OSM   C11S13863   4.759   3.308   7.740  0.4108 -0.2805 -0.2461
  129OSM   H11S13864   4.655   3.346   7.728  0.4675  0.6615  2.0945
  129OSM   H11T13865   4.820   3.398   7.716  1.7116 -1.6063 -2.0567
  129OSM   C12S13866   4.789   3.278   7.888 -0.3931 -0.4103 -0.4004
  129OSM   H12S13867   4.778   3.376   7.941  1.9919 -0.3754  0.0619
  129OSM   H12T13868   4.896   3.255   7.905 -0.4836 -1.1687 -0.8640
  129OSM   C13S13869   4.707   3.166   7.947  0.1307  0.3871  0.8132
  129OSM   H13S13870   4.756   3.069   7.925  1.1012  1.3164 -1.2750
  129OSM   H13T13871   4.605   3.158   7.903  0.1081 -0.8186  1.0600
  129OSM   C14S13872   4.704   3.175   8.096  0.2272  0.2558  0.0855
  129OSM   H14S13873   4.646   3.088   8.135 -1.3842  0.7260 -1.2127
  129OSM   H14T13874   4.647   3.269   8.116 -0.9753  0.1475 -2.6439
  129OSM   C15S13875   4.842   3.175   8.157 -0.1232  0.1404  0.2323
  129OSM   H15S13876   4.897   3.267   8.128 -2.9738  2.3329  1.6319
  129OSM   H15T13877   4.900   3.088   8.119 -0.2548 -0.8861  2.3074
  129OSM   C16S13878   4.829   3.177   8.308 -0.7928  0.5521  0.5291
  129OSM   H16S13879   4.764   3.095   8.344 -1.4818  0.6913 -0.3895
  129OSM   H16T13880   4.760   3.259   8.338 -1.7084 -0.9259  2.6121
  129OSM   C17S13881   4.960   3.190   8.391  0.1065  0.5201  0.1747
  129OSM   H17S13882   4.938   3.210   8.498 -0.3989  0.5581  0.0649
  129OSM   H17T13883   5.011   3.283   8.360 -0.0917  1.2166  1.8748
  129OSM   C18S13884   5.053   3.072   8.364  0.3511  0.1932  0.0608
  129OSM   H18S13885   5.151   3.090   8.414 -0.7302 -1.1857  2.8304
  129OSM   H18T13886   5.084   3.058   8.259  1.3475  0.4674  0.3121
  129OSM   H18U13887   4.997   2.985   8.404  1.4443 -0.6087 -0.1348
  129OSM    C1F13888   4.498   3.520   6.926 -0.5339  0.3084 -0.3946
  129OSM     OF13889   4.377   3.523   6.946 -0.5471 -0.7002  0.3755
  129OSM    C2F13890   4.582   3.636   6.969  1.0113 -0.0691 -0.2055
  129OSM    H2F13891   4.553   3.728   6.914  2.2160  1.1194  1.1181
  129OSM    H2G13892   4.690   3.619   6.949  1.7972  1.0386  2.8962
  129OSM    C3F13893   4.575   3.677   7.121 -0.7521 -0.2224  0.3220
  129OSM    H3F13894   4.482   3.734   7.141 -1.0626 -1.2209  1.8180
  129OSM    H3G13895   4.661   3.745   7.141 -1.6239  0.7550  0.8394
  129OSM    C4F13896   4.596   3.560   7.208  0.0081 -0.1982  0.0511
  129OSM    H4F13897   4.677   3.502   7.160 -1.4834 -1.8057 -0.5767
  129OSM    H4G13898   4.516   3.484   7.221 -0.9887  0.7901 -0.2249
  129OSM    C5F13899   4.643   3.597   7.349 -0.1401 -0.2243 -0.3181
  129OSM    H5F13900   4.736   3.657   7.339 -1.8964  2.7019  0.2819
  129OSM    H5G13901   4.682   3.505   7.396 -2.8424 -1.8845 -1.2063
  129OSM    C6F13902   4.543   3.657   7.445 -0.2217  0.5213 -0.6010
  129OSM    H6F13903   4.464   3.581   7.460  1.6931 -1.8211 -1.9178
  129OSM    H6G13904   4.503   3.743   7.387  2.7802  1.5590 -1.2169
  129OSM    C7F13905   4.605   3.701   7.582  0.4981  0.1479 -0.1033
  129OSM    H7F13906   4.709   3.741   7.578  1.1292 -1.4498  0.0806
  129OSM    H7G13907   4.618   3.605   7.635 -0.4386  1.2918  2.2503
  129OSM    C8F13908   4.508   3.769   7.683 -0.2624  0.4694 -0.2615
  129OSM    H8F13909   4.562   3.754   7.778  0.7545  0.3574 -0.8541
  129OSM    H8G13910   4.412   3.713   7.682  0.7143 -1.2935  2.1093
  129OSM    C9F13911   4.491   3.912   7.637 -0.2516 -0.5204 -0.1710
  129OSM    H9F13912   4.443   3.926   7.539  3.0555  0.6812 -1.6748
  129OSM   C10F13913   4.534   4.014   7.715 -0.5666 -0.4008 -0.1271
  129OSM   H10F13914   4.522   4.116   7.677 -1.3448 -0.2990  0.3604
  129OSM   C11F13915   4.589   4.005   7.854  0.0650  0.2855  0.6280
  129OSM   H11F13916   4.622   4.109   7.873  0.6096  0.1867  0.2398
  129OSM   H11G13917   4.679   3.940   7.851 -0.3133 -0.1753 -1.7425
  129OSM   C12F13918   4.480   3.964   7.957 -0.5051 -0.0778 -0.3226
  129OSM   H12F13919   4.428   3.873   7.922 -0.5180 -0.8649  1.6621
  129OSM   H12G13920   4.398   4.039   7.950 -0.5550 -0.0804  0.2453
  129OSM   C13F13921   4.521   3.959   8.106  0.5260 -0.3992  0.3461
  129OSM   H13F13922   4.428   3.943   8.165 -0.4938  1.5800 -0.6470
  129OSM   H13G13923   4.566   4.054   8.140 -2.4806  0.8043  1.1928
  129OSM   C14F13924   4.604   3.839   8.142 -0.2513  0.0211 -0.7898
  129OSM   H14F13925   4.697   3.848   8.082  1.1881 -1.0986  1.2067
  129OSM   H14G13926   4.555   3.744   8.110 -2.0486  1.0820 -1.2531
  129OSM   C15F13927   4.632   3.839   8.295  0.1186 -0.4514  0.0595
  129OSM   H15F13928   4.534   3.845   8.346 -0.7742  0.2596 -1.6695
  129OSM   H15G13929   4.676   3.938   8.321 -2.9880  0.9036  0.4180
  129OSM   C16F13930   4.718   3.726   8.352  0.3844 -0.0138  0.4089
  129OSM   H16F13931   4.666   3.634   8.319  0.3629  1.2643 -3.3734
  129OSM   H16G13932   4.717   3.732   8.463 -0.2260 -4.0043  0.6848
  129OSM   C17F13933   4.860   3.720   8.314 -0.3985 -0.0192 -0.1613
  129OSM   H17F13934   4.911   3.812   8.351 -0.9310  0.7427 -1.3002
  129OSM   H17G13935   4.867   3.735   8.204 -0.7547 -3.1087 -0.6465
  129OSM   C18F13936   4.935   3.592   8.359  0.7272  0.2278  0.2249
  129OSM   H18F13937   4.876   3.499   8.354  1.2761 -0.0719 -0.8106
  129OSM   H18G13938   4.964   3.609   8.465 -1.5944 -0.7020  1.0326
  129OSM   H18H13939   5.027   3.571   8.300 -0.1775 -3.3725  0.0045
  130OSM      N13940   1.914   5.656   6.283  0.2770 -0.0297 -0.0695
  130OSM    C1513941   2.014   5.733   6.198  1.5532 -0.7668 -0.4030
  130OSM   H15A13942   2.072   5.794   6.267  0.6079 -0.4849  0.1527
  130OSM   H15B13943   1.972   5.798   6.123 -0.3762 -0.4517  0.9259
  130OSM   H15C13944   2.085   5.663   6.158  1.5076 -0.0343 -1.7688
  130OSM    C1413945   1.984   5.614   6.411  0.4563 -0.2280 -0.1015
  130OSM   H14A13946   2.075   5.557   6.397  0.7184  0.3764 -0.8192
  130OSM   H14B13947   1.917   5.551   6.469  0.5954  1.3573  1.8491
  130OSM   H14C13948   2.011   5.701   6.468  1.9585 -1.2264  0.7488
  130OSM    C1313949   1.808   5.747   6.326 -0.3867 -0.2407  0.5474
  130OSM   H13A13950   1.771   5.803   6.242  1.8536  3.7568  2.0575
  130OSM   H13B13951   1.847   5.815   6.401  3.7801 -0.4573 -1.2600
  130OSM   H13C13952   1.731   5.682   6.364 -0.9780 -0.1774 -0.5447
  130OSM    C1213953   1.857   5.540   6.205  0.6635 -0.2998  0.0783
  130OSM   H12A13954   1.772   5.495   6.254  0.9964 -3.5872 -2.1495
  130OSM   H12B13955   1.925   5.457   6.196  0.2823 -0.4053 -2.1153
  130OSM    C1113956   1.798   5.568   6.067  0.4637  0.4013  0.2605
  130OSM   H11A13957   1.780   5.465   6.029  1.5651  0.5526 -0.7138
  130OSM   H11B13958   1.875   5.611   6.000 -0.8217 -0.2827 -1.6722
  130OSM      P13959   1.531   5.618   6.101  0.1130 -0.1076 -0.2388
  130OSM    O1313960   1.456   5.725   6.041 -0.2941 -0.3331 -0.5651
  130OSM    O1413961   1.507   5.484   6.045 -0.0908  0.1114  0.0209
  130OSM    O1113962   1.521   5.608   6.260 -0.1280 -0.0991 -0.1553
  130OSM    O1213963   1.685   5.652   6.076  1.0325  0.9198  0.4452
  130OSM    C1S13964   1.419   5.679   6.315 -0.8922 -0.2718  0.1674
  130OSM    H1S13965   1.323   5.665   6.261 -1.2278  1.2459  0.3388
  130OSM    H1T13966   1.441   5.788   6.315  0.4510 -0.5299  0.2642
  130OSM     NF13967   1.258   5.714   6.508 -0.6368  0.4834 -0.0001
  130OSM    HNF13968   1.281   5.772   6.585  3.0538 -0.5204 -0.2893
  130OSM    C2S13969   1.376   5.634   6.456 -0.3627 -0.3465 -0.6602
  130OSM    H2S13970   1.340   5.530   6.443  0.4090 -1.1600  2.9894
  130OSM    C3S13971   1.500   5.637   6.545  0.3746  0.6496  0.2409
  130OSM    H3S13972   1.556   5.733   6.549 -1.3132  1.6302  0.9740
  130OSM     O313973   1.608   5.563   6.496  0.0032  0.2569  0.0239
  130OSM    HO313974   1.577   5.535   6.409  0.6759  0.8365 -0.4095
  130OSM    C4S13975   1.461   5.602   6.687  0.8044  0.2720 -0.4378
  130OSM    H4S13976   1.474   5.692   6.748 -1.2209 -0.0483  0.4814
  130OSM    C5S13977   1.420   5.487   6.741 -1.0964  0.2962 -0.3225
  130OSM    H5S13978   1.425   5.397   6.678  2.2468  1.0371 -1.2427
  130OSM    C6S13979   1.381   5.457   6.886  0.9423  0.0042  1.5416
  130OSM    H6S13980   1.420   5.355   6.909 -1.7107 -1.1136  1.2384
  130OSM    H6T13981   1.271   5.443   6.884  0.9326  0.1896 -1.2309
  130OSM    C7S13982   1.449   5.559   6.984  0.1533  0.4339 -0.0088
  130OSM    H7S13983   1.443   5.662   6.941 -0.8944 -0.1431 -1.2968
  130OSM    H7T13984   1.559   5.543   6.996 -0.3705 -3.5000  0.2036
  130OSM    C8S13985   1.398   5.561   7.127  0.3320  0.3798  0.1878
  130OSM    H8S13986   1.376   5.455   7.149 -0.4027  1.0496  2.8627
  130OSM    H8T13987   1.307   5.624   7.140 -0.3385 -0.4099 -0.6463
  130OSM    C9S13988   1.502   5.602   7.228  0.0288 -0.1547  0.8258
  130OSM    H9S13989   1.570   5.687   7.207  0.4391 -0.2144  1.8747
  130OSM    H9T13990   1.573   5.517   7.236 -0.2044 -0.4498 -0.2338
  130OSM   C10S13991   1.433   5.611   7.362  0.1842  0.4185  0.0544
  130OSM   H10S13992   1.400   5.507   7.386  0.2854 -0.1116 -1.9790
  130OSM   H10T13993   1.342   5.674   7.355 -0.3907 -0.4244 -0.2543
  130OSM   C11S13994   1.522   5.661   7.472  0.2539  0.4384  0.1083
  130OSM   H11S13995   1.579   5.739   7.417 -0.2575  1.5080  1.0911
  130OSM   H11T13996   1.604   5.593   7.506 -1.4848 -0.4556  2.6622
  130OSM   C12S13997   1.439   5.706   7.596 -0.7153 -1.2628  0.3599
  130OSM   H12S13998   1.352   5.763   7.557  3.3123  2.8642 -3.0749
  130OSM   H12T13999   1.510   5.774   7.648 -0.4468 -1.8515  0.7678
  130OSM   C13S14000   1.379   5.598   7.695 -0.0684  0.4121 -0.2642
  130OSM   H13S14001   1.468   5.540   7.729 -0.6971  0.1488  0.9621
  130OSM   H13T14002   1.304   5.533   7.645  1.1936 -2.0785  0.9878
  130OSM   C14S14003   1.332   5.654   7.824 -0.0428  0.0413 -0.2600
  130OSM   H14S14004   1.222   5.669   7.824  0.1620  1.5860 -1.2351
  130OSM   H14T14005   1.376   5.754   7.845  1.3113  0.2055 -3.5409
  130OSM   C15S14006   1.363   5.561   7.943  0.5640  0.4897  1.0365
  130OSM   H15S14007   1.470   5.532   7.941 -0.3210 -3.0771 -1.8306
  130OSM   H15T14008   1.301   5.469   7.939  0.9202  0.2124  1.8925
  130OSM   C16S14009   1.340   5.626   8.075  0.0971 -0.6158 -0.8734
  130OSM   H16S14010   1.237   5.597   8.107 -0.6236 -1.5666 -3.8679
  130OSM   H16T14011   1.350   5.736   8.064  0.2765 -0.5149  0.2389
  130OSM   C17S14012   1.444   5.570   8.175  0.5465 -0.1390  0.1855
  130OSM   H17S14013   1.537   5.620   8.142 -0.0199  0.4592 -0.5310
  130OSM   H17T14014   1.457   5.460   8.176  0.9057 -0.1263 -2.1034
  130OSM   C18S14015   1.414   5.623   8.314 -0.1188  0.0346 -0.6100
  130OSM   H18S14016   1.328   5.572   8.361  0.4502  0.6736  1.1852
  130OSM   H18T14017   1.390   5.731   8.306 -1.8514 -0.2546  0.4120
  130OSM   H18U14018   1.500   5.598   8.380  1.0447  2.1545 -1.2634
  130OSM    C1F14019   1.130   5.716   6.454  0.3092  0.7129 -0.2965
  130OSM     OF14020   1.103   5.639   6.360  0.2490  0.1942  0.2186
  130OSM    C2F14021   1.026   5.807   6.514  0.9526  0.5706 -0.3374
  130OSM    H2F14022   1.063   5.910   6.492  0.9484  0.8333  0.8898
  130OSM    H2G14023   1.014   5.802   6.624  2.6298 -0.3687 -0.1755
  130OSM    C3F14024   0.877   5.800   6.453  0.2059  0.3052 -0.5693
  130OSM    H3F14025   0.846   5.693   6.463  0.3801  0.1856 -1.3145
  130OSM    H3G14026   0.885   5.828   6.346  0.1973  3.7525  0.2790
  130OSM    C4F14027   0.773   5.905   6.507  0.0372  0.2340  0.3700
  130OSM    H4F14028   0.715   5.951   6.424 -1.1180 -1.5735  0.1426
  130OSM    H4G14029   0.839   5.989   6.538  0.0051  0.9083 -1.3222
  130OSM    C5F14030   0.685   5.844   6.614  0.4484 -0.7721  0.6747
  130OSM    H5F14031   0.750   5.771   6.667  2.0226  0.5195  0.6011
  130OSM    H5G14032   0.603   5.791   6.563 -0.4902  1.1191  0.1622
  130OSM    C6F14033   0.624   5.948   6.711  0.1655 -0.4239 -0.3201
  130OSM    H6F14034   0.579   6.028   6.648  2.4114  1.1374  0.0083
  130OSM    H6G14035   0.700   5.993   6.779  1.3535 -0.3800 -1.6605
  130OSM    C7F14036   0.518   5.883   6.806 -0.2838 -0.5406  0.0382
  130OSM    H7F14037   0.573   5.806   6.864  0.9341  1.2402  1.2777
  130OSM    H7G14038   0.439   5.832   6.746 -2.1561 -0.1461  2.1101
  130OSM    C8F14039   0.436   5.971   6.897 -0.5221 -0.4178  0.3727
  130OSM    H8F14040   0.506   6.042   6.946  1.1392 -1.5695 -0.2805
  130OSM    H8G14041   0.396   5.909   6.979  1.2594 -1.0393  0.7886
  130OSM    C9F14042   0.338   6.048   6.803  0.3147  0.5647  0.3355
  130OSM    H9F14043   0.375   6.069   6.702  2.8565 -1.1024  0.8727
  130OSM   C10F14044   0.207   6.078   6.833 -0.4530  0.1626  0.4851
  130OSM   H10F14045   0.144   6.124   6.756  1.7235 -0.3887 -1.6794
  130OSM   C11F14046   0.133   6.051   6.960 -0.9183 -0.1012  0.3672
  130OSM   H11F14047   0.169   6.129   7.031 -1.4333 -1.0298  1.6874
  130OSM   H11G14048   0.169   5.949   6.989  1.2867  0.1417 -1.3948
  130OSM   C12F14049  -0.021   6.047   6.950 -0.5251 -0.9449  0.4453
  130OSM   H12F14050  -0.039   5.967   6.874 -1.0057 -0.1671 -0.2650
  130OSM   H12G14051  -0.053   6.146   6.912  1.3568 -0.3125  0.4238
  130OSM   C13F14052  -0.096   6.033   7.084  0.1441 -0.3732 -0.5847
  130OSM   H13F14053  -0.063   5.936   7.127 -2.4913 -1.7920 -1.6674
  130OSM   H13G14054  -0.205   6.019   7.065  0.0524 -1.2138  0.5070
  130OSM   C14F14055  -0.074   6.153   7.177  0.4058 -0.0174  0.7722
  130OSM   H14F14056  -0.141   6.238   7.154 -0.2747  0.3480  3.8340
  130OSM   H14G14057   0.027   6.196   7.157  0.3368 -0.3267 -0.2318
  130OSM   C15F14058  -0.093   6.124   7.320  0.4074  0.2023  0.1475
  130OSM   H15F14059  -0.191   6.073   7.337  0.8437 -0.7666 -0.2187
  130OSM   H15G14060  -0.111   6.221   7.371 -0.4015  1.2617 -2.0830
  130OSM   C16F14061   0.032   6.050   7.381  0.2789  0.3715 -0.0471
  130OSM   H16F14062   0.111   6.123   7.407  0.5547  0.2403 -0.5205
  130OSM   H16G14063   0.078   5.998   7.295 -1.8280 -1.5574 -0.0645
  130OSM   C17F14064   0.012   5.949   7.496 -0.6936  0.1224 -0.0129
  130OSM   H17F14065   0.112   5.927   7.541 -0.3213 -1.5988 -1.6148
  130OSM   H17G14066  -0.025   5.849   7.467 -0.0179  0.2921 -1.4938
  130OSM   C18F14067  -0.077   6.005   7.602 -0.2845  0.1993 -0.6888
  130OSM   H18F14068  -0.088   5.927   7.680  0.5900  0.7111 -0.0489
  130OSM   H18G14069  -0.179   6.022   7.561 -0.4062  1.2482  0.0243
  130OSM   H18H14070  -0.039   6.097   7.652  0.3208 -0.9572  1.0315
  131OSM      N14071   4.649   2.737   6.188  0.5139 -0.3113 -0.2965
  131OSM    C1514072   4.771   2.825   6.177  0.0763 -0.8100 -0.7291
  131OSM   H15A14073   4.854   2.777   6.225  0.7680  0.6404 -0.4360
  131OSM   H15B14074   4.756   2.920   6.226  0.2492 -1.7099  1.0874
  131OSM   H15C14075   4.808   2.857   6.081  1.5143  0.3672  0.1959
  131OSM    C1414076   4.620   2.712   6.327  0.4618 -0.6445 -0.2078
  131OSM   H14A14077   4.524   2.663   6.331 -0.0959  0.2494 -2.0773
  131OSM   H14B14078   4.603   2.804   6.380  1.4112 -0.0171 -0.9722
  131OSM   H14C14079   4.702   2.657   6.371 -1.0601 -2.2487  0.7028
  131OSM    C1314080   4.540   2.820   6.141 -0.1699 -0.2542  0.0666
  131OSM   H13A14081   4.552   2.921   6.176 -1.4240  0.4277 -1.3989
  131OSM   H13B14082   4.448   2.785   6.184 -1.7731  1.2705 -1.9793
  131OSM   H13C14083   4.530   2.825   6.033  1.8407 -1.5285 -0.2119
  131OSM    C1214084   4.670   2.617   6.105  0.1336  0.0413 -0.1235
  131OSM   H12A14085   4.761   2.572   6.142  0.6877  2.6890  1.9002
  131OSM   H12B14086   4.689   2.647   6.003 -0.8281  1.4505  0.0982
  131OSM    C1114087   4.564   2.504   6.112 -0.0469  0.8282  0.3686
  131OSM   H11A14088   4.468   2.558   6.128  0.7116  2.1050  0.6419
  131OSM   H11B14089   4.576   2.443   6.204  0.1250  0.5081  0.1334
  131OSM      P14090   4.678   2.302   5.983 -0.1616  0.2699  0.1083
  131OSM    O1314091   4.624   2.205   5.886 -0.7324  0.1640  0.8328
  131OSM    O1414092   4.812   2.366   5.949 -0.5628  0.1979  0.1432
  131OSM    O1114093   4.686   2.235   6.126 -0.1394 -0.0815  0.2301
  131OSM    O1214094   4.571   2.419   6.000  0.4710  0.4548  0.2214
  131OSM    C1S14095   4.797   2.274   6.212 -0.2206 -0.1463  0.3426
  131OSM    H1S14096   4.811   2.384   6.201 -0.5282 -0.4063 -3.1006
  131OSM    H1T14097   4.891   2.218   6.194  1.5172  3.1362 -1.1983
  131OSM     NF14098   4.903   2.282   6.430  0.0992 -0.2775  0.3043
  131OSM    HNF14099   4.967   2.206   6.428 -1.2087 -1.3840 -0.8110
  131OSM    C2S14100   4.778   2.249   6.367  0.9697  0.3901 -0.2586
  131OSM    H2S14101   4.704   2.316   6.416  0.1825  0.0036 -0.9144
  131OSM    C3S14102   4.747   2.100   6.403  0.1484  0.1283  0.3107
  131OSM    H3S14103   4.830   2.029   6.382 -0.6516 -1.5704  2.7382
  131OSM     O314104   4.636   2.054   6.325  0.1295  0.7708  0.1476
  131OSM    HO314105   4.621   2.129   6.268 -0.4801 -0.7586 -1.7676
  131OSM    C4S14106   4.723   2.072   6.548  0.0280  0.3107 -0.2551
  131OSM    H4S14107   4.813   2.059   6.609  0.8327  2.4709 -0.9537
  131OSM    C5S14108   4.602   2.073   6.625 -0.2377 -0.1253  0.4181
  131OSM    H5S14109   4.506   2.089   6.575 -0.0827 -0.9813 -0.1632
  131OSM    C6S14110   4.610   2.047   6.773 -0.2531  0.1247 -0.7097
  131OSM    H6S14111   4.662   1.952   6.797  0.1344 -0.8195 -4.8653
  131OSM    H6T14112   4.508   2.041   6.816  0.3836 -0.6992  0.7029
  131OSM    C7S14113   4.668   2.155   6.870 -0.0344 -0.2010  0.0287
  131OSM    H7S14114   4.616   2.251   6.851  2.4537  1.2862  0.5903
  131OSM    H7T14115   4.772   2.186   6.844  0.5073 -2.0363 -0.0578
  131OSM    C8S14116   4.651   2.119   7.016 -0.3780 -0.1285 -0.4289
  131OSM    H8S14117   4.711   2.028   7.042 -0.6392  0.3140  1.8060
  131OSM    H8T14118   4.541   2.105   7.016 -0.4125  0.0975 -1.4322
  131OSM    C9S14119   4.678   2.232   7.115 -0.1683 -0.2865 -0.7583
  131OSM    H9S14120   4.641   2.329   7.074 -0.4965  0.3594  1.0290
  131OSM    H9T14121   4.787   2.244   7.132 -0.2761  2.0439 -1.5582
  131OSM   C10S14122   4.615   2.198   7.250 -0.3575  0.2030 -0.2672
  131OSM   H10S14123   4.633   2.093   7.281  1.3681 -0.0694 -2.0862
  131OSM   H10T14124   4.505   2.196   7.232 -0.1927  0.3622 -1.3679
  131OSM   C11S14125   4.648   2.289   7.371  0.3412  0.1142 -0.1959
  131OSM   H11S14126   4.593   2.383   7.345  0.1095  0.4717  1.4948
  131OSM   H11T14127   4.754   2.319   7.357  0.5392 -0.8120 -0.7581
  131OSM   C12S14128   4.615   2.234   7.509 -0.3382 -0.8899  0.3569
  131OSM   H12S14129   4.695   2.163   7.540  1.0122  0.3816 -0.1767
  131OSM   H12T14130   4.518   2.182   7.492 -0.8079  0.5374 -1.3881
  131OSM   C13S14131   4.603   2.346   7.617  0.5446  0.1969  0.4117
  131OSM   H13S14132   4.543   2.429   7.575  0.1174 -0.1324  0.3785
  131OSM   H13T14133   4.705   2.390   7.630  1.1292 -1.3035  1.0153
  131OSM   C14S14134   4.553   2.290   7.750  0.3332 -0.1336 -0.5445
  131OSM   H14S14135   4.614   2.197   7.758  1.6105  0.7550  0.2780
  131OSM   H14T14136   4.445   2.261   7.755  0.1049  0.6405 -0.9607
  131OSM   C15S14137   4.580   2.375   7.876  0.0308 -0.2365 -0.2897
  131OSM   H15S14138   4.537   2.477   7.873 -0.5131 -0.4381  0.4405
  131OSM   H15T14139   4.683   2.391   7.915  0.3287  0.2067 -1.2430
  131OSM   C16S14140   4.518   2.304   7.997  0.9668  0.3393 -0.1951
  131OSM   H16S14141   4.554   2.199   7.993 -2.2182 -0.8362  0.4983
  131OSM   H16T14142   4.407   2.293   8.001  0.8987  1.2913  0.6726
  131OSM   C17S14143   4.564   2.357   8.129  0.3052  0.5874  0.2381
  131OSM   H17S14144   4.538   2.460   8.161  0.3113  0.0066  2.1868
  131OSM   H17T14145   4.675   2.344   8.124 -0.1357 -3.2894 -0.4022
  131OSM   C18S14146   4.526   2.258   8.240  0.1853 -0.0558  0.2625
  131OSM   H18S14147   4.588   2.280   8.330  1.4153 -1.8187 -0.1319
  131OSM   H18T14148   4.555   2.159   8.199 -0.6686 -1.1123  2.1639
  131OSM   H18U14149   4.417   2.241   8.253 -0.0944  1.6455  0.2531
  131OSM    C1F14150   4.946   2.407   6.441 -0.6943  0.4874  0.1736
  131OSM     OF14151   4.886   2.506   6.409  0.1916  0.1486 -0.1630
  131OSM    C2F14152   5.087   2.409   6.456  0.2824 -0.1682 -0.3375
  131OSM    H2F14153   5.135   2.455   6.366  0.8839  0.2685  0.2063
  131OSM    H2G14154   5.138   2.311   6.471 -1.4024 -0.6247  2.7417
  131OSM    C3F14155   5.127   2.504   6.574  0.1041  0.4305 -0.5323
  131OSM    H3F14156   5.087   2.606   6.555  1.4765  0.7248 -1.9290
  131OSM    H3G14157   5.237   2.515   6.581  0.1933 -0.6319 -0.1485
  131OSM    C4F14158   5.075   2.446   6.705 -0.3765 -0.4725 -0.8663
  131OSM    H4F14159   5.109   2.340   6.709 -0.4851 -0.4466  2.1686
  131OSM    H4G14160   4.963   2.447   6.705 -0.3861 -1.1391 -0.7784
  131OSM    C5F14161   5.118   2.527   6.832 -0.1882 -0.6740  0.5593
  131OSM    H5F14162   5.083   2.630   6.811 -1.3387 -0.7324  2.1102
  131OSM    H5G14163   5.228   2.538   6.822 -0.2785  0.1339  0.4185
  131OSM    C6F14164   5.074   2.468   6.972  0.4264  0.6005 -1.0376
  131OSM    H6F14165   5.115   2.365   6.983  1.3633  1.1782  1.2515
  131OSM    H6G14166   4.963   2.469   6.977  0.4730  0.6821  0.2670
  131OSM    C7F14167   5.129   2.561   7.083 -0.3266 -0.2762 -0.3035
  131OSM    H7F14168   5.071   2.656   7.078  0.3781  0.2532  1.3494
  131OSM    H7G14169   5.226   2.599   7.046 -1.0773  0.3523 -1.6620
  131OSM    C8F14170   5.135   2.507   7.225 -0.5869 -0.1662 -0.1881
  131OSM    H8F14171   5.193   2.569   7.297 -0.4592 -1.2929  0.7008
  131OSM    H8G14172   5.179   2.405   7.225  0.7150  0.3491  1.9509
  131OSM    C9F14173   4.992   2.498   7.277  0.0652  0.2296  0.0390
  131OSM    H9F14174   4.915   2.491   7.199  0.1147 -2.7036  0.1863
  131OSM   C10F14175   4.960   2.498   7.407  0.4324 -0.0163  0.2395
  131OSM   H10F14176   4.853   2.491   7.429  0.1956 -1.0396 -1.1826
  131OSM   C11F14177   5.066   2.504   7.518 -0.2408 -0.8143 -0.4205
  131OSM   H11F14178   5.099   2.604   7.554  0.3557 -1.0129 -0.4131
  131OSM   H11G14179   5.162   2.469   7.475  1.8125  2.9446  0.8419
  131OSM   C12F14180   5.036   2.420   7.645  0.2710 -1.0105  0.5938
  131OSM   H12F14181   5.032   2.312   7.617 -0.1713 -2.4942  5.9737
  131OSM   H12G14182   4.933   2.446   7.678 -1.0879 -4.2695 -0.8485
  131OSM   C13F14183   5.147   2.434   7.753  0.4545 -0.3872 -0.3037
  131OSM   H13F14184   5.166   2.541   7.776 -1.7122 -0.0707  0.1214
  131OSM   H13G14185   5.239   2.390   7.708  0.6289  0.5144 -0.8402
  131OSM   C14F14186   5.080   2.365   7.872 -0.3234  0.0414 -0.5044
  131OSM   H14F14187   5.073   2.261   7.834  1.2206  0.1292 -1.0685
  131OSM   H14G14188   4.979   2.405   7.895 -1.1661 -1.8544 -0.8306
  131OSM   C15F14189   5.166   2.380   7.996 -0.1128 -0.1538 -0.4721
  131OSM   H15F14190   5.260   2.322   7.989 -1.1571 -1.7779 -1.1751
  131OSM   H15G14191   5.115   2.323   8.076  0.2094 -1.2096 -1.0078
  131OSM   C16F14192   5.176   2.532   8.047 -0.1327  0.2617 -0.2200
  131OSM   H16F14193   5.073   2.571   8.037 -0.5034 -0.5219  0.5015
  131OSM   H16G14194   5.232   2.587   7.968 -1.1189 -0.4324 -1.4179
  131OSM   C17F14195   5.237   2.532   8.189 -0.2021  0.2347 -0.8175
  131OSM   H17F14196   5.345   2.506   8.179 -0.2204 -0.1118 -0.1980
  131OSM   H17G14197   5.182   2.454   8.247  0.5442 -2.2679 -3.3176
  131OSM   C18F14198   5.237   2.664   8.273  0.5576  0.2937 -0.7208
  131OSM   H18F14199   5.312   2.660   8.355  1.3047  0.2319 -1.3975
  131OSM   H18G14200   5.139   2.683   8.321 -1.0726 -0.3574 -3.6751
  131OSM   H18H14201   5.262   2.746   8.203 -2.7965  2.2952  0.3001
  132OSM      N14202   6.697   2.838   6.066  0.6227 -0.6073 -0.3026
  132OSM    C1514203   6.803   2.741   6.043 -0.3032 -0.0448 -0.6582
  132OSM   H15A14204   6.873   2.748   6.125 -0.3547  0.3509 -0.6470
  132OSM   H15B14205   6.860   2.765   5.955  2.9827  1.7844  1.8472
  132OSM   H15C14206   6.769   2.639   6.051 -0.6956  0.1937  0.9883
  132OSM    C1414207   6.764   2.970   6.019  0.1665 -0.5010 -0.3329
  132OSM   H14A14208   6.699   3.056   6.014  1.2974  0.2448 -3.0171
  132OSM   H14B14209   6.812   2.958   5.923  1.0757  0.5183 -0.0176
  132OSM   H14C14210   6.842   3.003   6.086 -0.9918  3.3571 -0.7920
  132OSM    C1314211   6.579   2.801   5.979 -0.0712 -0.2024  0.4328
  132OSM   H13A14212   6.595   2.786   5.874 -1.6038  0.7954  0.0389
  132OSM   H13B14213   6.499   2.872   5.997 -0.4831  0.0952 -2.3555
  132OSM   H13C14214   6.542   2.705   6.011  1.5519 -1.1911 -0.6404
  132OSM    C1214215   6.655   2.840   6.213  0.1096 -0.7296 -0.1425
  132OSM   H12A14216   6.628   2.738   6.235  1.2688 -1.2592 -1.0644
  132OSM   H12B14217   6.566   2.901   6.211  2.6571  3.1012 -3.3198
  132OSM    C1114218   6.756   2.904   6.321  0.3826 -0.4642 -0.5792
  132OSM   H11A14219   6.697   2.909   6.415  0.7717 -1.5562 -0.2738
  132OSM   H11B14220   6.763   3.014   6.302 -3.2573 -0.4231 -2.0314
  132OSM      P14221   7.018   2.908   6.359 -0.4516 -0.2376  0.3413
  132OSM    O1314222   7.120   2.803   6.359  0.1923 -0.6338 -0.3342
  132OSM    O1414223   7.042   3.012   6.254 -0.3946  0.1587 -0.1999
  132OSM    O1114224   6.999   2.972   6.504  0.2045 -0.3041  0.6533
  132OSM    O1214225   6.882   2.839   6.334 -0.0760  0.3809  0.2792
  132OSM    C1S14226   6.931   2.915   6.612 -0.1938  0.3894 -0.5366
  132OSM    H1S14227   6.953   2.807   6.620 -1.0093  0.1785 -1.0586
  132OSM    H1T14228   6.825   2.940   6.591 -0.1279 -0.3159 -1.7292
  132OSM     NF14229   6.953   2.894   6.860 -0.0057  0.2492 -0.0969
  132OSM    HNF14230   6.893   2.931   6.930  1.4205  1.4005  0.5298
  132OSM    C2S14231   6.974   2.985   6.744 -0.5390 -0.7008  0.0347
  132OSM    H2S14232   7.084   3.000   6.739 -0.8571  1.1816 -2.2788
  132OSM    C3S14233   6.910   3.126   6.760 -0.0982 -0.5405 -0.6505
  132OSM    H3S14234   6.807   3.114   6.800  1.2753  0.0544  3.2878
  132OSM     O314235   6.919   3.208   6.642  0.2215  0.1535 -0.3145
  132OSM    HO314236   6.952   3.149   6.575  1.0119 -3.1151  2.8135
  132OSM    C4S14237   6.987   3.185   6.882 -0.4144  1.2105 -0.1062
  132OSM    H4S14238   6.942   3.155   6.978 -1.0583  1.2737 -0.3911
  132OSM    C5S14239   7.095   3.260   6.881  0.1551  0.6312  0.6931
  132OSM    H5S14240   7.135   3.299   6.786 -2.0335  2.1307  0.3430
  132OSM    C6S14241   7.153   3.316   7.005 -0.0483 -0.7098 -0.0265
  132OSM    H6S14242   7.132   3.424   7.021 -2.1780 -0.5660 -3.3134
  132OSM    H6T14243   7.264   3.319   7.007 -0.0404  1.1757 -1.5015
  132OSM    C7S14244   7.113   3.236   7.134  0.1875  0.2404  0.8453
  132OSM    H7S14245   7.138   3.128   7.124 -0.5721 -0.0059  1.5617
  132OSM    H7T14246   7.002   3.243   7.138  0.0744  0.4423 -2.1175
  132OSM    C8S14247   7.161   3.294   7.268  0.1738  0.1359  0.2134
  132OSM    H8S14248   7.121   3.398   7.278  0.2098 -0.0283  2.3764
  132OSM    H8T14249   7.270   3.300   7.287  0.1306 -0.2300  0.5945
  132OSM    C9S14250   7.107   3.206   7.376  0.7303  0.0703 -0.1755
  132OSM    H9S14251   7.124   3.100   7.346 -0.1464  0.4032 -1.8958
  132OSM    H9T14252   6.997   3.214   7.392  0.6830  0.0250 -0.4835
  132OSM   C10S14253   7.172   3.232   7.517 -0.0948 -0.3538  0.6655
  132OSM   H10S14254   7.136   3.329   7.558 -2.8367 -0.8223 -0.5786
  132OSM   H10T14255   7.281   3.245   7.500 -0.2962  0.3427 -0.1155
  132OSM   C11S14256   7.140   3.119   7.619 -0.4213 -0.2934 -0.0283
  132OSM   H11S14257   7.166   3.030   7.557  0.7082 -0.8990  1.3040
  132OSM   H11T14258   7.032   3.111   7.643 -1.0128  1.2081 -2.0460
  132OSM   C12S14259   7.242   3.126   7.741 -0.5301 -0.5661  0.3262
  132OSM   H12S14260   7.232   3.218   7.802 -0.2724 -0.4799  0.2406
  132OSM   H12T14261   7.347   3.124   7.704 -0.7373 -4.6721 -0.2772
  132OSM   C13S14262   7.222   3.012   7.829 -0.9174  0.4940  0.0440
  132OSM   H13S14263   7.208   2.924   7.764  0.3817  1.3655 -1.4387
  132OSM   H13T14264   7.121   3.034   7.870 -1.9509  1.0745 -2.7025
  132OSM   C14S14265   7.343   2.973   7.922 -0.3679 -0.8185 -0.6407
  132OSM   H14S14266   7.379   3.061   7.979  1.4968  0.5445 -3.7888
  132OSM   H14T14267   7.429   2.946   7.857 -0.0309  2.3971 -1.6259
  132OSM   C15S14268   7.301   2.870   8.034 -0.1836 -0.0902  0.4566
  132OSM   H15S14269   7.204   2.910   8.070  0.1459  2.6763 -1.5481
  132OSM   H15T14270   7.374   2.881   8.117  0.9402 -0.9738 -0.3957
  132OSM   C16S14271   7.264   2.729   7.984  0.2400  0.7343 -0.2580
  132OSM   H16S14272   7.355   2.689   7.936  1.6929  0.2000  2.8219
  132OSM   H16T14273   7.183   2.730   7.909  0.1602 -2.0355 -0.2358
  132OSM   C17S14274   7.223   2.637   8.099  0.4066 -1.0986  0.0816
  132OSM   H17S14275   7.133   2.675   8.152  0.0859  0.3641 -1.4451
  132OSM   H17T14276   7.313   2.626   8.163  1.4191 -1.9921 -1.4469
  132OSM   C18S14277   7.193   2.487   8.063  0.0926  0.0868  0.2982
  132OSM   H18S14278   7.117   2.482   7.982  1.2551 -0.8589 -0.7658
  132OSM   H18T14279   7.156   2.434   8.153 -2.0483 -3.5033 -2.5641
  132OSM   H18U14280   7.285   2.435   8.028  0.6685 -0.1337  2.0977
  132OSM    C1F14281   7.024   2.785   6.880  0.9817 -0.7667  0.1787
  132OSM     OF14282   7.113   2.741   6.799 -0.3391  0.0168  0.3381
  132OSM    C2F14283   7.002   2.718   7.018  0.4841  0.2587  0.5846
  132OSM    H2F14284   7.042   2.614   7.012  2.6498  1.1581 -1.1309
  132OSM    H2G14285   6.892   2.719   7.031  0.4998  0.8888  0.6645
  132OSM    C3F14286   7.075   2.792   7.132 -0.1673 -0.0188 -0.9163
  132OSM    H3F14287   7.025   2.890   7.146  0.3236  0.0500  0.4593
  132OSM    H3G14288   7.182   2.805   7.105  0.1092  0.1410  0.2445
  132OSM    C4F14289   7.073   2.708   7.266 -0.3556 -0.1292 -0.5754
  132OSM    H4F14290   7.096   2.600   7.256  1.4424 -0.1080  2.6840
  132OSM    H4G14291   6.970   2.706   7.306  0.3486  2.1983  1.5088
  132OSM    C5F14292   7.181   2.752   7.367  0.2300  0.0736  0.3243
  132OSM    H5F14293   7.166   2.858   7.398  1.3018  0.0559  0.9357
  132OSM    H5G14294   7.287   2.752   7.335 -0.0279  0.9789 -0.5322
  132OSM    C6F14295   7.174   2.675   7.500  0.2869 -0.0956  0.8273
  132OSM    H6F14296   7.178   2.568   7.472  0.4655  0.0568  0.2680
  132OSM    H6G14297   7.079   2.702   7.552  0.0561 -1.1215  0.9479
  132OSM    C7F14298   7.294   2.704   7.591  0.5207  0.5709 -0.4413
  132OSM    H7F14299   7.269   2.680   7.696 -0.4810 -1.1585 -1.0594
  132OSM    H7G14300   7.324   2.811   7.594 -1.2476  1.0643  0.2566
  132OSM    C8F14301   7.422   2.612   7.561  0.0907  0.3543  0.0994
  132OSM    H8F14302   7.426   2.596   7.451 -2.4480 -0.4355  0.0874
  132OSM    H8G14303   7.409   2.516   7.616  1.0190  1.0926  1.6430
  132OSM    C9F14304   7.550   2.682   7.610 -0.1188  0.1949  0.3683
  132OSM    H9F14305   7.550   2.791   7.606 -0.3198  0.2597  1.9456
  132OSM   C10F14306   7.669   2.624   7.651 -0.0380 -0.0708 -0.0381
  132OSM   H10F14307   7.752   2.695   7.661 -1.4390  1.1786  3.6430
  132OSM   C11F14308   7.697   2.473   7.661 -0.1156 -1.0349 -0.0496
  132OSM   H11F14309   7.762   2.440   7.577  0.6007 -1.2470  0.5798
  132OSM   H11G14310   7.599   2.421   7.658  0.0589 -1.5227  1.8002
  132OSM   C12F14311   7.772   2.423   7.783  0.0264 -0.0321 -0.6164
  132OSM   H12F14312   7.881   2.440   7.789  0.2859 -1.7908 -0.0735
  132OSM   H12G14313   7.764   2.312   7.777 -3.8926  0.0927  0.8233
  132OSM   C13F14314   7.697   2.463   7.913  0.4764  0.5001  0.0679
  132OSM   H13F14315   7.587   2.448   7.906  0.3677  1.9380 -1.7013
  132OSM   H13G14316   7.713   2.571   7.926  0.6773  0.5128 -0.2648
  132OSM   C14F14317   7.756   2.389   8.033  0.0489  0.3539  0.6687
  132OSM   H14F14318   7.856   2.436   8.046 -0.2294  1.4052 -0.7403
  132OSM   H14G14319   7.785   2.283   8.017  1.5746  0.5776  1.8176
  132OSM   C15F14320   7.669   2.406   8.155 -0.0089  0.1154  0.0030
  132OSM   H15F14321   7.575   2.350   8.137 -1.6491  2.8054 -0.0408
  132OSM   H15G14322   7.636   2.511   8.169 -0.1472  0.2075 -1.0201
  132OSM   C16F14323   7.734   2.347   8.284 -0.0254 -0.2030  0.3309
  132OSM   H16F14324   7.809   2.414   8.331  1.3153  0.1031 -2.1986
  132OSM   H16G14325   7.784   2.248   8.271 -1.3447 -0.4697 -3.2108
  132OSM   C17F14326   7.631   2.328   8.400 -0.0340  0.2002  0.2207
  132OSM   H17F14327   7.561   2.256   8.354 -0.5734 -0.5315  2.1175
  132OSM   H17G14328   7.592   2.432   8.413 -0.9756  0.2082 -2.5218
  132OSM   C18F14329   7.708   2.259   8.513 -0.1178  0.6934 -0.4575
  132OSM   H18F14330   7.798   2.320   8.538  0.1663 -1.1536  3.4332
  132OSM   H18G14331   7.732   2.154   8.487  2.0856  1.1078 -0.2668
  132OSM   H18H14332   7.643   2.244   8.602 -0.8687 -0.1989 -1.1443
  133OSM      N14333   0.696   3.186   6.240  0.2059 -0.1111 -0.0703
  133OSM    C1514334   0.814   3.165   6.326  0.4490 -0.3069 -0.4361
  133OSM   H15A14335   0.824   3.236   6.407  0.8101 -2.0543  1.1014
  133OSM   H15B14336   0.900   3.169   6.261 -0.5329  0.0676 -1.7149
  133OSM   H15C14337   0.809   3.066   6.370 -0.0001 -0.2415 -0.3384
  133OSM    C1414338   0.571   3.148   6.316 -0.8177 -0.3590 -0.2487
  133OSM   H14A14339   0.484   3.140   6.253 -0.9601 -0.9998  0.0251
  133OSM   H14B14340   0.553   3.226   6.388 -0.3251 -0.1570 -0.3348
  133OSM   H14C14341   0.580   3.049   6.357 -1.9168  0.0535  1.0078
  133OSM    C1314342   0.696   3.336   6.222  0.2926 -0.1818  0.2478
  133OSM   H13A14343   0.621   3.355   6.145  0.3150 -0.1714  0.2278
  133OSM   H13B14344   0.786   3.376   6.177  0.4720  1.7949  2.2941
  133OSM   H13C14345   0.678   3.390   6.314  1.6688  1.9130 -0.6692
  133OSM    C1214346   0.711   3.114   6.103  0.2242  1.2524  0.4617
  133OSM   H12A14347   0.793   3.142   6.038 -0.9382  0.5953 -1.3251
  133OSM   H12B14348   0.627   3.147   6.044  0.6049 -0.1946 -0.9270
  133OSM    C1114349   0.698   2.964   6.108 -0.7286 -0.5935  0.7773
  133OSM   H11A14350   0.723   2.926   6.007 -0.1309 -0.8869  1.0270
  133OSM   H11B14351   0.595   2.937   6.137 -1.1098 -2.0461 -1.8118
  133OSM      P14352   0.765   2.782   6.298  0.1521 -0.2769 -0.1261
  133OSM    O1314353   0.671   2.682   6.231 -0.4194 -0.6452 -0.5073
  133OSM    O1414354   0.896   2.736   6.335  0.0477 -0.0961  0.2034
  133OSM    O1114355   0.699   2.847   6.430 -0.4162  0.1666  0.2152
  133OSM    O1214356   0.787   2.903   6.202 -0.1218 -0.2015  0.5742
  133OSM    C1S14357   0.617   2.782   6.533  0.3616  0.1676 -0.5075
  133OSM    H1S14358   0.608   2.672   6.524 -1.4128  0.3623 -1.2322
  133OSM    H1T14359   0.516   2.828   6.526 -0.4686 -1.1024  2.4594
  133OSM     NF14360   0.614   2.717   6.767  0.0128  0.0197  0.3967
  133OSM    HNF14361   0.519   2.728   6.795 -0.9410 -2.0978 -1.8232
  133OSM    C2S14362   0.674   2.806   6.675  0.0883  0.7598  0.5967
  133OSM    H2S14363   0.781   2.779   6.670 -0.2090 -0.3186 -0.1178
  133OSM    C3S14364   0.659   2.963   6.704 -0.9951 -0.4956 -0.1323
  133OSM    H3S14365   0.552   2.989   6.720 -0.9487 -0.4474  0.1045
  133OSM     O314366   0.713   3.053   6.600 -0.6268 -0.7529  0.0578
  133OSM    HO314367   0.716   2.992   6.526  0.7978 -0.2335 -0.3243
  133OSM    C4S14368   0.729   3.000   6.840  0.3809 -0.1397 -0.3582
  133OSM    H4S14369   0.836   2.983   6.858  0.2270 -1.0402 -0.2786
  133OSM    C5S14370   0.653   3.057   6.938 -0.2608 -0.4739 -0.5026
  133OSM    H5S14371   0.547   3.076   6.917  0.0233  0.7097 -0.9154
  133OSM    C6S14372   0.692   3.093   7.077 -0.2394  0.4314  0.5851
  133OSM    H6S14373   0.645   3.187   7.112 -2.7011  0.1571 -1.8555
  133OSM    H6T14374   0.802   3.109   7.077 -0.3098  0.9091  0.6022
  133OSM    C7S14375   0.660   2.986   7.180  0.2403  0.5437  0.3727
  133OSM    H7S14376   0.720   2.896   7.154  0.6869  0.7822  0.5708
  133OSM    H7T14377   0.551   2.965   7.181  0.2863 -0.0986 -2.3690
  133OSM    C8S14378   0.694   3.022   7.332 -0.9931  0.6503  0.4338
  133OSM    H8S14379   0.671   2.932   7.393  2.4716  0.3899  1.4509
  133OSM    H8T14380   0.638   3.111   7.369 -0.7568  0.6227  0.8646
  133OSM    C9S14381   0.843   3.056   7.350  0.0278  0.0554  0.0463
  133OSM    H9S14382   0.876   3.153   7.307  3.5638 -0.0123  2.4061
  133OSM    H9T14383   0.895   2.964   7.315  0.5738  0.6434 -0.6954
  133OSM   C10S14384   0.882   3.067   7.499  0.3282 -0.1953  0.0804
  133OSM   H10S14385   0.841   2.975   7.545 -0.7035 -0.1409 -0.7118
  133OSM   H10T14386   0.847   3.160   7.549  1.9701  0.4141  0.1408
  133OSM   C11S14387   1.038   3.072   7.506  0.0901  0.0642  0.0465
  133OSM   H11S14388   1.062   3.174   7.469 -0.2163 -0.0599 -0.4950
  133OSM   H11T14389   1.078   2.989   7.444  1.8373  0.5100  0.5482
  133OSM   C12S14390   1.096   3.068   7.649  0.6124  0.3046 -0.0578
  133OSM   H12S14391   1.057   3.151   7.711  0.6524 -0.8737  1.5925
  133OSM   H12T14392   1.205   3.088   7.640  0.7804  0.2037  1.5655
  133OSM   C13S14393   1.069   2.940   7.726  0.4909  0.1205 -0.4125
  133OSM   H13S14394   1.115   2.853   7.674  1.4755  1.0248 -1.0754
  133OSM   H13T14395   0.964   2.905   7.730  0.2063  0.9284 -0.6724
  133OSM   C14S14396   1.122   2.954   7.872 -0.4747  0.6111  0.1562
  133OSM   H14S14397   1.080   3.049   7.912  1.2266  1.6334 -0.4078
  133OSM   H14T14398   1.232   2.971   7.866 -0.4652  1.4456  2.2786
  133OSM   C15S14399   1.074   2.833   7.960  1.3311  0.1425  0.0579
  133OSM   H15S14400   1.113   2.738   7.916 -0.6672 -0.3202 -0.7711
  133OSM   H15T14401   0.963   2.830   7.957  1.2376  1.5014  1.5340
  133OSM   C16S14402   1.128   2.851   8.099  0.0307 -0.0391  0.3310
  133OSM   H16S14403   1.116   2.958   8.126  1.1423  0.3620 -0.6942
  133OSM   H16T14404   1.237   2.832   8.090  0.2060  0.4130  1.4207
  133OSM   C17S14405   1.074   2.746   8.201 -0.1561  0.2893 -0.2331
  133OSM   H17S14406   1.098   2.647   8.157 -2.4830  0.2566 -1.5311
  133OSM   H17T14407   0.963   2.744   8.208 -0.1890  0.3842 -0.7359
  133OSM   C18S14408   1.135   2.761   8.337 -0.2350  0.1401  0.0284
  133OSM   H18S14409   1.245   2.772   8.326 -0.0057 -3.2494 -1.5774
  133OSM   H18T14410   1.120   2.676   8.406  1.9564 -1.3167 -1.2619
  133OSM   H18U14411   1.104   2.857   8.385 -0.8660 -0.4922  0.8845
  133OSM    C1F14412   0.649   2.588   6.773  0.7775 -0.0374 -0.0307
  133OSM     OF14413   0.739   2.537   6.706 -0.1206 -0.0955 -0.4907
  133OSM    C2F14414   0.568   2.516   6.868 -0.3678  0.0364  0.2911
  133OSM    H2F14415   0.460   2.542   6.856 -0.4797 -1.1156 -1.3604
  133OSM    H2G14416   0.614   2.549   6.964  2.2327 -0.7242 -0.6653
  133OSM    C3F14417   0.582   2.360   6.852 -0.0429  0.2568  0.6171
  133OSM    H3F14418   0.579   2.337   6.743  2.7848  5.1560 -0.6146
  133OSM    H3G14419   0.499   2.312   6.909 -0.3992  1.0618  0.7745
  133OSM    C4F14420   0.708   2.298   6.910  0.2819 -0.0083  0.2581
  133OSM    H4F14421   0.791   2.371   6.906  0.6676 -0.4241  0.6507
  133OSM    H4G14422   0.742   2.216   6.844  0.1184 -0.7732  1.1228
  133OSM    C5F14423   0.686   2.271   7.062 -0.6555 -0.2399  0.1262
  133OSM    H5F14424   0.756   2.189   7.088  0.0046 -0.3459 -1.8659
  133OSM    H5G14425   0.584   2.232   7.078  0.1091 -3.8117 -2.8823
  133OSM    C6F14426   0.694   2.390   7.167 -0.3676  0.1826 -0.5575
  133OSM    H6F14427   0.612   2.457   7.133 -0.1830 -0.1706 -1.7258
  133OSM    H6G14428   0.788   2.448   7.150  0.1722 -0.6205 -0.3351
  133OSM    C7F14429   0.692   2.344   7.307  0.6500 -0.0552  0.1101
  133OSM    H7F14430   0.706   2.420   7.386  2.7099 -1.1989  0.8823
  133OSM    H7G14431   0.774   2.270   7.314  0.6203 -0.1277 -0.3131
  133OSM    C8F14432   0.565   2.265   7.342 -0.6709  0.6193 -0.4332
  133OSM    H8F14433   0.566   2.164   7.296 -1.9460  0.0074  0.8216
  133OSM    H8G14434   0.477   2.320   7.303 -1.0840 -0.3916 -0.9533
  133OSM    C9F14435   0.546   2.241   7.490  0.6686 -0.3822 -0.2312
  133OSM    H9F14436   0.465   2.303   7.531  2.2869  0.6359  1.5355
  133OSM   C10F14437   0.617   2.159   7.572  0.0995 -0.1973  0.4642
  133OSM   H10F14438   0.570   2.145   7.671 -0.0798 -1.1679  0.2454
  133OSM   C11F14439   0.738   2.080   7.539  0.3247 -0.2348 -0.1833
  133OSM   H11F14440   0.829   2.142   7.553  1.2257 -1.1146 -1.9167
  133OSM   H11G14441   0.745   2.057   7.430  1.6591  0.9824 -0.3746
  133OSM   C12F14442   0.739   1.945   7.611  0.2532 -0.5546 -0.1954
  133OSM   H12F14443   0.832   1.897   7.573  1.3100  1.4394 -0.1786
  133OSM   H12G14444   0.649   1.881   7.599  0.2753 -0.4047 -1.2313
  133OSM   C13F14445   0.773   1.968   7.762  0.0711 -0.7992 -0.0293
  133OSM   H13F14446   0.704   2.044   7.803  0.1430 -0.9544  0.3857
  133OSM   H13G14447   0.871   2.019   7.775 -1.0290  0.9406  1.7385
  133OSM   C14F14448   0.785   1.836   7.835  0.1705 -0.5862  0.0367
  133OSM   H14F14449   0.860   1.781   7.774  0.7599  1.5099 -1.1532
  133OSM   H14G14450   0.685   1.791   7.815 -0.0317  0.1272 -0.5703
  133OSM   C15F14451   0.810   1.835   7.978  0.0905  0.3690 -0.1826
  133OSM   H15F14452   0.737   1.891   8.040 -1.9189 -1.4785 -0.7919
  133OSM   H15G14453   0.911   1.877   7.999  0.9147 -0.9015 -1.4801
  133OSM   C16F14454   0.816   1.690   8.026 -0.2798  0.2570  0.0544
  133OSM   H16F14455   0.885   1.630   7.963  1.2553 -1.7054  3.4621
  133OSM   H16G14456   0.712   1.651   8.035 -1.1983  2.3303 -1.1399
  133OSM   C17F14457   0.894   1.679   8.165 -0.3619  0.5827 -0.7579
  133OSM   H17F14458   0.843   1.728   8.251 -0.0803 -0.2477 -0.1133
  133OSM   H17G14459   0.979   1.749   8.149 -1.9971  2.6900 -0.4194
  133OSM   C18F14460   0.933   1.534   8.208  0.7986 -0.2002 -0.7158
  133OSM   H18F14461   0.998   1.537   8.298 -0.5921 -0.4466  0.3135
  133OSM   H18G14462   0.985   1.479   8.126  1.3105 -0.1122 -0.4521
  133OSM   H18H14463   0.843   1.477   8.239 -1.7092  3.0687 -1.8470
  134OSM      N14464   1.643   6.642   6.559  0.3812 -0.0888  0.0180
  134OSM    C1514465   1.637   6.669   6.710  0.0065  0.3388  0.2585
  134OSM   H15A14466   1.706   6.744   6.745  0.3431 -0.6943  1.8948
  134OSM   H15B14467   1.661   6.580   6.767  1.8911  1.1510  0.7587
  134OSM   H15C14468   1.539   6.709   6.732 -0.3094  0.0017 -0.5300
  134OSM    C1414469   1.525   6.558   6.531  0.1565 -0.8200  1.0037
  134OSM   H14A14470   1.483   6.580   6.434 -0.9638  1.9449  2.0625
  134OSM   H14B14471   1.444   6.587   6.597 -0.1000  1.8737 -0.4017
  134OSM   H14C14472   1.544   6.452   6.535  2.6256 -0.4135  0.6523
  134OSM    C1314473   1.626   6.764   6.478 -0.4945 -0.4080  0.3764
  134OSM   H13A14474   1.702   6.834   6.509 -0.3289 -0.1109 -0.6693
  134OSM   H13B14475   1.525   6.800   6.483  0.1107  1.4447 -0.3939
  134OSM   H13C14476   1.631   6.734   6.375  0.1460  0.2197  0.2235
  134OSM    C1214477   1.772   6.573   6.518  0.2115  0.2513 -0.8411
  134OSM   H12A14478   1.850   6.648   6.509 -0.9862  1.7124  0.5518
  134OSM   H12B14479   1.753   6.524   6.424  0.9451  0.6606 -1.2100
  134OSM    C1114480   1.830   6.451   6.593 -0.6218  0.6886 -0.6727
  134OSM   H11A14481   1.852   6.476   6.699 -0.0745 -0.0832 -0.6091
  134OSM   H11B14482   1.929   6.426   6.550 -0.4843 -1.3315  0.7886
  134OSM      P14483   1.766   6.226   6.489 -0.2769  0.0316  0.3282
  134OSM    O1314484   1.658   6.210   6.390  0.1966 -0.2880 -0.2275
  134OSM    O1414485   1.903   6.230   6.429 -0.4665  0.3886 -0.6264
  134OSM    O1114486   1.757   6.105   6.585  0.3263  0.0500 -0.1487
  134OSM    O1214487   1.738   6.342   6.587 -0.2933 -0.0622  0.4510
  134OSM    C1S14488   1.769   6.131   6.725 -0.8428  0.4843 -0.6271
  134OSM    H1S14489   1.677   6.178   6.766 -0.0467  2.2024 -0.7665
  134OSM    H1T14490   1.854   6.198   6.749 -1.4345  0.4696  1.6506
  134OSM     NF14491   1.830   6.031   6.939  0.2305 -0.0700  0.1227
  134OSM    HNF14492   1.926   6.022   6.965 -0.0266  1.8368  1.8681
  134OSM    C2S14493   1.791   6.000   6.802 -0.9323  0.8225  0.3967
  134OSM    H2S14494   1.704   5.930   6.798  0.1216 -0.5188  0.6138
  134OSM    C3S14495   1.910   5.917   6.739 -0.1554  0.1965  0.4911
  134OSM    H3S14496   2.002   5.977   6.755 -0.4503  0.3361  1.6798
  134OSM     O314497   1.910   5.896   6.598 -0.3151 -0.4780  0.0362
  134OSM    HO314498   1.824   5.932   6.572 -1.4101 -0.8272  2.9418
  134OSM    C4S14499   1.922   5.786   6.805 -0.5045 -0.7097 -0.0981
  134OSM    H4S14500   2.000   5.791   6.882 -1.7034  0.9951  1.0198
  134OSM    C5S14501   1.853   5.675   6.782  0.3968 -0.2792 -0.2062
  134OSM    H5S14502   1.772   5.680   6.708  0.0768 -1.0134  0.0883
  134OSM    C6S14503   1.864   5.546   6.855 -0.3866  0.2350 -0.0506
  134OSM    H6S14504   1.910   5.475   6.782 -2.3813 -0.9849 -0.1514
  134OSM    H6T14505   1.760   5.508   6.862  0.0459 -0.9235  0.2037
  134OSM    C7S14506   1.938   5.536   6.988  0.1357  0.0544  0.1450
  134OSM    H7S14507   2.032   5.593   6.973 -0.5376  1.2107  0.2574
  134OSM    H7T14508   1.963   5.430   7.013 -0.1848 -0.0729 -0.0583
  134OSM    C8S14509   1.861   5.592   7.106 -0.0298 -0.5118  0.1785
  134OSM    H8S14510   1.768   5.533   7.125 -1.4949  0.8106 -2.6317
  134OSM    H8T14511   1.818   5.691   7.083  0.7950 -0.5182 -1.4270
  134OSM    C9S14512   1.942   5.608   7.233 -1.2506 -0.2328 -0.0384
  134OSM    H9S14513   2.027   5.679   7.218 -0.4353 -1.3214 -0.7165
  134OSM    H9T14514   1.981   5.506   7.254  1.6923  0.7784 -0.3267
  134OSM   C10S14515   1.859   5.643   7.366  0.3846 -0.0112 -0.0953
  134OSM   H10S14516   1.787   5.559   7.364 -0.0776  0.4046 -0.8347
  134OSM   H10T14517   1.804   5.736   7.343 -0.9548 -0.8731 -0.4023
  134OSM   C11S14518   1.923   5.631   7.504  0.0617 -0.2858 -0.9093
  134OSM   H11S14519   1.961   5.527   7.511  1.1943  0.2264  0.7105
  134OSM   H11T14520   1.845   5.640   7.582  1.5275 -0.1305  0.5545
  134OSM   C12S14521   2.048   5.727   7.524 -0.0439  0.2200  0.0258
  134OSM   H12S14522   1.993   5.824   7.524  0.0591  0.2784  0.1328
  134OSM   H12T14523   2.113   5.724   7.434  0.1377  2.1428  0.0577
  134OSM   C13S14524   2.115   5.705   7.658 -0.3562 -0.3457  0.3526
  134OSM   H13S14525   2.195   5.782   7.653 -0.8217  0.0712 -0.7776
  134OSM   H13T14526   2.157   5.602   7.657 -0.8677 -0.5638 -1.9586
  134OSM   C14S14527   2.021   5.724   7.783 -0.7165  0.3796  0.1776
  134OSM   H14S14528   1.953   5.637   7.783  0.9828 -0.9917  1.4929
  134OSM   H14T14529   1.957   5.811   7.755 -0.8572  0.5497  1.0412
  134OSM   C15S14530   2.105   5.739   7.919 -0.4780  0.2147  0.3616
  134OSM   H15S14531   2.181   5.819   7.909  3.2351 -3.2341 -0.1131
  134OSM   H15T14532   2.166   5.647   7.923  0.4957  0.7607 -1.7139
  134OSM   C16S14533   2.004   5.748   8.039  0.2115  0.1396 -0.0646
  134OSM   H16S14534   1.932   5.666   8.015 -0.7094  1.3796 -1.6976
  134OSM   H16T14535   1.951   5.843   8.018 -0.4602  0.0416  1.1874
  134OSM   C17S14536   2.058   5.748   8.180  0.0161 -0.7106  0.8503
  134OSM   H17S14537   2.129   5.831   8.195 -1.9645  1.4088 -1.0908
  134OSM   H17T14538   2.106   5.651   8.206 -0.0574 -0.7123  0.9803
  134OSM   C18S14539   1.947   5.772   8.284  0.3738 -0.2206 -0.7692
  134OSM   H18S14540   1.992   5.803   8.381  0.5715 -0.1061 -0.8981
  134OSM   H18T14541   1.897   5.673   8.290 -3.6211  1.8052  1.3431
  134OSM   H18U14542   1.876   5.852   8.253  0.7374  0.9731  1.3863
  134OSM    C1F14543   1.742   6.072   7.031  0.6607 -0.0438 -0.9069
  134OSM     OF14544   1.624   6.081   7.001  0.1624 -0.1541  0.4441
  134OSM    C2F14545   1.785   6.108   7.175  0.1169 -0.7815 -0.0914
  134OSM    H2F14546   1.784   6.219   7.180  1.9566 -0.7265 -0.3511
  134OSM    H2G14547   1.890   6.076   7.192 -0.6807 -3.8371 -0.6942
  134OSM    C3F14548   1.703   6.038   7.277  0.1086 -0.1829  0.5445
  134OSM    H3F14549   1.705   5.927   7.272  1.0713 -0.2111  1.2094
  134OSM    H3G14550   1.596   6.067   7.270 -0.1962 -1.4645 -0.2587
  134OSM    C4F14551   1.742   6.089   7.423  0.3906 -0.2951 -0.1191
  134OSM    H4F14552   1.722   6.198   7.431 -1.1283 -0.3633 -2.4672
  134OSM    H4G14553   1.850   6.067   7.440  0.1761 -0.5312  0.9626
  134OSM    C5F14554   1.670   6.015   7.533 -0.4714  0.0663  0.5589
  134OSM    H5F14555   1.691   5.906   7.533  5.9317  1.1075  2.3324
  134OSM    H5G14556   1.560   6.030   7.527 -0.7321 -1.7215  0.5248
  134OSM    C6F14557   1.730   6.061   7.672 -0.3838  1.1148 -0.1590
  134OSM    H6F14558   1.721   6.171   7.673  4.4426  1.6164 -1.6015
  134OSM    H6G14559   1.839   6.038   7.671 -0.3695  1.1209 -3.3711
  134OSM    C7F14560   1.665   5.985   7.780  0.2833 -0.2506  0.0859
  134OSM    H7F14561   1.685   5.877   7.767  0.2902 -0.3276  0.7193
  134OSM    H7G14562   1.555   5.998   7.768  0.1208 -0.9271  0.8753
  134OSM    C8F14563   1.700   6.033   7.917  0.1058  0.2953 -0.0826
  134OSM    H8F14564   1.689   6.144   7.923  0.4419  0.3879 -1.1756
  134OSM    H8G14565   1.809   6.018   7.923  0.5281  3.1244  0.1052
  134OSM    C9F14566   1.626   5.961   8.021  0.3867 -0.2140 -0.3599
  134OSM    H9F14567   1.598   5.861   7.984  0.5846 -0.3693 -0.0894
  134OSM   C10F14568   1.578   6.003   8.138  0.8319 -0.5055  0.6284
  134OSM   H10F14569   1.510   5.934   8.192 -2.2063  1.0219 -1.0824
  134OSM   C11F14570   1.592   6.147   8.193 -0.3314 -0.5954  0.0772
  134OSM   H11F14571   1.500   6.195   8.233  0.6419  0.3390  1.2502
  134OSM   H11G14572   1.628   6.215   8.114  1.4533 -2.3846 -0.7042
  134OSM   C12F14573   1.683   6.152   8.318 -0.9749  0.5919 -0.5615
  134OSM   H12F14574   1.691   6.253   8.364 -1.8385  0.3700  0.1050
  134OSM   H12G14575   1.789   6.134   8.290 -1.1571  0.6095 -1.2682
  134OSM   C13F14576   1.642   6.038   8.418  0.1505  0.0534  0.2920
  134OSM   H13F14577   1.689   5.942   8.388  0.9903  0.3986  0.4766
  134OSM   H13G14578   1.534   6.025   8.401  0.3559 -0.0958 -0.8983
  134OSM   C14F14579   1.660   6.079   8.571  0.1939 -1.4234 -0.0324
  134OSM   H14F14580   1.668   6.189   8.574 -1.4828 -1.2678 -0.6814
  134OSM   H14G14581   1.758   6.039   8.605  0.3781 -0.2064  0.9127
  134OSM   C15F14582   1.542   6.032   8.658  0.2211  0.0727 -0.4562
  134OSM   H15F14583   1.449   6.079   8.620  1.0210  2.2234  0.1420
  134OSM   H15G14584   1.564   6.077   8.758  1.7367 -1.7818  0.0785
  134OSM   C16F14585   1.520   5.881   8.677 -0.4207  0.2510  0.1315
  134OSM   H16F14586   1.605   5.840   8.736 -0.3291  0.1969 -0.0378
  134OSM   H16G14587   1.523   5.829   8.579  0.5199  1.5086 -0.5237
  134OSM   C17F14588   1.393   5.847   8.747  0.6764  0.2736  0.1634
  134OSM   H17F14589   1.316   5.915   8.704 -0.1607  0.8609  2.4961
  134OSM   H17G14590   1.389   5.869   8.856 -0.7857 -0.4711  0.2735
  134OSM   C18F14591   1.357   5.702   8.727  0.1189  0.3606 -0.6023
  134OSM   H18F14592   1.437   5.647   8.781 -1.2276  0.2180  1.2729
  134OSM   H18G14593   1.347   5.677   8.619  2.6202  0.1028 -0.8019
  134OSM   H18H14594   1.265   5.677   8.784  1.3308 -3.4667 -0.1593
  135OSM      N14595   1.137   6.411   6.100 -0.0351 -0.1018 -0.5015
  135OSM    C1514596   1.223   6.534   6.094 -0.5463  0.0938  0.4176
  135OSM   H15A14597   1.166   6.624   6.111  0.3625  0.7945 -0.1788
  135OSM   H15B14598   1.261   6.548   5.994 -0.9850 -1.0158  0.0878
  135OSM   H15C14599   1.312   6.527   6.155  1.6189 -0.6604 -2.6789
  135OSM    C1414600   1.032   6.433   5.998 -0.9095  0.0040  0.5628
  135OSM   H14A14601   1.070   6.435   5.897  0.5830 -0.1566  1.1045
  135OSM   H14B14602   0.970   6.518   6.021 -1.3722  0.4168 -2.1259
  135OSM   H14C14603   0.969   6.346   6.012  1.2112 -1.3093  2.3093
  135OSM    C1314604   1.215   6.287   6.070  0.2949 -0.4732 -0.0402
  135OSM   H13A14605   1.253   6.294   5.969  2.1991 -0.0364  0.6772
  135OSM   H13B14606   1.166   6.192   6.077  0.8046 -0.7403 -0.0381
  135OSM   H13C14607   1.290   6.280   6.148  1.0603  0.0038 -0.7203
  135OSM    C1214608   1.073   6.394   6.244  0.2584  0.5883 -0.6516
  135OSM   H12A14609   1.021   6.300   6.234 -0.5791  0.7886  1.4833
  135OSM   H12B14610   0.994   6.468   6.253 -0.4183 -0.0610 -1.1871
  135OSM    C1114611   1.172   6.398   6.368  0.4416 -0.4773  0.6269
  135OSM   H11A14612   1.105   6.390   6.457  1.2420 -0.8323  1.2141
  135OSM   H11B14613   1.223   6.496   6.362  0.4696 -0.6173 -1.4935
  135OSM      P14614   1.225   6.142   6.399  0.0390  0.2673 -0.5103
  135OSM    O1314615   1.082   6.118   6.358 -0.1969 -0.5583  0.3773
  135OSM    O1414616   1.324   6.051   6.338  0.4565 -0.2533  0.1852
  135OSM    O1114617   1.234   6.128   6.553  0.3816  0.4645 -0.5968
  135OSM    O1214618   1.268   6.291   6.361 -0.9274  0.1681 -0.1934
  135OSM    C1S14619   1.347   6.187   6.621  0.6994 -0.9617  0.3525
  135OSM    H1S14620   1.356   6.295   6.596 -2.6941 -0.5865  0.4713
  135OSM    H1T14621   1.443   6.148   6.580 -0.2600 -1.9292 -1.0289
  135OSM     NF14622   1.431   6.222   6.846  0.0910  0.6997  0.4565
  135OSM    HNF14623   1.511   6.176   6.882  1.5217 -1.2794 -4.7157
  135OSM    C2S14624   1.331   6.156   6.768  0.1864  0.8986  0.7294
  135OSM    H2S14625   1.232   6.198   6.794  0.4011  1.5973  0.4200
  135OSM    C3S14626   1.340   6.002   6.794 -0.1912 -0.7393  0.2926
  135OSM    H3S14627   1.442   5.976   6.758 -0.6366  0.0491 -1.6025
  135OSM     O314628   1.261   5.922   6.706 -0.0057 -0.5284 -0.2664
  135OSM    HO314629   1.236   5.984   6.638 -1.1302 -1.9625 -1.1963
  135OSM    C4S14630   1.317   5.968   6.934 -0.2548  0.0394  0.3026
  135OSM    H4S14631   1.411   5.963   6.991 -0.0481 -2.6182 -0.1952
  135OSM    C5S14632   1.205   5.937   7.006 -0.3980 -0.2989 -0.1602
  135OSM    H5S14633   1.103   5.954   6.967 -0.2523  2.8247  0.7055
  135OSM    C6S14634   1.206   5.912   7.156  0.1875 -0.1289 -0.3616
  135OSM    H6S14635   1.265   5.824   7.188 -1.1165 -1.6340 -1.9634
  135OSM    H6T14636   1.100   5.885   7.177  0.3976 -1.2076 -0.6669
  135OSM    C7S14637   1.245   6.022   7.249  0.0073  0.3308  0.1098
  135OSM    H7S14638   1.197   6.118   7.217  1.0347  1.0574  0.7107
  135OSM    H7T14639   1.355   6.038   7.243 -0.0026  1.2635  2.0399
  135OSM    C8S14640   1.223   5.985   7.393 -0.7277 -0.1124 -0.5296
  135OSM    H8S14641   1.304   5.915   7.423 -1.3108 -1.6983 -2.5615
  135OSM    H8T14642   1.122   5.942   7.408  0.1663 -1.6492  1.3312
  135OSM    C9S14643   1.232   6.116   7.482 -0.3963  0.7505  0.1313
  135OSM    H9S14644   1.144   6.182   7.466 -0.7372  0.2303 -0.1402
  135OSM    H9T14645   1.323   6.168   7.447  1.0333 -2.4685 -1.1317
  135OSM   C10S14646   1.242   6.082   7.634  0.5137 -0.4039 -0.6142
  135OSM   H10S14647   1.329   6.014   7.648 -1.1838 -1.8115  3.6914
  135OSM   H10T14648   1.160   6.009   7.650  2.1627 -2.7350 -2.4068
  135OSM   C11S14649   1.254   6.203   7.723 -0.3119  1.0193  0.2664
  135OSM   H11S14650   1.174   6.278   7.703  0.8461  2.2215  0.0819
  135OSM   H11T14651   1.349   6.253   7.694  1.0148 -1.6719 -0.2444
  135OSM   C12S14652   1.252   6.154   7.866 -0.8829 -0.0593  0.2191
  135OSM   H12S14653   1.280   6.244   7.924  0.0641 -0.1333 -0.1086
  135OSM   H12T14654   1.330   6.075   7.870 -0.0594  0.7446  0.3526
  135OSM   C13S14655   1.113   6.098   7.910 -0.3382  0.1604 -0.5275
  135OSM   H13S14656   1.104   5.992   7.878  0.3848 -0.3739  0.9818
  135OSM   H13T14657   1.044   6.175   7.868  0.3100  1.8438  1.3639
  135OSM   C14S14658   1.099   6.107   8.063  0.4265 -0.1025  0.4102
  135OSM   H14S14659   1.004   6.065   8.101  1.2330  1.0370  3.8252
  135OSM   H14T14660   1.084   6.214   8.089 -0.9775 -0.3439  0.6511
  135OSM   C15S14661   1.213   6.046   8.145  0.1625  0.2453 -0.0453
  135OSM   H15S14662   1.308   6.099   8.125 -0.3623  0.7224 -1.3371
  135OSM   H15T14663   1.231   5.942   8.112  0.7707  0.4350 -0.3089
  135OSM   C16S14664   1.192   6.039   8.300 -0.5681  0.4623  0.4559
  135OSM   H16S14665   1.154   6.138   8.333 -0.1663  0.1660  1.8465
  135OSM   H16T14666   1.298   6.015   8.323 -1.0727 -0.0793  2.2807
  135OSM   C17S14667   1.096   5.924   8.337  0.1481  0.2632  0.3916
  135OSM   H17S14668   1.148   5.851   8.272  4.0616  2.7250  0.5695
  135OSM   H17T14669   0.991   5.945   8.305 -0.2286  1.0585  2.0983
  135OSM   C18S14670   1.099   5.876   8.480  0.2771  0.3274 -0.7428
  135OSM   H18S14671   1.205   5.852   8.503 -0.4994  0.5616  3.5565
  135OSM   H18T14672   1.026   5.792   8.485 -0.5784  1.1127  0.3315
  135OSM   H18U14673   1.079   5.954   8.557 -0.2356 -2.3913  1.9839
  135OSM    C1F14674   1.429   6.357   6.870  0.0016  0.0722  0.2833
  135OSM     OF14675   1.337   6.433   6.833 -1.0112  0.1436 -0.1204
  135OSM    C2F14676   1.551   6.402   6.953  0.0361  0.7974 -0.3563
  135OSM    H2F14677   1.637   6.409   6.883 -0.6213 -3.0287 -1.6258
  135OSM    H2G14678   1.564   6.323   7.030 -1.1153  1.8299  0.9195
  135OSM    C3F14679   1.524   6.538   7.014  0.2670  0.2607  0.0958
  135OSM    H3F14680   1.442   6.522   7.087  0.3548 -1.0218 -0.0892
  135OSM    H3G14681   1.483   6.614   6.944 -0.3123  1.4245  1.6704
  135OSM    C4F14682   1.650   6.600   7.085  0.2204  0.0640  0.1575
  135OSM    H4F14683   1.645   6.706   7.117 -0.3386  0.5015 -1.3377
  135OSM    H4G14684   1.734   6.605   7.013 -0.4707 -2.9737 -0.9155
  135OSM    C5F14685   1.693   6.511   7.207 -0.2416 -0.2759 -0.0314
  135OSM    H5F14686   1.795   6.552   7.225 -1.4729  3.5923 -1.4830
  135OSM    H5G14687   1.696   6.403   7.183 -2.4368 -0.2493 -0.5754
  135OSM    C6F14688   1.607   6.537   7.333 -0.6431  0.7831  0.1517
  135OSM    H6F14689   1.525   6.462   7.323 -1.4425  1.9679 -3.0574
  135OSM    H6G14690   1.565   6.640   7.332  2.1238  2.0189  3.5141
  135OSM    C7F14691   1.668   6.519   7.466 -0.3602 -0.2720 -1.6001
  135OSM    H7F14692   1.770   6.562   7.463 -0.8502  1.6479  3.4890
  135OSM    H7G14693   1.691   6.411   7.485 -0.6327 -0.2654 -1.2210
  135OSM    C8F14694   1.575   6.569   7.584 -0.2504 -0.8432  1.2613
  135OSM    H8F14695   1.481   6.512   7.594 -2.6413  2.4140 -1.4774
  135OSM    H8G14696   1.532   6.667   7.555  0.9181 -0.6930 -0.0134
  135OSM    C9F14697   1.649   6.599   7.719 -0.8939  0.4073 -0.0645
  135OSM    H9F14698   1.731   6.671   7.706 -0.3510  0.0254  1.1490
  135OSM   C10F14699   1.625   6.545   7.842 -0.2664 -0.4129 -0.2581
  135OSM   H10F14700   1.695   6.569   7.923  0.2362  0.0663 -0.8245
  135OSM   C11F14701   1.512   6.450   7.863 -0.7610  0.1881  0.5014
  135OSM   H11F14702   1.535   6.384   7.949  1.8087 -1.6397 -1.5064
  135OSM   H11G14703   1.484   6.383   7.779  1.3994 -0.8003  0.5437
  135OSM   C12F14704   1.390   6.539   7.901 -0.5289  0.2172 -0.4060
  135OSM   H12F14705   1.299   6.475   7.909 -1.0794  1.0849  0.3964
  135OSM   H12G14706   1.371   6.621   7.829  0.8147  0.4095 -0.5504
  135OSM   C13F14707   1.392   6.611   8.033  0.8679  0.8967 -0.2542
  135OSM   H13F14708   1.287   6.647   8.044  0.1266 -0.7295 -1.8583
  135OSM   H13G14709   1.445   6.709   8.028 -0.6385  1.6644 -1.7693
  135OSM   C14F14710   1.446   6.532   8.158  0.0990  0.1342 -0.1413
  135OSM   H14F14711   1.554   6.543   8.180 -0.4674 -1.4603  3.9874
  135OSM   H14G14712   1.432   6.422   8.152  0.7225 -0.1143  2.3801
  135OSM   C15F14713   1.369   6.600   8.270 -0.0883  0.2303  0.3545
  135OSM   H15F14714   1.260   6.581   8.266  0.2657 -1.7482 -1.3928
  135OSM   H15G14715   1.390   6.709   8.265  0.6423  0.1733  1.9634
  135OSM   C16F14716   1.419   6.547   8.410  0.4655 -0.1454  0.3900
  135OSM   H16F14717   1.383   6.635   8.468 -1.5630 -0.8185  0.1882
  135OSM   H16G14718   1.530   6.551   8.407  0.4469  0.3421  0.3104
  135OSM   C17F14719   1.354   6.414   8.454  0.7830  0.5135  0.5025
  135OSM   H17F14720   1.375   6.333   8.382  1.0782  0.0618  1.0975
  135OSM   H17G14721   1.248   6.446   8.446  0.6516 -0.1229 -0.3312
  135OSM   C18F14722   1.379   6.373   8.603  0.1725  0.4153  0.3753
  135OSM   H18F14723   1.361   6.453   8.678  2.7087  1.3461  0.0432
  135OSM   H18G14724   1.485   6.340   8.608  0.6774  1.5557 -1.8890
  135OSM   H18H14725   1.313   6.291   8.636  0.5227 -0.4009 -0.9191
  136OSM      N14726   6.473   0.365   5.868 -0.5848 -0.5718  0.0934
  136OSM    C1514727   6.363   0.371   5.768  0.6329 -0.1315  0.7986
  136OSM   H15A14728   6.279   0.426   5.807 -0.7908 -2.3681  0.9414
  136OSM   H15B14729   6.337   0.267   5.754  0.5272 -0.1086  0.8248
  136OSM   H15C14730   6.394   0.419   5.676 -1.3526  0.5668  0.4808
  136OSM    C1414731   6.578   0.268   5.821  0.6698 -0.6686 -0.4742
  136OSM   H14A14732   6.614   0.287   5.721 -1.0369 -2.9995 -1.5797
  136OSM   H14B14733   6.536   0.169   5.820  1.5026 -1.0177 -0.8442
  136OSM   H14C14734   6.661   0.273   5.889 -1.9670  0.3106  2.8284
  136OSM    C1314735   6.543   0.498   5.884 -0.2982 -0.0824 -0.1061
  136OSM   H13A14736   6.473   0.579   5.896 -1.0009 -0.6879 -0.0940
  136OSM   H13B14737   6.598   0.533   5.799  0.5243 -0.1456  0.3935
  136OSM   H13C14738   6.609   0.498   5.970  0.5190 -3.4124 -0.6502
  136OSM    C1214739   6.418   0.310   5.999  1.6735  0.4684  0.3109
  136OSM   H12A14740   6.490   0.299   6.078  3.0348  0.3568 -0.9255
  136OSM   H12B14741   6.372   0.216   5.974  0.3954  1.1212  0.1394
  136OSM    C1114742   6.296   0.383   6.066 -0.4867 -0.2112  0.2552
  136OSM   H11A14743   6.248   0.318   6.142  0.4896 -1.3143 -0.0596
  136OSM   H11B14744   6.215   0.414   5.996  1.7117  4.7411 -0.2925
  136OSM      P14745   6.455   0.517   6.236  0.6704 -0.2300  0.2090
  136OSM    O1314746   6.564   0.420   6.210  0.0305  0.0996  0.0862
  136OSM    O1414747   6.497   0.655   6.257  1.2528 -0.1298 -0.3307
  136OSM    O1114748   6.369   0.465   6.362  0.0111  0.6382 -0.0250
  136OSM    O1214749   6.343   0.510   6.119 -0.1082 -0.5611  0.0147
  136OSM    C1S14750   6.410   0.499   6.500 -0.1172  0.1423 -0.2281
  136OSM    H1S14751   6.451   0.602   6.499  0.0218  0.0845 -0.4092
  136OSM    H1T14752   6.497   0.437   6.529 -0.1861  0.8371  1.4783
  136OSM     NF14753   6.351   0.532   6.738 -0.0208  0.2378  0.3357
  136OSM    HNF14754   6.395   0.461   6.792 -2.1659 -1.4392 -0.0372
  136OSM    C2S14755   6.301   0.491   6.610 -0.2525 -0.6243 -0.2366
  136OSM    H2S14756   6.218   0.561   6.585 -0.2590  0.9078  3.7822
  136OSM    C3S14757   6.239   0.349   6.618 -0.3383 -0.4206  0.6150
  136OSM    H3S14758   6.300   0.272   6.671  0.7002 -1.1701 -1.6240
  136OSM     O314759   6.198   0.294   6.494 -0.2615  0.2037 -0.8248
  136OSM    HO314760   6.254   0.336   6.428  0.8472 -0.5210 -0.3629
  136OSM    C4S14761   6.122   0.350   6.710 -0.0747  0.2729  0.4723
  136OSM    H4S14762   6.035   0.388   6.655 -0.4465 -1.7806 -0.4130
  136OSM    C5S14763   6.125   0.304   6.834 -0.3840 -0.0111  0.0790
  136OSM    H5S14764   6.224   0.267   6.865 -1.1588  0.0099  2.7171
  136OSM    C6S14765   6.012   0.312   6.935  1.1299 -0.5810 -0.1178
  136OSM    H6S14766   5.973   0.211   6.962  1.1096 -0.7244 -0.6719
  136OSM    H6T14767   5.927   0.369   6.892 -0.1597 -0.8614  1.9627
  136OSM    C7S14768   6.054   0.383   7.065  0.1679 -0.1582  0.5986
  136OSM    H7S14769   6.094   0.483   7.037 -0.7083  0.1067  0.2766
  136OSM    H7T14770   6.128   0.328   7.127  0.9364 -0.8228 -0.8987
  136OSM    C8S14771   5.940   0.402   7.158 -0.0257 -0.0929  0.5853
  136OSM    H8S14772   5.877   0.312   7.177 -1.5919  1.0469  0.9135
  136OSM    H8T14773   5.871   0.481   7.121  1.5906  0.5351 -1.1388
  136OSM    C9S14774   5.999   0.450   7.298  0.0371  0.6496  0.1737
  136OSM    H9S14775   6.065   0.537   7.276  0.2208  0.1444 -1.3143
  136OSM    H9T14776   6.069   0.376   7.340 -0.5389  1.1649  2.1128
  136OSM   C10S14777   5.881   0.482   7.385 -0.9480 -0.0976 -0.5041
  136OSM   H10S14778   5.828   0.385   7.398  0.7880 -0.7724  2.0053
  136OSM   H10T14779   5.820   0.556   7.329 -2.0183 -0.7996 -0.2706
  136OSM   C11S14780   5.919   0.529   7.531 -0.0447 -0.1071  0.0562
  136OSM   H11S14781   5.970   0.627   7.529 -0.8744  0.3145 -0.4755
  136OSM   H11T14782   5.979   0.448   7.578  2.3288  0.4162 -1.9667
  136OSM   C12S14783   5.794   0.545   7.615  0.4024  0.3677  0.1128
  136OSM   H12S14784   5.728   0.456   7.611  0.9402 -0.0396  0.3220
  136OSM   H12T14785   5.732   0.624   7.568  0.2583  0.5335  0.5827
  136OSM   C13S14786   5.840   0.598   7.752 -0.2715 -0.9221 -0.1108
  136OSM   H13S14787   5.875   0.702   7.736 -1.5730 -0.3522  0.5854
  136OSM   H13T14788   5.927   0.542   7.792  0.4484  0.6140  0.4941
  136OSM   C14S14789   5.734   0.597   7.862  0.5835 -0.6524 -0.4469
  136OSM   H14S14790   5.675   0.503   7.856  1.1148 -0.9095 -1.7351
  136OSM   H14T14791   5.660   0.675   7.836 -1.6338 -2.0040  1.5907
  136OSM   C15S14792   5.791   0.622   8.002  0.0670  0.0571 -0.1169
  136OSM   H15S14793   5.699   0.633   8.063 -2.0059 -3.4248 -2.4305
  136OSM   H15T14794   5.865   0.702   8.024  1.0362 -0.8467  0.0016
  136OSM   C16S14795   5.852   0.494   8.074  0.0858 -0.5318  0.0065
  136OSM   H16S14796   5.949   0.483   8.021  0.4838 -1.3328  0.8787
  136OSM   H16T14797   5.790   0.405   8.050 -1.3893  0.8496 -1.3466
  136OSM   C17S14798   5.857   0.495   8.225  0.6463 -0.0375  0.3932
  136OSM   H17S14799   5.883   0.393   8.260  0.1134 -0.4215 -0.3013
  136OSM   H17T14800   5.759   0.516   8.274  0.3234  0.2361 -0.3607
  136OSM   C18S14801   5.947   0.600   8.284 -0.1152  0.4218 -0.5600
  136OSM   H18S14802   5.953   0.591   8.395  1.0228  0.6147 -0.5995
  136OSM   H18T14803   5.925   0.707   8.264 -1.1827 -0.2652 -3.1800
  136OSM   H18U14804   6.050   0.575   8.252  0.2039  0.9288  0.0729
  136OSM    C1F14805   6.374   0.663   6.765  0.0040  0.4326  0.3752
  136OSM     OF14806   6.348   0.748   6.679  0.1699  0.4240  0.7104
  136OSM    C2F14807   6.437   0.694   6.893  0.2604 -0.4123  0.3003
  136OSM    H2F14808   6.391   0.792   6.917 -0.1469 -0.0884 -1.6768
  136OSM    H2G14809   6.544   0.715   6.874 -0.6791  2.2629 -2.3156
  136OSM    C3F14810   6.405   0.603   7.004  0.4610 -0.1388 -0.7295
  136OSM    H3F14811   6.440   0.501   6.978  1.2387 -0.2296  0.6007
  136OSM    H3G14812   6.298   0.589   7.028  0.5498  1.2889  0.5840
  136OSM    C4F14813   6.495   0.642   7.120 -0.7673  0.1643  0.4082
  136OSM    H4F14814   6.437   0.724   7.168  1.5550  1.3572  1.2564
  136OSM    H4G14815   6.594   0.677   7.085 -1.1624  0.7997 -0.0904
  136OSM    C5F14816   6.526   0.526   7.214  0.1919  0.3214  0.3523
  136OSM    H5F14817   6.599   0.548   7.296  0.1597 -0.4699  0.5957
  136OSM    H5G14818   6.574   0.450   7.149 -0.6633  0.5487 -0.5546
  136OSM    C6F14819   6.401   0.459   7.280 -1.2975 -0.1370  0.3186
  136OSM    H6F14820   6.446   0.368   7.324  0.1031 -1.3911 -3.4690
  136OSM    H6G14821   6.332   0.421   7.201 -0.6217  0.3094 -0.4950
  136OSM    C7F14822   6.330   0.556   7.385  0.0641  0.1250  0.2130
  136OSM    H7F14823   6.259   0.478   7.421 -0.0862 -0.3468 -1.0724
  136OSM    H7G14824   6.275   0.626   7.320  1.0091  1.1250  0.4744
  136OSM    C8F14825   6.398   0.608   7.509 -0.0146 -0.0203 -0.0674
  136OSM    H8F14826   6.342   0.701   7.529  1.1350  1.4666 -3.3827
  136OSM    H8G14827   6.500   0.636   7.475  0.5909 -1.1780  0.7685
  136OSM    C9F14828   6.420   0.522   7.629 -0.3262 -0.2848 -0.2817
  136OSM    H9F14829   6.475   0.429   7.609  2.3184  1.0273  0.6378
  136OSM   C10F14830   6.393   0.548   7.758 -0.1796  0.3190 -0.7881
  136OSM   H10F14831   6.405   0.458   7.820  1.7030  0.4837 -0.8839
  136OSM   C11F14832   6.335   0.671   7.820 -0.6067 -0.5168  0.8711
  136OSM   H11F14833   6.240   0.712   7.780  0.4336  2.1123  0.9907
  136OSM   H11G14834   6.416   0.744   7.796  0.3876 -1.9619 -0.2504
  136OSM   C12F14835   6.303   0.663   7.970 -0.4798 -0.2585 -0.2758
  136OSM   H12F14836   6.386   0.613   8.026  0.3738 -0.0984 -1.3801
  136OSM   H12G14837   6.210   0.607   7.993 -0.6143 -0.0724 -0.3676
  136OSM   C13F14838   6.273   0.802   8.023 -0.4048 -0.6385 -0.0773
  136OSM   H13F14839   6.185   0.842   7.968  0.2876 -3.2134 -3.2373
  136OSM   H13G14840   6.360   0.871   8.010 -0.9164 -0.0045 -0.1607
  136OSM   C14F14841   6.256   0.816   8.175  0.9511 -0.1088 -0.2159
  136OSM   H14F14842   6.155   0.789   8.213  0.8233  1.2703  0.4858
  136OSM   H14G14843   6.258   0.924   8.201  0.0587  0.3797 -2.1034
  136OSM   C15F14844   6.353   0.727   8.255  0.0516 -0.0886  0.0651
  136OSM   H15F14845   6.455   0.758   8.223  0.7565 -0.5949  1.7774
  136OSM   H15G14846   6.335   0.623   8.220 -3.1275  0.9430 -1.5555
  136OSM   C16F14847   6.325   0.734   8.402 -0.0535  0.0274  0.4026
  136OSM   H16F14848   6.232   0.675   8.412  0.1836 -0.3456  0.4055
  136OSM   H16G14849   6.311   0.838   8.440  0.3300  0.1562  0.2016
  136OSM   C17F14850   6.441   0.674   8.487 -0.2276 -0.8483 -0.3587
  136OSM   H17F14851   6.396   0.680   8.589 -3.1008  0.1482 -1.6454
  136OSM   H17G14852   6.536   0.733   8.486 -0.0036 -1.2103 -0.3461
  136OSM   C18F14853   6.483   0.534   8.459  0.0719 -0.1542 -0.3714
  136OSM   H18F14854   6.522   0.513   8.358  1.4015 -2.8160  0.6405
  136OSM   H18G14855   6.395   0.466   8.466  1.2898 -1.8484 -1.2843
  136OSM   H18H14856   6.556   0.503   8.537 -1.3118 -1.5990  0.3818
  137OSM      N14857   2.872   5.228   6.429 -0.1120 -0.1781 -0.2140
  137OSM    C1514858   2.974   5.226   6.533  0.2405 -0.4044  0.1883
  137OSM   H15A14859   2.977   5.323   6.582 -0.6067  0.1423 -0.8397
  137OSM   H15B14860   3.075   5.191   6.513  0.1466 -0.7807  0.3698
  137OSM   H15C14861   2.940   5.162   6.613 -0.6101  1.5607  1.4431
  137OSM    C1414862   2.739   5.219   6.499 -0.6989 -0.1845  0.5105
  137OSM   H14A14863   2.656   5.263   6.444 -0.7718  1.1542  1.6405
  137OSM   H14B14864   2.747   5.276   6.590  2.6811  0.0683  0.0945
  137OSM   H14C14865   2.715   5.118   6.528  1.1224 -0.2903  1.6531
  137OSM    C1314866   2.876   5.359   6.360  0.8974 -0.6170  0.0240
  137OSM   H13A14867   2.835   5.434   6.426  0.4277  0.2854 -1.2713
  137OSM   H13B14868   2.810   5.361   6.275 -0.5855 -4.2655  1.0046
  137OSM   H13C14869   2.973   5.391   6.325  1.2006  0.8538  2.0964
  137OSM    C1214870   2.903   5.116   6.329 -0.4617 -0.2073  0.0431
  137OSM   H12A14871   3.009   5.117   6.308 -0.1118 -2.9620  1.3990
  137OSM   H12B14872   2.869   5.147   6.232  0.7540  1.4407  0.1230
  137OSM    C1114873   2.869   4.973   6.367  0.1080 -0.1960  0.5171
  137OSM   H11A14874   2.924   4.956   6.462  2.4101  0.5288 -0.6653
  137OSM   H11B14875   2.897   4.900   6.288  0.0892  0.6877 -0.3149
  137OSM      P14876   2.684   4.801   6.416  0.4464 -0.4819 -0.2451
  137OSM    O1314877   2.535   4.806   6.417 -0.5967  0.4061  0.0176
  137OSM    O1414878   2.744   4.719   6.310 -0.1119  0.3586  0.5057
  137OSM    O1114879   2.733   4.759   6.556 -0.7769 -0.3791 -0.4850
  137OSM    O1214880   2.730   4.955   6.389  0.0975  0.1598 -0.7781
  137OSM    C1S14881   2.719   4.819   6.687  0.2277  0.4881  0.0177
  137OSM    H1S14882   2.723   4.930   6.675 -1.2926  0.3246 -2.1474
  137OSM    H1T14883   2.811   4.807   6.749  0.1585 -1.1039 -0.1794
  137OSM     NF14884   2.591   4.842   6.890  0.6841 -0.6902 -0.4155
  137OSM    HNF14885   2.642   4.798   6.964  1.5839 -1.8522 -1.6947
  137OSM    C2S14886   2.585   4.781   6.759  0.3095 -0.1799 -0.1722
  137OSM    H2S14887   2.500   4.821   6.699  2.1984  0.7810 -2.2639
  137OSM    C3S14888   2.553   4.630   6.761  0.0715  0.0433 -0.7519
  137OSM    H3S14889   2.632   4.579   6.819 -0.9303 -1.3693 -0.6042
  137OSM     O314890   2.559   4.561   6.636 -0.1289  0.8113  0.5608
  137OSM    HO314891   2.609   4.619   6.579  1.9469 -2.4437 -1.0540
  137OSM    C4S14892   2.414   4.604   6.819 -0.1457 -0.5914  0.6087
  137OSM    H4S14893   2.334   4.620   6.745  1.1025 -1.9359 -1.0598
  137OSM    C5S14894   2.400   4.558   6.947 -0.0436  0.0451  0.0306
  137OSM    H5S14895   2.487   4.535   7.010  0.2822 -0.3242 -0.5433
  137OSM    C6S14896   2.269   4.534   7.018 -0.2999 -0.0153 -0.8591
  137OSM    H6S14897   2.262   4.436   7.070 -2.2828 -2.0119 -4.6748
  137OSM    H6T14898   2.179   4.532   6.953  1.0979  0.0166 -2.8381
  137OSM    C7S14899   2.253   4.639   7.127  0.3037 -0.0643 -0.3126
  137OSM    H7S14900   2.143   4.652   7.140  0.4095 -0.8147  1.5934
  137OSM    H7T14901   2.299   4.737   7.102 -1.9501  0.9827 -0.5178
  137OSM    C8S14902   2.305   4.603   7.268  0.4694 -0.3662  0.0252
  137OSM    H8S14903   2.412   4.575   7.276  0.6763  0.7359  1.4897
  137OSM    H8T14904   2.241   4.520   7.303  1.8460 -1.1494  0.7125
  137OSM    C9S14905   2.285   4.704   7.385  0.1077 -0.1903 -0.4828
  137OSM    H9S14906   2.175   4.711   7.403  0.1487  0.8210 -0.6103
  137OSM    H9T14907   2.343   4.795   7.361 -0.9587  0.4357 -0.7278
  137OSM   C10S14908   2.335   4.639   7.511 -0.4165  0.0126  0.3093
  137OSM   H10S14909   2.444   4.660   7.519 -0.4609  0.5293 -0.4640
  137OSM   H10T14910   2.330   4.529   7.495 -0.2828  0.0137  0.2610
  137OSM   C11S14911   2.264   4.687   7.637 -0.1815  0.2979  0.6030
  137OSM   H11S14912   2.156   4.672   7.616 -0.1799 -0.7013  1.2658
  137OSM   H11T14913   2.283   4.795   7.651 -0.9247  0.4211  0.7130
  137OSM   C12S14914   2.297   4.604   7.766 -0.7722 -0.0903  0.7348
  137OSM   H12S14915   2.407   4.590   7.777 -0.3432  2.4804  0.0178
  137OSM   H12T14916   2.247   4.506   7.750 -2.5997  0.3309  3.5883
  137OSM   C13S14917   2.227   4.652   7.898  0.0664  0.1140  0.3964
  137OSM   H13S14918   2.262   4.577   7.972 -2.5985 -1.2351  0.3492
  137OSM   H13T14919   2.118   4.631   7.903  0.2300 -0.5404  1.2854
  137OSM   C14S14920   2.255   4.800   7.942 -0.2400 -0.4600 -0.2347
  137OSM   H14S14921   2.231   4.821   8.049  0.1998  1.5482 -0.4933
  137OSM   H14T14922   2.208   4.876   7.875  0.3019 -0.0083 -0.1107
  137OSM   C15S14923   2.405   4.853   7.935 -1.0234  0.0803  0.0395
  137OSM   H15S14924   2.412   4.933   7.857  1.8917 -0.4540 -0.3102
  137OSM   H15T14925   2.475   4.774   7.900 -0.1573  0.9206 -0.1632
  137OSM   C16S14926   2.467   4.915   8.065 -0.1533 -0.3595 -0.4241
  137OSM   H16S14927   2.494   4.829   8.129  2.5736  1.0455  0.3973
  137OSM   H16T14928   2.385   4.974   8.112  0.8581  1.0971 -0.4269
  137OSM   C17S14929   2.590   5.005   8.046  0.2263  0.2979  0.0509
  137OSM   H17S14930   2.564   5.105   8.005 -1.9395 -0.3348 -0.2083
  137OSM   H17T14931   2.631   4.960   7.952  0.5316 -0.1510  0.3954
  137OSM   C18S14932   2.687   5.018   8.156  0.2404 -0.3108 -0.2219
  137OSM   H18S14933   2.650   5.073   8.245 -0.7014 -0.0668 -0.7694
  137OSM   H18T14934   2.774   5.068   8.109  1.1567  0.1907  1.9322
  137OSM   H18U14935   2.729   4.921   8.190 -0.3456 -0.0883  1.1710
  137OSM    C1F14936   2.570   4.973   6.907  0.1951  0.0373  0.5517
  137OSM     OF14937   2.534   5.049   6.812 -0.3089 -0.0802 -0.1920
  137OSM    C2F14938   2.581   5.028   7.050  0.1250  0.4161  0.3843
  137OSM    H2F14939   2.607   4.943   7.116 -0.1844 -0.4360 -0.5752
  137OSM    H2G14940   2.479   5.058   7.085  0.0074 -0.0851  0.4839
  137OSM    C3F14941   2.676   5.153   7.063 -1.2704 -0.0198  0.2546
  137OSM    H3F14942   2.621   5.246   7.037 -1.2452 -0.5196 -1.6348
  137OSM    H3G14943   2.752   5.145   6.982  1.0459  2.1550  2.1407
  137OSM    C4F14944   2.731   5.158   7.204  0.2448  0.6627 -0.0407
  137OSM    H4F14945   2.813   5.232   7.213  0.7119  0.0660  0.6355
  137OSM    H4G14946   2.777   5.061   7.233  1.3152  0.8378 -1.0953
  137OSM    C5F14947   2.634   5.187   7.305 -0.1106  0.1626  0.6706
  137OSM    H5F14948   2.553   5.112   7.318 -0.0482  0.1822  1.1836
  137OSM    H5G14949   2.590   5.289   7.299  0.8810  0.4683 -2.1064
  137OSM    C6F14950   2.701   5.171   7.446 -0.3193 -0.4545 -0.0570
  137OSM    H6F14951   2.800   5.220   7.446 -0.7160  0.3992  1.5900
  137OSM    H6G14952   2.717   5.063   7.465  0.5456 -0.1465  0.9886
  137OSM    C7F14953   2.619   5.237   7.549  0.2699 -0.5421 -0.5633
  137OSM    H7F14954   2.513   5.214   7.523  0.4435 -0.4310 -1.3937
  137OSM    H7G14955   2.627   5.348   7.538 -1.3637 -0.0992  2.1854
  137OSM    C8F14956   2.650   5.187   7.695 -0.2593 -0.6920 -0.6355
  137OSM    H8F14957   2.620   5.081   7.707 -1.5424 -0.3049 -0.3451
  137OSM    H8G14958   2.584   5.246   7.761 -1.2923 -2.8631  0.3058
  137OSM    C9F14959   2.798   5.209   7.729  0.4589  0.5366  0.0563
  137OSM    H9F14960   2.872   5.156   7.668 -1.1939 -1.5935 -0.1484
  137OSM   C10F14961   2.848   5.287   7.830 -1.1209 -0.0495  0.1604
  137OSM   H10F14962   2.957   5.286   7.843 -1.2714 -0.1817  1.4344
  137OSM   C11F14963   2.773   5.371   7.930  0.7503 -0.2431  0.4094
  137OSM   H11F14964   2.675   5.323   7.949  0.6180 -0.3140 -0.4074
  137OSM   H11G14965   2.745   5.468   7.884  0.9057 -1.2962 -1.9880
  137OSM   C12F14966   2.845   5.388   8.064  0.4993  0.5596 -0.2447
  137OSM   H12F14967   2.945   5.434   8.048 -0.1115  1.8580 -0.3134
  137OSM   H12G14968   2.864   5.293   8.120 -1.1157  0.3670 -0.0091
  137OSM   C13F14969   2.768   5.479   8.158  0.5054  0.3561  0.2622
  137OSM   H13F14970   2.667   5.433   8.168 -0.0888  1.5226 -0.2970
  137OSM   H13G14971   2.757   5.579   8.113  2.5968  0.0574 -0.9633
  137OSM   C14F14972   2.831   5.508   8.294  0.3430 -0.7719  0.0317
  137OSM   H14F14973   2.929   5.556   8.272  0.3823 -1.5899 -1.6900
  137OSM   H14G14974   2.835   5.416   8.357 -0.1175 -0.5748  0.3526
  137OSM   C15F14975   2.747   5.608   8.375  0.9691 -0.6277  0.3344
  137OSM   H15F14976   2.639   5.586   8.389  0.8138 -0.8480 -1.1104
  137OSM   H15G14977   2.749   5.702   8.317  1.3342  0.6236  2.3192
  137OSM   C16F14978   2.800   5.640   8.512 -0.1749  0.2050 -0.8636
  137OSM   H16F14979   2.901   5.686   8.509  0.5173 -1.1085  1.3991
  137OSM   H16G14980   2.809   5.552   8.578 -1.2071  0.6298 -0.1328
  137OSM   C17F14981   2.717   5.738   8.595  0.6815  0.1991  0.2929
  137OSM   H17F14982   2.630   5.699   8.651 -0.1533  1.0459 -0.3890
  137OSM   H17G14983   2.668   5.812   8.527  1.6044  1.9806  1.5249
  137OSM   C18F14984   2.789   5.824   8.701  0.5545 -0.6065  0.7569
  137OSM   H18F14985   2.715   5.896   8.743  0.4194 -1.2607  1.6630
  137OSM   H18G14986   2.883   5.876   8.676  0.3845  0.1105  1.5760
  137OSM   H18H14987   2.804   5.760   8.791  0.6976 -1.0640  0.4073
  138OSM      N14988   3.100   6.682   6.199  0.0371 -0.3479  0.3331
  138OSM    C1514989   3.058   6.739   6.337 -0.3661  1.0333  0.5965
  138OSM   H15A14990   2.952   6.756   6.340 -0.7993 -1.3073  0.0483
  138OSM   H15B14991   3.104   6.835   6.355  0.4295  0.8714 -0.5563
  138OSM   H15C14992   3.076   6.664   6.414 -1.2946 -1.1365 -1.2361
  138OSM    C1414993   3.044   6.548   6.174  0.2922 -0.2982 -0.1353
  138OSM   H14A14994   2.938   6.551   6.155  0.0713 -0.0924  1.1099
  138OSM   H14B14995   3.073   6.476   6.249  0.1346  0.9691  1.1655
  138OSM   H14C14996   3.087   6.500   6.087 -0.1105  1.1107 -1.1432
  138OSM    C1314997   3.025   6.778   6.100 -0.0876  0.1115 -0.1931
  138OSM   H13A14998   3.022   6.740   5.999 -1.5213 -1.7685  0.5150
  138OSM   H13B14999   3.080   6.870   6.094  0.6617 -0.4212 -1.7227
  138OSM   H13C15000   2.926   6.794   6.140  0.0648 -2.0990  1.1532
  138OSM    C1215001   3.249   6.693   6.172  0.2990 -0.4429 -0.5093
  138OSM   H12A15002   3.267   6.681   6.066 -0.1619  3.4145 -1.1020
  138OSM   H12B15003   3.300   6.613   6.223 -1.7881 -1.0338  0.7007
  138OSM    C1115004   3.329   6.829   6.200 -0.3818  0.2155 -0.0706
  138OSM   H11A15005   3.435   6.805   6.174 -0.9580  1.4230 -3.7412
  138OSM   H11B15006   3.319   6.856   6.307  0.8277  0.7016 -0.0636
  138OSM      P15007   3.360   7.073   6.124  0.2656  0.1547 -0.3551
  138OSM    O1315008   3.468   7.062   6.219 -0.0379 -0.1486 -0.0184
  138OSM    O1415009   3.401   7.110   5.986  0.0400 -0.2783 -0.1229
  138OSM    O1115010   3.257   7.179   6.170  0.2551  0.0108 -0.6264
  138OSM    O1215011   3.276   6.938   6.129 -0.2438  0.0692  0.4530
  138OSM    C1S15012   3.151   7.167   6.265 -0.3687  0.1603 -0.4287
  138OSM    H1S15013   3.184   7.090   6.339 -0.3593 -0.2672 -0.8771
  138OSM    H1T15014   3.058   7.133   6.215  0.0548 -0.3403 -0.8751
  138OSM     NF15015   3.054   7.265   6.471 -0.2311 -0.4167 -0.0441
  138OSM    HNF15016   2.957   7.288   6.476 -0.1799 -0.3251  0.5588
  138OSM    C2S15017   3.137   7.292   6.357  0.0531  0.6236  0.4156
  138OSM    H2S15018   3.240   7.320   6.386 -0.5226  2.3754  0.8209
  138OSM    C3S15019   3.077   7.411   6.274  0.2539  0.8901 -0.5543
  138OSM    H3S15020   2.981   7.381   6.228 -1.5288 -1.4394  4.3644
  138OSM     O315021   3.151   7.441   6.160 -0.2183 -0.0960 -0.2679
  138OSM    HO315022   3.214   7.370   6.150  2.4895  2.1097  0.6044
  138OSM    C4S15023   3.071   7.536   6.359 -1.0645 -0.5099 -0.6051
  138OSM    H4S15024   3.162   7.570   6.410 -0.3963  1.0117 -2.7644
  138OSM    C5S15025   2.955   7.602   6.385 -0.0077  0.7640 -0.2667
  138OSM    H5S15026   2.868   7.562   6.330 -0.3430 -0.9084  1.4284
  138OSM    C6S15027   2.927   7.729   6.471 -0.0916  0.3811 -0.0119
  138OSM    H6S15028   2.825   7.702   6.508  0.1372 -0.9970 -0.3344
  138OSM    H6T15029   2.915   7.816   6.404  0.2829 -0.2826 -0.9405
  138OSM    C7S15030   3.039   7.759   6.575  0.0651  0.5367 -0.3559
  138OSM    H7S15031   3.132   7.781   6.518  1.3628  0.1805  1.5351
  138OSM    H7T15032   3.066   7.673   6.641  0.6535 -0.9083 -2.4188
  138OSM    C8S15033   3.011   7.878   6.670 -0.4505 -0.6311  0.5566
  138OSM    H8S15034   2.974   7.966   6.613 -0.2220 -0.1253  1.1890
  138OSM    H8T15035   3.107   7.909   6.716 -0.1153 -1.5551  0.4961
  138OSM    C9S15036   2.905   7.839   6.772 -0.2903 -0.0679 -0.2885
  138OSM    H9S15037   2.833   7.763   6.734 -2.4658 -0.4068  4.2484
  138OSM    H9T15038   2.847   7.930   6.796  1.8909  0.8172  1.8177
  138OSM   C10S15039   2.959   7.779   6.907  0.1061  0.0295  0.2069
  138OSM   H10S15040   3.031   7.697   6.888 -1.5371 -1.3911  0.0197
  138OSM   H10T15041   2.871   7.737   6.960 -0.2589  0.7033  0.1436
  138OSM   C11S15042   3.019   7.885   7.003  0.1339  0.1102 -0.6356
  138OSM   H11S15043   2.952   7.973   7.016 -0.2586 -0.1357 -1.0207
  138OSM   H11T15044   3.114   7.930   6.965  1.0995 -1.8062 -0.5632
  138OSM   C12S15045   3.042   7.822   7.141 -0.4725  0.2470 -0.3562
  138OSM   H12S15046   3.132   7.756   7.144  0.8628  2.0049 -0.5728
  138OSM   H12T15047   2.950   7.771   7.177 -0.7446  1.2673  0.3918
  138OSM   C13S15048   3.084   7.926   7.247  0.0556  0.0802 -0.2289
  138OSM   H13S15049   3.001   7.998   7.263  0.6908  0.7438  0.1114
  138OSM   H13T15050   3.165   7.994   7.213  0.8169 -0.8054 -0.1891
  138OSM   C14S15051   3.127   7.873   7.383  0.0937 -0.3145 -0.0374
  138OSM   H14S15052   3.210   7.801   7.373 -0.5289 -0.8025 -1.9273
  138OSM   H14T15053   3.043   7.818   7.431  0.6439 -1.9840 -0.9406
  138OSM   C15S15054   3.158   7.990   7.479  0.1291 -0.3939  0.7290
  138OSM   H15S15055   3.063   8.043   7.504  0.5936  1.7114 -1.6827
  138OSM   H15T15056   3.226   8.062   7.429 -1.3977 -0.6328 -1.7915
  138OSM   C16S15057   3.223   7.947   7.610  0.8788  0.4010  0.2363
  138OSM   H16S15058   3.322   7.899   7.596  0.8430 -0.2365  2.0912
  138OSM   H16T15059   3.157   7.870   7.656 -0.9012  2.7616  1.7998
  138OSM   C17S15060   3.243   8.055   7.719  0.3030 -0.4083  0.6809
  138OSM   H17S15061   3.146   8.104   7.740  0.8328  0.6542  0.7172
  138OSM   H17T15062   3.317   8.133   7.689 -0.4934  0.5008  1.0695
  138OSM   C18S15063   3.306   8.018   7.854 -0.0493 -0.3207  0.4464
  138OSM   H18S15064   3.308   8.107   7.920  0.8545  2.0427 -2.6028
  138OSM   H18T15065   3.409   7.978   7.836  0.8833  1.5689  1.4439
  138OSM   H18U15066   3.248   7.943   7.911 -0.4471 -1.0829 -0.9316
  138OSM    C1F15067   3.097   7.184   6.561 -1.0173  0.7257 -0.2062
  138OSM     OF15068   3.218   7.166   6.573 -0.4739 -0.0266  0.6547
  138OSM    C2F15069   3.004   7.101   6.636  0.4375  0.7025  0.1845
  138OSM    H2F15070   3.016   7.000   6.590 -2.3181  0.3800  0.1099
  138OSM    H2G15071   2.903   7.147   6.623 -0.6696 -1.1538  1.9858
  138OSM    C3F15072   3.051   7.093   6.785  0.3438  0.3391 -0.5878
  138OSM    H3F15073   3.072   7.193   6.828  1.0409  0.4471 -1.1845
  138OSM    H3G15074   3.150   7.044   6.780  0.9835  1.5704 -0.2219
  138OSM    C4F15075   2.954   7.029   6.878  0.3334 -0.6909  0.0476
  138OSM    H4F15076   2.924   6.930   6.838 -1.2183 -0.3964  0.4629
  138OSM    H4G15077   2.865   7.095   6.888  1.8090  0.9967  2.4725
  138OSM    C5F15078   3.019   7.014   7.015 -0.2986  0.3466 -0.5148
  138OSM    H5F15079   3.085   7.096   7.051  0.7132 -1.1856  1.2309
  138OSM    H5G15080   3.089   6.928   7.010  0.9705  1.2146  1.7162
  138OSM    C6F15081   2.926   6.982   7.130  0.1092  0.2880  0.8692
  138OSM    H6F15082   2.843   6.915   7.099  0.4967  1.5447 -3.2210
  138OSM    H6G15083   2.881   7.078   7.161  0.2144  0.8709 -0.7319
  138OSM    C7F15084   3.007   6.915   7.242  0.0193  0.7737  0.6733
  138OSM    H7F15085   3.040   6.816   7.204  0.3673  1.4031 -0.7022
  138OSM    H7G15086   2.939   6.895   7.327 -1.1691  0.8573 -0.2442
  138OSM    C8F15087   3.121   7.002   7.296  0.2677  0.0077  0.4603
  138OSM    H8F15088   3.196   7.032   7.219  2.1982 -0.5186  2.0817
  138OSM    H8G15089   3.179   6.940   7.368 -0.2879  2.5175  3.1849
  138OSM    C9F15090   3.087   7.129   7.362  0.0378 -0.5419  0.3440
  138OSM    H9F15091   3.076   7.221   7.302  4.9550 -0.6923 -0.9669
  138OSM   C10F15092   3.043   7.138   7.486  0.6715 -0.3362  0.0004
  138OSM   H10F15093   3.008   7.235   7.524 -0.4891 -0.5114 -0.5994
  138OSM   C11F15094   3.037   7.030   7.596 -0.1910 -0.2810  0.3751
  138OSM   H11F15095   3.093   6.940   7.565  0.2530 -0.3156  1.2559
  138OSM   H11G15096   2.928   7.009   7.593 -0.1567 -0.3479 -0.4860
  138OSM   C12F15097   3.094   7.084   7.733 -0.6348  0.0460 -0.7005
  138OSM   H12F15098   3.048   7.012   7.804  1.3562 -0.2942  0.2698
  138OSM   H12G15099   3.058   7.186   7.758  1.2713  0.2129  1.4632
  138OSM   C13F15100   3.243   7.089   7.729 -0.4142 -0.1128  0.3528
  138OSM   H13F15101   3.275   7.144   7.637 -0.0096 -1.2904 -0.2134
  138OSM   H13G15102   3.293   6.992   7.711  0.5099  0.6753 -1.5522
  138OSM   C14F15103   3.298   7.149   7.859 -0.8302 -0.1242 -0.3085
  138OSM   H14F15104   3.280   7.066   7.930  2.5817  0.8771  1.8586
  138OSM   H14G15105   3.239   7.236   7.896 -1.4069 -1.2941  1.5739
  138OSM   C15F15106   3.448   7.181   7.863 -0.1768  0.4384 -0.4051
  138OSM   H15F15107   3.456   7.261   7.787 -0.7370  1.0812  0.2093
  138OSM   H15G15108   3.498   7.088   7.827 -0.2046  0.3547 -0.2297
  138OSM   C16F15109   3.495   7.233   8.000 -0.0019 -0.1434 -0.0245
  138OSM   H16F15110   3.427   7.315   8.032  0.9160 -0.0022  1.6269
  138OSM   H16G15111   3.587   7.294   7.984  0.8249 -0.8071  2.0551
  138OSM   C17F15112   3.518   7.116   8.093 -0.1491 -0.0287  0.1745
  138OSM   H17F15113   3.609   7.063   8.060 -0.3985 -0.2867 -0.1028
  138OSM   H17G15114   3.431   7.047   8.090 -2.1801  2.4263  0.0407
  138OSM   C18F15115   3.551   7.162   8.232 -0.2096 -0.0505  0.2686
  138OSM   H18F15116   3.643   7.223   8.221 -0.2787  0.3423  1.8053
  138OSM   H18G15117   3.592   7.082   8.298  0.8686  0.6181  0.4169
  138OSM   H18H15118   3.475   7.228   8.278 -0.2071  1.0326 -1.2563
  139OSM      N15119   1.959   1.116   5.960  0.1977 -0.4913  0.6509
  139OSM    C1515120   1.952   0.974   5.912  0.5000 -0.0286  0.3035
  139OSM   H15A15121   1.854   0.945   5.877  0.7497 -3.8201  2.5036
  139OSM   H15B15122   1.979   0.901   5.987 -0.7072 -2.2181 -1.3330
  139OSM   H15C15123   2.020   0.954   5.830 -2.0177  0.4194 -1.9694
  139OSM    C1415124   2.101   1.164   5.982 -0.8411 -0.2871  0.6677
  139OSM   H14A15125   2.135   1.124   6.077 -1.7298 -1.8506  0.3430
  139OSM   H14B15126   2.113   1.271   5.986  2.0742 -0.6182  2.7694
  139OSM   H14C15127   2.163   1.127   5.901  0.3331 -2.1238  2.3674
  139OSM    C1315128   1.886   1.191   5.851  0.4329 -0.0640  1.0200
  139OSM   H13A15129   1.930   1.289   5.851  2.1877 -0.8337  0.3350
  139OSM   H13B15130   1.778   1.193   5.854  0.4225  1.8003  0.2674
  139OSM   H13C15131   1.912   1.161   5.750 -1.2707 -1.9600  1.1132
  139OSM    C1215132   1.877   1.133   6.092 -0.1544  0.6002  0.7654
  139OSM   H12A15133   1.919   1.056   6.155  0.0409 -0.4641 -0.6449
  139OSM   H12B15134   1.771   1.118   6.073  0.2969 -1.5648 -0.1381
  139OSM    C1115135   1.885   1.265   6.175 -0.8957  0.4145  0.0370
  139OSM   H11A15136   1.992   1.276   6.203 -1.1608 -1.4952  1.9034
  139OSM   H11B15137   1.832   1.247   6.271 -2.8540  1.5375 -0.7969
  139OSM      P15138   1.677   1.428   6.130 -0.1721  0.0238 -0.0277
  139OSM    O1315139   1.666   1.576   6.112  0.0535  0.3140  1.1392
  139OSM    O1415140   1.596   1.340   6.039 -0.5363 -0.1547 -0.1760
  139OSM    O1115141   1.640   1.401   6.286  0.1672 -0.3620 -0.3621
  139OSM    O1215142   1.831   1.385   6.120 -0.0898 -0.2719 -0.2513
  139OSM    C1S15143   1.726   1.465   6.383  0.1824  0.1870  0.3599
  139OSM    H1S15144   1.772   1.559   6.346  0.6892 -0.8226 -1.6613
  139OSM    H1T15145   1.808   1.393   6.403 -0.7202 -1.0186 -0.1809
  139OSM     NF15146   1.723   1.575   6.606  0.2801  1.0410  0.5420
  139OSM    HNF15147   1.795   1.530   6.658 -0.7271 -0.0533  1.0039
  139OSM    C2S15148   1.649   1.485   6.513 -0.0777 -0.0344 -0.7344
  139OSM    H2S15149   1.552   1.533   6.493 -0.0242  1.0539  1.4835
  139OSM    C3S15150   1.604   1.339   6.577 -0.6296 -0.6479 -0.3205
  139OSM    H3S15151   1.695   1.276   6.589  0.9042  1.9743  2.7370
  139OSM     O315152   1.522   1.278   6.483  0.1311  0.0820  0.4677
  139OSM    HO315153   1.555   1.310   6.399  0.5487  0.3361  0.7246
  139OSM    C4S15154   1.531   1.364   6.697 -0.0739  0.6567 -0.5033
  139OSM    H4S15155   1.432   1.413   6.692 -0.6204  0.1023  3.3676
  139OSM    C5S15156   1.560   1.315   6.820 -1.1554  0.5210  0.4541
  139OSM    H5S15157   1.639   1.238   6.825 -0.2363  1.5027  1.0862
  139OSM    C6S15158   1.475   1.318   6.946 -0.7698 -0.0326 -0.4507
  139OSM    H6S15159   1.428   1.219   6.961 -2.4364  1.2136  3.2268
  139OSM    H6T15160   1.396   1.396   6.933 -3.7193 -2.7324  0.6318
  139OSM    C7S15161   1.556   1.349   7.073 -0.5092 -0.1507 -0.5879
  139OSM    H7S15162   1.597   1.453   7.077  0.4127 -0.4003 -2.7575
  139OSM    H7T15163   1.636   1.275   7.091 -0.7799 -0.5862 -1.1611
  139OSM    C8S15164   1.466   1.324   7.201 -0.0425 -0.2115  0.4385
  139OSM    H8S15165   1.441   1.215   7.199 -2.1175  0.2639 -0.0065
  139OSM    H8T15166   1.365   1.370   7.194 -1.2211 -2.8283 -0.3710
  139OSM    C9S15167   1.542   1.336   7.338  0.2195 -0.0564 -0.0654
  139OSM    H9S15168   1.586   1.438   7.339  0.7028 -0.2639  1.6902
  139OSM    H9T15169   1.622   1.258   7.335  0.0734 -0.1902 -0.4630
  139OSM   C10S15170   1.451   1.303   7.463 -0.0359  0.0046  0.6359
  139OSM   H10S15171   1.396   1.207   7.455 -0.9817  0.6480 -0.8868
  139OSM   H10T15172   1.375   1.384   7.463 -0.6084 -0.5045 -1.1377
  139OSM   C11S15173   1.539   1.311   7.593  0.0489 -0.4274 -0.3538
  139OSM   H11S15174   1.600   1.404   7.592 -0.1323 -0.2606  1.9137
  139OSM   H11T15175   1.599   1.217   7.602  0.4453 -0.0193  1.3388
  139OSM   C12S15176   1.454   1.331   7.724 -0.3620  0.0921  0.5587
  139OSM   H12S15177   1.381   1.249   7.736 -1.8416  1.1367 -1.1648
  139OSM   H12T15178   1.392   1.423   7.720 -0.6825 -0.2056 -1.5950
  139OSM   C13S15179   1.539   1.331   7.848 -0.0763 -0.1567 -0.0873
  139OSM   H13S15180   1.619   1.408   7.839 -1.5889  1.3004 -1.3276
  139OSM   H13T15181   1.587   1.231   7.853 -1.3236 -0.7192  0.7966
  139OSM   C14S15182   1.460   1.364   7.974  0.4963  0.3520 -0.2853
  139OSM   H14S15183   1.378   1.291   7.992  0.4773 -0.8063 -4.4579
  139OSM   H14T15184   1.407   1.461   7.970 -0.6276 -0.1590  1.7519
  139OSM   C15S15185   1.560   1.381   8.100  0.6369 -0.6924 -0.2161
  139OSM   H15S15186   1.650   1.435   8.066  0.1589  0.7099  0.7051
  139OSM   H15T15187   1.585   1.277   8.130  0.5980 -0.5020  0.4826
  139OSM   C16S15188   1.483   1.467   8.204  0.4015 -0.1731  0.3492
  139OSM   H16S15189   1.443   1.553   8.147 -2.0744 -0.5048  1.5493
  139OSM   H16T15190   1.550   1.495   8.288 -0.6551  1.2678  0.7164
  139OSM   C17S15191   1.365   1.394   8.265 -0.3427 -0.1690 -0.1429
  139OSM   H17S15192   1.408   1.305   8.316  1.4701 -0.4726 -2.1269
  139OSM   H17T15193   1.290   1.365   8.188 -0.5475  0.6933 -0.2840
  139OSM   C18S15194   1.283   1.485   8.368 -1.1915 -0.1902 -0.0640
  139OSM   H18S15195   1.265   1.586   8.324  0.9157  1.2715  2.3192
  139OSM   H18T15196   1.327   1.480   8.469 -0.5888 -2.7126 -0.4103
  139OSM   H18U15197   1.186   1.431   8.373 -1.6296  0.2831 -2.5668
  139OSM    C1F15198   1.738   1.706   6.584 -0.2957  0.9216 -0.6500
  139OSM     OF15199   1.670   1.763   6.497  0.2149 -0.7068 -0.5255
  139OSM    C2F15200   1.838   1.782   6.657 -0.1614  0.0599 -0.4373
  139OSM    H2F15201   1.940   1.786   6.616 -0.4644  2.9211 -0.9721
  139OSM    H2G15202   1.843   1.737   6.759  1.0076 -2.7575 -1.6695
  139OSM    C3F15203   1.808   1.939   6.669 -0.1463  0.0393  0.1498
  139OSM    H3F15204   1.701   1.941   6.698 -0.9208 -0.7907 -2.5320
  139OSM    H3G15205   1.811   1.999   6.576 -0.9158 -0.9176 -0.5029
  139OSM    C4F15206   1.879   2.015   6.784 -0.5667  0.4593 -0.2419
  139OSM    H4F15207   1.876   2.122   6.754  0.2960 -0.2730 -3.1332
  139OSM    H4G15208   1.981   1.975   6.803  0.5940  3.3549 -0.0752
  139OSM    C5F15209   1.801   1.993   6.916  0.5724 -0.5032  0.1996
  139OSM    H5F15210   1.793   1.888   6.951  0.5305 -0.4554  0.3318
  139OSM    H5G15211   1.697   2.026   6.895  0.9840  0.8062  0.1640
  139OSM    C6F15212   1.858   2.074   7.039  0.2507 -0.6648  0.2644
  139OSM    H6F15213   1.796   2.050   7.128  0.1745 -2.2885 -0.2237
  139OSM    H6G15214   1.844   2.183   7.017 -2.4833 -1.1575 -0.7104
  139OSM    C7F15215   2.004   2.035   7.057 -0.1711  0.2158  0.1368
  139OSM    H7F15216   2.066   2.072   6.972 -0.9389 -0.9531 -0.9538
  139OSM    H7G15217   2.003   1.924   7.055  3.0790  0.1240  1.0785
  139OSM    C8F15218   2.068   2.083   7.193 -0.0948 -0.0748 -0.5709
  139OSM    H8F15219   1.997   2.046   7.270  0.8806  0.3530  0.5574
  139OSM    H8G15220   2.057   2.194   7.201  2.8801  0.2302 -0.2404
  139OSM    C9F15221   2.210   2.049   7.227 -0.1062  0.2036 -0.3356
  139OSM    H9F15222   2.279   2.080   7.148  1.9566  0.0690  1.3644
  139OSM   C10F15223   2.257   1.974   7.321  0.5880  0.1646  0.1262
  139OSM   H10F15224   2.365   1.957   7.328  0.5772  0.3433  0.7624
  139OSM   C11F15225   2.170   1.909   7.428 -0.0271  0.9069 -0.3866
  139OSM   H11F15226   2.074   1.880   7.382  0.1604  0.1321 -0.2918
  139OSM   H11G15227   2.144   1.983   7.507 -0.1260  0.4879 -0.0251
  139OSM   C12F15228   2.232   1.773   7.476 -0.1132 -0.9797 -0.1984
  139OSM   H12F15229   2.334   1.792   7.515 -0.1980 -0.4283 -0.2402
  139OSM   H12G15230   2.240   1.699   7.394  3.1012 -0.9182  0.0051
  139OSM   C13F15231   2.142   1.720   7.590 -0.2245 -0.1896 -0.1060
  139OSM   H13F15232   2.046   1.708   7.536 -0.6780  0.8064  0.4612
  139OSM   H13G15233   2.118   1.801   7.662  0.0223 -1.7088  1.7444
  139OSM   C14F15234   2.194   1.586   7.647 -0.7724 -0.5624  0.8270
  139OSM   H14F15235   2.305   1.582   7.645 -0.6703 -0.1491  3.6298
  139OSM   H14G15236   2.159   1.506   7.578 -2.0975  0.0107  0.8187
  139OSM   C15F15237   2.155   1.578   7.797 -0.2702 -0.2557 -0.6759
  139OSM   H15F15238   2.046   1.586   7.816 -0.3791 -0.8625 -1.0418
  139OSM   H15G15239   2.196   1.670   7.844 -1.0108  0.0377 -0.5996
  139OSM   C16F15240   2.207   1.455   7.874 -1.0268 -0.3698  0.5189
  139OSM   H16F15241   2.318   1.452   7.871 -1.0823 -2.6352 -0.1791
  139OSM   H16G15242   2.178   1.366   7.815  0.1117 -0.5745  0.2668
  139OSM   C17F15243   2.162   1.439   8.021  0.6054 -0.4307 -0.6402
  139OSM   H17F15244   2.207   1.519   8.084 -0.5758  1.0197 -1.6286
  139OSM   H17G15245   2.198   1.345   8.068 -3.2012 -1.1957  0.8988
  139OSM   C18F15246   2.012   1.459   8.042  0.3641 -0.1971  1.0335
  139OSM   H18F15247   1.989   1.564   8.015  1.5393 -0.0801  0.4832
  139OSM   H18G15248   1.983   1.446   8.149  0.0433 -0.9816  0.8504
  139OSM   H18H15249   1.948   1.395   7.977 -0.7536  2.1685 -0.2564
  140OSM      N15250   2.806   3.624   5.960  0.1450 -0.1740  0.2143
  140OSM    C1515251   2.888   3.538   5.865  0.2472 -0.2134 -0.7015
  140OSM   H15A15252   2.838   3.447   5.836 -2.0908 -0.2718  3.1473
  140OSM   H15B15253   2.981   3.509   5.912 -0.9726 -0.5821  1.5501
  140OSM   H15C15254   2.910   3.596   5.776 -0.1455  0.7550 -0.1820
  140OSM    C1415255   2.871   3.755   5.974  0.4167 -0.0571 -0.2445
  140OSM   H14A15256   2.880   3.815   5.884 -1.6020 -1.8931 -1.7215
  140OSM   H14B15257   2.968   3.749   6.020 -0.4466 -0.5798  1.5554
  140OSM   H14C15258   2.809   3.819   6.035  1.1856  0.0323  0.4458
  140OSM    C1315259   2.670   3.639   5.899  0.0147  0.4361 -0.9552
  140OSM   H13A15260   2.626   3.541   5.888  3.3414 -1.2160 -0.2116
  140OSM   H13B15261   2.671   3.687   5.802 -0.7926  0.8704 -0.7457
  140OSM   H13C15262   2.600   3.694   5.960 -0.3152 -1.1199  0.1155
  140OSM    C1215263   2.789   3.563   6.095 -0.6275 -0.6488  0.0057
  140OSM   H12A15264   2.750   3.462   6.088  2.4748 -1.8205 -1.6077
  140OSM   H12B15265   2.718   3.618   6.154  1.0935 -0.6571  2.1821
  140OSM    C1115266   2.918   3.550   6.185  0.4881  0.0957  1.0427
  140OSM   H11A15267   3.007   3.532   6.121 -0.9531 -0.7773 -0.7832
  140OSM   H11B15268   2.900   3.472   6.261  2.4657  0.3149  1.7685
  140OSM      P15269   2.856   3.706   6.385  0.5071 -0.8275 -0.1107
  140OSM    O1315270   2.926   3.804   6.474  0.6153 -0.4058  0.0819
  140OSM    O1415271   2.714   3.745   6.354  0.4344 -0.3059 -0.8050
  140OSM    O1115272   2.849   3.563   6.458 -0.6265  0.3717  0.9842
  140OSM    O1215273   2.942   3.668   6.258 -0.5175 -0.1543  0.2047
  140OSM    C1S15274   2.970   3.510   6.514 -0.1445 -0.6095  0.4857
  140OSM    H1S15275   3.015   3.592   6.575 -0.9540  1.1190 -1.2218
  140OSM    H1T15276   3.032   3.461   6.436 -2.1537  1.7180 -2.6716
  140OSM     NF15277   3.076   3.336   6.654  0.9842  0.2902 -0.2221
  140OSM    HNF15278   3.097   3.244   6.620  1.4218  0.5335 -0.6206
  140OSM    C2S15279   2.943   3.394   6.618 -0.2329 -0.1737  0.4789
  140OSM    H2S15280   2.886   3.434   6.704  0.9385  2.2703  0.1539
  140OSM    C3S15281   2.852   3.286   6.549  0.3555  0.2725  0.0243
  140OSM    H3S15282   2.913   3.242   6.467  1.3039 -0.9967  1.3935
  140OSM     O315283   2.720   3.324   6.499 -0.3187 -0.2663  0.3255
  140OSM    HO315284   2.721   3.419   6.483  0.1221 -0.4895 -1.0515
  140OSM    C4S15285   2.831   3.170   6.648 -0.6341  0.4139  0.1720
  140OSM    H4S15286   2.906   3.089   6.645 -0.2542  0.8166 -1.2981
  140OSM    C5S15287   2.729   3.161   6.743  0.3216  0.2571 -1.0747
  140OSM    H5S15288   2.655   3.242   6.743  2.2092  2.0292 -0.8145
  140OSM    C6S15289   2.702   3.047   6.837  0.4725  0.9925 -0.3988
  140OSM    H6S15290   2.614   2.991   6.799 -0.0366  1.5009  0.0140
  140OSM    H6T15291   2.668   3.096   6.931 -0.2488 -1.2690  0.5533
  140OSM    C7S15292   2.824   2.953   6.858  0.1210  0.8022 -0.2289
  140OSM    H7S15293   2.908   3.021   6.883  1.3431  0.3714 -2.9363
  140OSM    H7T15294   2.845   2.909   6.758 -0.3944 -0.6266  0.2807
  140OSM    C8S15295   2.797   2.829   6.940 -0.5980  0.8451 -0.5896
  140OSM    H8S15296   2.875   2.756   6.910  1.1499  0.5085  4.2878
  140OSM    H8T15297   2.698   2.780   6.927  0.0711  0.0361 -2.8372
  140OSM    C9S15298   2.822   2.839   7.089 -0.5370 -0.7647 -0.8169
  140OSM    H9S15299   2.759   2.920   7.131  2.0313 -0.3189  2.3473
  140OSM    H9T15300   2.927   2.874   7.103 -0.8463 -0.5462  0.9861
  140OSM   C10S15301   2.801   2.706   7.156  0.4111  0.1007  0.1539
  140OSM   H10S15302   2.872   2.641   7.100  0.1357 -0.5081  0.5122
  140OSM   H10T15303   2.697   2.672   7.134  0.7664 -1.0234  0.1830
  140OSM   C11S15304   2.823   2.703   7.304 -0.4117 -0.4934 -0.3739
  140OSM   H11S15305   2.926   2.737   7.326 -0.8314  0.5265  0.0715
  140OSM   H11T15306   2.827   2.599   7.343  1.1083 -0.2412  0.1783
  140OSM   C12S15307   2.720   2.795   7.385  0.2403 -1.0708 -0.3811
  140OSM   H12S15308   2.614   2.765   7.368 -0.3342  1.8454 -2.2253
  140OSM   H12T15309   2.715   2.891   7.330  1.1321 -0.7468  0.1031
  140OSM   C13S15310   2.751   2.823   7.533 -0.3650  0.4906  0.2975
  140OSM   H13S15311   2.703   2.919   7.562 -0.2905  1.1872 -1.7938
  140OSM   H13T15312   2.861   2.836   7.545 -0.3431  1.9257 -1.1984
  140OSM   C14S15313   2.712   2.715   7.640  0.8747 -0.1103  0.4715
  140OSM   H14S15314   2.731   2.609   7.613  1.4472  0.5394 -1.8254
  140OSM   H14T15315   2.603   2.731   7.644  0.9975  2.0429 -2.6981
  140OSM   C15S15316   2.765   2.734   7.784 -0.2050 -0.0934  0.3719
  140OSM   H15S15317   2.876   2.730   7.789 -0.2808  0.7194  3.1681
  140OSM   H15T15318   2.728   2.645   7.839  1.6265 -0.9673  0.2306
  140OSM   C16S15319   2.713   2.865   7.842  0.7306 -0.6964  0.6857
  140OSM   H16S15320   2.605   2.843   7.855  0.4700  1.2668  2.1223
  140OSM   H16T15321   2.735   2.943   7.765 -0.2688 -0.7800  0.3175
  140OSM   C17S15322   2.781   2.915   7.976 -0.0533  0.1483 -0.0370
  140OSM   H17S15323   2.877   2.964   7.951  0.9705 -0.7356  1.9413
  140OSM   H17T15324   2.801   2.832   8.048  0.9729  0.7838  0.4105
  140OSM   C18S15325   2.696   3.021   8.044 -0.4248 -0.1068 -0.0918
  140OSM   H18S15326   2.725   3.055   8.146 -0.2632 -0.2403 -0.0931
  140OSM   H18T15327   2.591   2.984   8.049 -0.4109 -0.0759  0.4213
  140OSM   H18U15328   2.701   3.105   7.971  2.9773 -0.6690 -0.5818
  140OSM    C1F15329   3.157   3.407   6.728 -0.2797 -0.6220 -0.2041
  140OSM     OF15330   3.129   3.518   6.758 -0.1742  0.9458 -0.8362
  140OSM    C2F15331   3.294   3.358   6.745  0.3660  0.3869  0.3479
  140OSM    H2F15332   3.369   3.439   6.733  1.4144 -0.0763  3.4555
  140OSM    H2G15333   3.312   3.288   6.660  1.5731  1.3327 -0.1905
  140OSM    C3F15334   3.318   3.286   6.878  0.6181 -0.3075  0.4888
  140OSM    H3F15335   3.411   3.226   6.878  0.8236  0.0003 -1.5765
  140OSM    H3G15336   3.236   3.211   6.883 -0.0384  0.2621 -1.3995
  140OSM    C4F15337   3.327   3.385   6.991  0.0367  0.4686  0.3275
  140OSM    H4F15338   3.241   3.455   6.992 -0.6252 -0.3475  1.3677
  140OSM    H4G15339   3.413   3.450   6.965 -0.7801  0.7724 -1.7230
  140OSM    C5F15340   3.332   3.308   7.123 -0.1023 -0.5128  0.0524
  140OSM    H5F15341   3.427   3.251   7.113  0.8543  1.0234  0.2562
  140OSM    H5G15342   3.251   3.233   7.110 -0.2357 -0.2049 -0.9151
  140OSM    C6F15343   3.347   3.393   7.243 -0.4170  0.5010 -0.6253
  140OSM    H6F15344   3.407   3.483   7.218 -0.9183  0.5940 -1.5229
  140OSM    H6G15345   3.397   3.333   7.322 -1.8228 -0.2677 -0.3069
  140OSM    C7F15346   3.215   3.456   7.286  0.6734 -0.1623  0.0094
  140OSM    H7F15347   3.139   3.375   7.285  0.8766 -0.3635  0.8882
  140OSM    H7G15348   3.187   3.537   7.215  0.7918  3.1971  3.6639
  140OSM    C8F15349   3.235   3.518   7.426 -0.3007  0.0016 -0.7116
  140OSM    H8F15350   3.307   3.601   7.411  1.3804 -1.7259 -2.4223
  140OSM    H8G15351   3.283   3.441   7.490 -0.8955 -0.6336 -1.0239
  140OSM    C9F15352   3.114   3.570   7.486  0.2464  0.3743 -0.3883
  140OSM    H9F15353   3.028   3.503   7.477  1.8195 -1.8488  0.6584
  140OSM   C10F15354   3.096   3.691   7.541 -1.0900  0.3219  0.1222
  140OSM   H10F15355   2.997   3.702   7.588 -0.8556 -0.6550  0.8559
  140OSM   C11F15356   3.195   3.802   7.571 -0.3352 -0.0758 -0.5303
  140OSM   H11F15357   3.155   3.899   7.534 -0.5339  0.6469  1.5155
  140OSM   H11G15358   3.290   3.797   7.513 -2.0118 -0.1482 -3.3947
  140OSM   C12F15359   3.219   3.819   7.719 -0.3292  0.5269 -0.0424
  140OSM   H12F15360   3.301   3.894   7.716 -1.1078  1.3392 -1.8655
  140OSM   H12G15361   3.249   3.724   7.768 -2.2682  0.6886  1.5304
  140OSM   C13F15362   3.095   3.875   7.797 -0.4387  0.0128  0.9617
  140OSM   H13F15363   3.010   3.805   7.790 -0.1546 -0.6064  3.2110
  140OSM   H13G15364   3.063   3.961   7.736 -1.5468  0.0233  1.5543
  140OSM   C14F15365   3.133   3.912   7.940  0.2160  0.4914 -0.0403
  140OSM   H14F15366   3.197   3.826   7.968  0.2014  0.8403  1.1239
  140OSM   H14G15367   3.040   3.899   8.000  1.3296 -0.4939  1.5114
  140OSM   C15F15368   3.211   4.040   7.979 -0.0129  0.6248  0.3363
  140OSM   H15F15369   3.169   4.137   7.946 -2.4228  0.0287  1.5798
  140OSM   H15G15370   3.307   4.035   7.923 -0.7169  0.8700 -0.8984
  140OSM   C16F15371   3.251   4.046   8.128 -0.8661 -0.2902 -0.4292
  140OSM   H16F15372   3.288   3.944   8.152 -4.8053 -1.4713  1.1418
  140OSM   H16G15373   3.165   4.056   8.198  0.5677 -1.5532  1.5804
  140OSM   C17F15374   3.354   4.159   8.168  0.2062 -0.2354  0.0337
  140OSM   H17F15375   3.389   4.130   8.269  1.5362 -1.3887 -0.7401
  140OSM   H17G15376   3.305   4.258   8.177 -0.4428 -0.6326  0.9311
  140OSM   C18F15377   3.478   4.162   8.065 -0.5059 -0.7696  0.0518
  140OSM   H18F15378   3.439   4.189   7.964 -0.7876 -0.4784  0.2413
  140OSM   H18G15379   3.517   4.058   8.077  1.2590  0.0100  1.3969
  140OSM   H18H15380   3.552   4.240   8.093 -2.2635  0.7081  0.6967
  141OSM      N15381   1.195   4.746   6.255 -0.6545 -0.1758 -0.0823
  141OSM    C1515382   1.158   4.604   6.250 -0.0566 -0.4082  0.1755
  141OSM   H15A15383   1.090   4.584   6.169  3.3207  0.6349 -3.0707
  141OSM   H15B15384   1.095   4.572   6.332  1.5557 -1.1780  1.1550
  141OSM   H15C15385   1.245   4.540   6.246  1.0128  1.1182 -2.1438
  141OSM    C1415386   1.269   4.775   6.135  0.4607  0.0962  0.4299
  141OSM   H14A15387   1.205   4.742   6.054  0.7413 -1.4242  0.8207
  141OSM   H14B15388   1.361   4.724   6.112 -0.2155 -0.8106 -0.2972
  141OSM   H14C15389   1.302   4.878   6.131 -0.4672  0.3399 -3.2798
  141OSM    C1315390   1.058   4.817   6.250  0.5612 -0.6486  0.4393
  141OSM   H13A15391   1.004   4.791   6.340 -1.2318  1.6306  0.0768
  141OSM   H13B15392   1.003   4.789   6.161  0.7115  0.3200  0.0325
  141OSM   H13C15393   1.075   4.923   6.255  1.8486 -0.8476  0.3853
  141OSM    C1215394   1.274   4.785   6.378 -0.0169 -0.3376  0.6221
  141OSM   H12A15395   1.217   4.759   6.466  0.8601 -1.5457  0.8487
  141OSM   H12B15396   1.285   4.892   6.393 -0.3938 -0.5763  2.7706
  141OSM    C1115397   1.412   4.729   6.400 -0.1580  0.2886 -0.0308
  141OSM   H11A15398   1.406   4.619   6.405  0.1478  0.2365 -0.8208
  141OSM   H11B15399   1.444   4.761   6.502 -1.3083 -1.2537  0.8379
  141OSM      P15400   1.563   4.919   6.303  0.2345 -0.7461  0.2813
  141OSM    O1315401   1.667   4.934   6.201 -0.2882  0.5609 -0.1724
  141OSM    O1415402   1.458   5.019   6.281  0.1942  0.1115 -0.3606
  141OSM    O1115403   1.633   4.942   6.436  0.4816  0.5996 -0.1761
  141OSM    O1215404   1.508   4.772   6.302  0.5309 -0.0725 -0.2118
  141OSM    C1S15405   1.713   4.867   6.525  0.0913  0.1724  0.0429
  141OSM    H1S15406   1.812   4.854   6.476  0.4355  1.8413  0.2833
  141OSM    H1T15407   1.666   4.769   6.547 -2.0799  1.6158  2.0355
  141OSM     NF15408   1.833   4.862   6.734  0.1020 -0.8929 -0.4101
  141OSM    HNF15409   1.806   4.796   6.803  2.1017 -0.6098  0.6783
  141OSM    C2S15410   1.733   4.941   6.664 -0.5030 -0.0691  0.2704
  141OSM    H2S15411   1.778   5.041   6.645 -0.6879  0.1894  1.1448
  141OSM    C3S15412   1.594   4.968   6.735  0.5275 -0.1930  0.1647
  141OSM    H3S15413   1.545   4.871   6.761  1.6133 -0.2606  2.0187
  141OSM     O315414   1.508   5.056   6.667 -0.6217  0.0485  0.2696
  141OSM    HO315415   1.535   5.064   6.575 -2.1241  0.3664 -0.1607
  141OSM    C4S15416   1.617   5.024   6.871  0.3136 -0.2044  0.2065
  141OSM    H4S15417   1.580   4.957   6.950 -2.5700  1.7836  0.6341
  141OSM    C5S15418   1.661   5.146   6.900 -0.0803 -0.5437 -0.1510
  141OSM    H5S15419   1.682   5.210   6.812 -1.2399  0.5270  0.3426
  141OSM    C6S15420   1.667   5.209   7.042 -0.6455  0.4331  0.5124
  141OSM    H6S15421   1.579   5.274   7.061  0.8486  2.4243  0.7163
  141OSM    H6T15422   1.753   5.279   7.036  0.9048 -1.4795 -0.0107
  141OSM    C7S15423   1.697   5.133   7.175  0.4972  0.6726 -0.1326
  141OSM    H7S15424   1.778   5.057   7.171  1.6088  1.9208 -2.8741
  141OSM    H7T15425   1.607   5.068   7.184 -0.2749  1.7795  0.3192
  141OSM    C8S15426   1.719   5.231   7.282 -0.3602 -0.5590 -0.5064
  141OSM    H8S15427   1.642   5.310   7.271 -0.7328 -0.8252  0.1919
  141OSM    H8T15428   1.818   5.279   7.268 -1.8753  1.8927 -3.3774
  141OSM    C9S15429   1.705   5.163   7.419  0.0080 -0.1599 -0.8018
  141OSM    H9S15430   1.797   5.103   7.434  0.5636  0.4573 -1.6652
  141OSM    H9T15431   1.616   5.096   7.422 -1.4046  1.6357 -1.4440
  141OSM   C10S15432   1.690   5.272   7.529 -1.3450 -0.2293  0.2282
  141OSM   H10S15433   1.598   5.333   7.515 -0.5259  1.0623  0.3990
  141OSM   H10T15434   1.770   5.346   7.507 -2.3646  0.1413 -2.4819
  141OSM   C11S15435   1.699   5.214   7.664 -0.1198  0.4464 -0.5005
  141OSM   H11S15436   1.783   5.142   7.662 -0.1368  0.3918  0.6017
  141OSM   H11T15437   1.607   5.155   7.684 -0.0885  0.3851 -0.5383
  141OSM   C12S15438   1.731   5.313   7.774  0.3307  0.4057  0.9260
  141OSM   H12S15439   1.672   5.406   7.773  2.4011  1.7795  2.6728
  141OSM   H12T15440   1.836   5.349   7.774  0.7838 -0.7996 -0.9764
  141OSM   C13S15441   1.708   5.233   7.901  0.0767  0.7009  0.1323
  141OSM   H13S15442   1.740   5.127   7.893  0.2370  0.7416  0.2390
  141OSM   H13T15443   1.597   5.229   7.908  0.0639  2.4900  1.2056
  141OSM   C14S15444   1.756   5.306   8.025 -0.3405 -0.0085  0.3152
  141OSM   H14S15445   1.727   5.413   8.014  0.6474  0.1376 -0.8982
  141OSM   H14T15446   1.867   5.304   8.031 -0.3319  0.0580  0.1629
  141OSM   C15S15447   1.693   5.234   8.145  0.1717 -0.3918 -0.0072
  141OSM   H15S15448   1.720   5.126   8.140  2.3375  0.0666  1.0472
  141OSM   H15T15449   1.585   5.252   8.129  0.4764  0.2680 -1.3431
  141OSM   C16S15450   1.746   5.285   8.282  0.6705  0.9034  0.0590
  141OSM   H16S15451   1.712   5.391   8.276 -1.4688  0.3900  2.1334
  141OSM   H16T15452   1.857   5.287   8.275  0.6669 -2.5085 -2.1405
  141OSM   C17S15453   1.692   5.204   8.397 -0.5272 -0.5187  0.0327
  141OSM   H17S15454   1.719   5.099   8.373  0.7028 -0.0738 -0.5466
  141OSM   H17T15455   1.582   5.199   8.382 -0.0424 -1.9341 -3.6749
  141OSM   C18S15456   1.741   5.259   8.532 -0.6804  0.6173 -0.0862
  141OSM   H18S15457   1.851   5.275   8.526 -0.7439  0.3013 -2.6035
  141OSM   H18T15458   1.731   5.175   8.604 -0.7609  0.6872 -0.0126
  141OSM   H18U15459   1.681   5.344   8.572 -3.3916 -0.6005 -1.4418
  141OSM    C1F15460   1.967   4.879   6.715  0.0364 -0.1094 -0.7581
  141OSM     OF15461   2.007   4.936   6.611 -0.0052 -0.3183 -0.3418
  141OSM    C2F15462   2.058   4.821   6.820 -0.4974 -0.3031  0.5182
  141OSM    H2F15463   2.117   4.742   6.770 -0.5964  0.1305 -0.2947
  141OSM    H2G15464   2.006   4.774   6.907  1.7399 -0.1825  1.9517
  141OSM    C3F15465   2.147   4.928   6.874  0.4163  0.1828  0.3471
  141OSM    H3F15466   2.223   4.965   6.802  0.6357  0.6685  0.8189
  141OSM    H3G15467   2.218   4.884   6.947  1.6147 -2.8432 -2.5317
  141OSM    C4F15468   2.068   5.046   6.936  0.3062  0.7264 -0.0487
  141OSM    H4F15469   1.998   4.995   7.006 -0.3153  0.8640 -0.5598
  141OSM    H4G15470   1.997   5.093   6.864  0.3337 -0.0365 -0.5895
  141OSM    C5F15471   2.150   5.157   7.006 -0.6391 -0.2457  0.2310
  141OSM    H5F15472   2.083   5.245   7.016  0.0735  0.2293  0.8928
  141OSM    H5G15473   2.234   5.183   6.938 -0.3259  0.6334  0.9471
  141OSM    C6F15474   2.199   5.115   7.144 -0.4245  0.4513 -0.0997
  141OSM    H6F15475   2.288   5.049   7.143  1.1355  2.4991 -1.8025
  141OSM    H6G15476   2.116   5.066   7.199 -0.7831  1.0315 -0.1247
  141OSM    C7F15477   2.217   5.238   7.235 -0.2785  0.1532 -0.1312
  141OSM    H7F15478   2.119   5.290   7.240  0.8035  2.2887 -0.3269
  141OSM    H7G15479   2.286   5.308   7.183  0.3378  0.8678  1.5786
  141OSM    C8F15480   2.257   5.213   7.381  0.6399 -0.1545  0.1513
  141OSM    H8F15481   2.261   5.314   7.428 -1.4171  0.6433 -1.2889
  141OSM    H8G15482   2.362   5.178   7.387  0.4431 -0.6286  0.9271
  141OSM    C9F15483   2.168   5.116   7.459 -0.6266 -0.1070 -0.2964
  141OSM    H9F15484   2.151   5.025   7.401 -0.2424  0.1440 -0.8080
  141OSM   C10F15485   2.112   5.117   7.582 -0.7194  0.5098 -0.9065
  141OSM   H10F15486   2.036   5.047   7.619 -2.6153  2.4998 -0.9526
  141OSM   C11F15487   2.129   5.232   7.675 -0.2368 -0.3858 -0.4950
  141OSM   H11F15488   2.023   5.250   7.700 -0.0012  0.7647 -0.3239
  141OSM   H11G15489   2.182   5.320   7.632  3.5880 -1.1255  2.3693
  141OSM   C12F15490   2.179   5.202   7.825  0.4712  0.2803 -0.0853
  141OSM   H12F15491   2.288   5.186   7.809  0.1988  0.1330 -1.9997
  141OSM   H12G15492   2.124   5.116   7.867 -0.5174  0.0326 -1.8086
  141OSM   C13F15493   2.158   5.326   7.916 -0.1589 -0.3807  0.1023
  141OSM   H13F15494   2.051   5.357   7.917  0.6111  2.4609  0.4933
  141OSM   H13G15495   2.209   5.415   7.873 -0.0452 -0.8753 -0.7820
  141OSM   C14F15496   2.209   5.312   8.056  0.1040  0.1748  0.2884
  141OSM   H14F15497   2.174   5.219   8.107 -1.6488  0.6554  0.0035
  141OSM   H14G15498   2.163   5.395   8.115  0.6824 -1.1646  2.7150
  141OSM   C15F15499   2.362   5.312   8.066  0.1315  0.0824  0.9119
  141OSM   H15F15500   2.410   5.403   8.024 -1.3585  0.3155 -0.3357
  141OSM   H15G15501   2.408   5.229   8.008  0.0689  2.0985 -2.1375
  141OSM   C16F15502   2.422   5.325   8.207  0.0921 -0.6173 -0.8964
  141OSM   H16F15503   2.450   5.429   8.234 -1.9901 -0.6960  1.8125
  141OSM   H16G15504   2.519   5.272   8.193  1.0313  1.2913 -1.7518
  141OSM   C17F15505   2.346   5.260   8.325 -0.7998  0.3851 -0.0057
  141OSM   H17F15506   2.334   5.154   8.295  1.8008 -0.1815  0.8025
  141OSM   H17G15507   2.249   5.313   8.337 -1.8983 -1.9094  1.7049
  141OSM   C18F15508   2.439   5.260   8.444 -0.7395 -0.4722 -0.8946
  141OSM   H18F15509   2.542   5.223   8.424  0.9294  0.7313  4.6974
  141OSM   H18G15510   2.393   5.185   8.512  1.5409 -0.1386  1.0876
  141OSM   H18H15511   2.434   5.363   8.485  1.7817 -0.5143 -0.3945
  142OSM      N15512   2.263   6.537   6.139 -0.2909 -0.3873 -0.1857
  142OSM    C1515513   2.222   6.651   6.055  0.4045 -0.1634  0.2736
  142OSM   H15A15514   2.293   6.663   5.975  1.1252 -0.2200  0.8938
  142OSM   H15B15515   2.234   6.734   6.124 -0.9331  1.6028 -1.5771
  142OSM   H15C15516   2.116   6.649   6.031 -0.6371 -0.5873  4.4793
  142OSM    C1415517   2.259   6.412   6.059 -1.0515  0.3996  0.4111
  142OSM   H14A15518   2.325   6.413   5.973 -0.1162 -1.7136  1.0538
  142OSM   H14B15519   2.155   6.398   6.031 -0.8436  0.2297 -0.2892
  142OSM   H14C15520   2.292   6.324   6.112 -0.8388  0.5781  0.5758
  142OSM    C1315521   2.412   6.557   6.169 -0.6853 -0.0648  0.3419
  142OSM   H13A15522   2.464   6.471   6.209  0.6219  1.9049  3.0352
  142OSM   H13B15523   2.433   6.622   6.252 -0.7740 -1.2670  1.3233
  142OSM   H13C15524   2.461   6.594   6.080 -1.9473  0.0240 -0.3220
  142OSM    C1215525   2.181   6.523   6.261 -0.1805  0.2684 -0.4995
  142OSM   H12A15526   2.186   6.425   6.306  2.4702  0.0444 -1.1723
  142OSM   H12B15527   2.079   6.533   6.227 -0.3001  2.8120  0.5065
  142OSM    C1115528   2.201   6.618   6.387  0.8017 -0.4508  0.0198
  142OSM   H11A15529   2.296   6.591   6.436  1.9576 -0.5912 -2.2184
  142OSM   H11B15530   2.123   6.593   6.462  0.0466  1.0831 -0.2148
  142OSM      P15531   2.061   6.843   6.382  0.2838  0.0741 -0.1940
  142OSM    O1315532   2.062   6.962   6.297 -0.4263  0.1973 -0.5541
  142OSM    O1415533   1.951   6.750   6.360  0.3479 -0.8351 -0.3949
  142OSM    O1115534   2.052   6.881   6.529  0.2204 -0.4076 -0.3004
  142OSM    O1215535   2.198   6.764   6.364  0.7306 -0.0125  0.1400
  142OSM    C1S15536   2.174   6.879   6.601 -0.0310  0.2760  0.6643
  142OSM    H1S15537   2.231   6.968   6.567 -0.5574  0.2930 -0.1989
  142OSM    H1T15538   2.221   6.779   6.585 -0.1414  0.0951  1.4477
  142OSM     NF15539   2.287   6.883   6.824 -0.2889 -0.4702 -0.1539
  142OSM    HNF15540   2.321   6.792   6.848  0.4883  0.0322  0.6999
  142OSM    C2S15541   2.154   6.887   6.758  0.4832 -0.5049  0.3449
  142OSM    H2S15542   2.103   6.981   6.786 -2.6155 -2.3752  1.2738
  142OSM    C3S15543   2.076   6.763   6.810  0.0120  0.7109  0.4999
  142OSM    H3S15544   2.130   6.668   6.792 -1.4816 -0.4844  2.1862
  142OSM     O315545   1.949   6.735   6.744  0.0740 -0.3963 -0.5002
  142OSM    HO315546   1.945   6.810   6.685 -0.2198 -0.5876 -0.7257
  142OSM    C4S15547   2.072   6.780   6.964  0.0568  0.9796 -0.2323
  142OSM    H4S15548   2.151   6.738   7.028  1.0285 -0.1010 -2.0919
  142OSM    C5S15549   1.969   6.838   7.036  0.5032 -0.1581  0.5640
  142OSM    H5S15550   1.876   6.873   6.989 -0.3882  0.9908  3.0538
  142OSM    C6S15551   1.972   6.845   7.189  0.3227 -0.6167 -0.0977
  142OSM    H6S15552   1.892   6.780   7.228 -0.8441  1.2583  0.7204
  142OSM    H6T15553   1.945   6.950   7.214 -0.4747 -0.6538 -0.7836
  142OSM    C7S15554   2.107   6.802   7.267  0.1467 -0.0428 -0.5726
  142OSM    H7S15555   2.197   6.856   7.230  1.5618 -1.6938  0.4088
  142OSM    H7T15556   2.125   6.697   7.237  0.8895 -0.9355  2.7949
  142OSM    C8S15557   2.098   6.791   7.423  0.9177  0.5647 -0.0775
  142OSM    H8S15558   2.014   6.723   7.447 -0.5152  1.7709 -1.5297
  142OSM    H8T15559   2.064   6.892   7.455 -0.6117  0.7985 -2.3161
  142OSM    C9S15560   2.225   6.742   7.484 -0.2584  0.4199  0.4186
  142OSM    H9S15561   2.298   6.824   7.466  0.4434 -0.2612  0.1364
  142OSM    H9T15562   2.250   6.649   7.428  0.3476  0.4564  0.6283
  142OSM   C10S15563   2.209   6.706   7.631  0.0082 -0.6497 -0.0696
  142OSM   H10S15564   2.285   6.632   7.665  1.6674  1.9143  2.0777
  142OSM   H10T15565   2.106   6.664   7.635 -0.8707  1.3736 -0.7804
  142OSM   C11S15566   2.202   6.829   7.722 -0.1770  0.4390 -0.5281
  142OSM   H11S15567   2.121   6.895   7.685  0.0718  0.5286 -0.9200
  142OSM   H11T15568   2.290   6.896   7.723  0.8280 -0.8479 -0.6771
  142OSM   C12S15569   2.158   6.786   7.863  0.6149 -0.3318  0.1615
  142OSM   H12S15570   2.221   6.710   7.914  1.5702 -0.3965 -1.0928
  142OSM   H12T15571   2.053   6.749   7.866  0.9471 -1.1848  1.7456
  142OSM   C13S15572   2.158   6.899   7.961  0.6070 -0.1026 -0.3654
  142OSM   H13S15573   2.090   6.986   7.949 -1.1693 -0.9885  2.7008
  142OSM   H13T15574   2.259   6.947   7.967 -0.1506  1.4794  0.1764
  142OSM   C14S15575   2.128   6.836   8.097 -0.3472  0.0155 -0.0453
  142OSM   H14S15576   2.193   6.748   8.119 -2.0495 -1.6880 -1.6976
  142OSM   H14T15577   2.029   6.786   8.094  0.1941 -1.0200 -0.8473
  142OSM   C15S15578   2.132   6.935   8.213 -0.4923  0.1590 -0.1028
  142OSM   H15S15579   2.062   7.019   8.197 -0.8656 -0.2380 -0.5415
  142OSM   H15T15580   2.238   6.965   8.228 -0.3987 -0.5354  0.7126
  142OSM   C16S15581   2.082   6.867   8.339  0.4839 -0.6845 -0.6348
  142OSM   H16S15582   2.147   6.778   8.353  1.8393  0.2772 -0.7012
  142OSM   H16T15583   1.979   6.825   8.337  0.2741 -0.1681 -0.6311
  142OSM   C17S15584   2.081   6.966   8.464  0.2596  0.3191 -0.2193
  142OSM   H17S15585   2.020   7.048   8.418 -1.6364 -1.8082 -1.6112
  142OSM   H17T15586   2.184   7.007   8.474  0.0272  1.2583 -1.4391
  142OSM   C18S15587   2.010   6.920   8.595 -0.0144  0.1176 -0.3999
  142OSM   H18S15588   1.988   7.010   8.656 -0.7046 -0.4282  0.1696
  142OSM   H18T15589   2.060   6.837   8.650 -0.3378  0.1400 -0.0701
  142OSM   H18U15590   1.909   6.884   8.569 -0.1719  1.0732 -1.1491
  142OSM    C1F15591   2.374   6.985   6.810  0.4409  0.3709  0.3155
  142OSM     OF15592   2.347   7.085   6.744  0.0143  0.7328 -0.7842
  142OSM    C2F15593   2.502   6.977   6.883 -0.3498 -0.1371 -0.0273
  142OSM    H2F15594   2.589   6.969   6.813  1.6425  4.1952  1.7828
  142OSM    H2G15595   2.496   6.883   6.942  1.0883 -0.3151 -0.1313
  142OSM    C3F15596   2.522   7.085   6.975  0.2045  0.1445 -0.1005
  142OSM    H3F15597   2.494   7.180   6.925 -2.1935  0.2647  1.3448
  142OSM    H3G15598   2.623   7.082   7.021  1.0591 -2.2288 -2.0039
  142OSM    C4F15599   2.422   7.074   7.089  0.7149  0.8172  0.1163
  142OSM    H4F15600   2.413   6.969   7.126 -0.7136  1.2642  1.0885
  142OSM    H4G15601   2.317   7.076   7.052 -0.0012  0.2034  2.0477
  142OSM    C5F15602   2.442   7.178   7.198 -0.2298  0.3525 -0.7483
  142OSM    H5F15603   2.347   7.181   7.254 -0.0658  0.3241 -0.4682
  142OSM    H5G15604   2.476   7.276   7.158 -1.7245  1.8985  1.6615
  142OSM    C6F15605   2.541   7.113   7.297  0.4147 -0.0581 -0.3429
  142OSM    H6F15606   2.634   7.071   7.253  0.2388 -0.4473 -0.3375
  142OSM    H6G15607   2.493   7.035   7.359  1.2360 -0.7668 -0.5818
  142OSM    C7F15608   2.588   7.224   7.393  0.1579  0.1667  0.1181
  142OSM    H7F15609   2.503   7.278   7.439  0.5151  0.4880  0.4144
  142OSM    H7G15610   2.649   7.299   7.338 -0.7047 -0.4062 -1.6449
  142OSM    C8F15611   2.669   7.156   7.501 -0.7934 -0.5386 -0.2024
  142OSM    H8F15612   2.745   7.229   7.535  1.1340 -2.8700  0.6754
  142OSM    H8G15613   2.726   7.067   7.465 -0.9150 -0.3163 -0.9379
  142OSM    C9F15614   2.583   7.098   7.609 -0.5793 -0.4451  0.1120
  142OSM    H9F15615   2.494   7.046   7.570 -1.6809 -1.3991  3.6660
  142OSM   C10F15616   2.592   7.126   7.744  0.2312  0.0611 -0.5673
  142OSM   H10F15617   2.520   7.085   7.817 -0.1838  1.8042  0.0255
  142OSM   C11F15618   2.702   7.211   7.810 -0.5172 -0.0009 -0.0779
  142OSM   H11F15619   2.665   7.316   7.819  0.5109  0.3212  0.6164
  142OSM   H11G15620   2.787   7.222   7.739  0.7419 -3.6883  0.7714
  142OSM   C12F15621   2.764   7.154   7.941  0.1752  0.2059  0.6171
  142OSM   H12F15622   2.837   7.230   7.974  0.3932 -0.3192  1.3525
  142OSM   H12G15623   2.813   7.056   7.923 -0.3852  0.3610 -2.0336
  142OSM   C13F15624   2.650   7.145   8.049  0.2165 -0.2365  0.1396
  142OSM   H13F15625   2.600   7.049   8.025 -1.8493  0.9591 -0.5026
  142OSM   H13G15626   2.583   7.232   8.032 -0.7035 -0.6647  1.4726
  142OSM   C14F15627   2.698   7.137   8.189  0.1628  0.6375 -0.4283
  142OSM   H14F15628   2.746   7.234   8.217 -0.6738  0.5466  1.3903
  142OSM   H14G15629   2.768   7.051   8.192  0.1863  0.6397 -0.9656
  142OSM   C15F15630   2.587   7.113   8.293  0.7467 -0.9663  0.8669
  142OSM   H15F15631   2.618   7.054   8.383  2.2911 -0.3528  0.7480
  142OSM   H15G15632   2.522   7.040   8.240  1.1753 -1.7388  1.3804
  142OSM   C16F15633   2.502   7.239   8.318 -1.2403  0.9138 -0.0302
  142OSM   H16F15634   2.481   7.276   8.216  1.9709 -2.7531 -2.1653
  142OSM   H16G15635   2.562   7.308   8.380 -0.4409 -0.4452  0.7454
  142OSM   C17F15636   2.372   7.213   8.398 -0.3705 -0.5691  0.4929
  142OSM   H17F15637   2.402   7.183   8.501 -2.0478  1.8982  1.7393
  142OSM   H17G15638   2.325   7.122   8.354  0.4644 -1.0401  0.5514
  142OSM   C18F15639   2.283   7.331   8.409  0.2133 -0.0282 -0.6124
  142OSM   H18F15640   2.196   7.304   8.473  3.7240 -1.2169  3.8546
  142OSM   H18G15641   2.251   7.363   8.307 -1.1841  0.5197 -0.0102
  142OSM   H18H15642   2.322   7.413   8.472  0.5449 -0.3858 -0.3490
  143OSM      N15643   3.687   1.466   5.997  0.0318  0.5638 -0.3544
  143OSM    C1515644   3.753   1.590   6.047  0.1670 -0.6588 -0.3331
  143OSM   H15A15645   3.742   1.666   5.970 -2.0857 -0.6542 -0.0437
  143OSM   H15B15646   3.859   1.572   6.058  0.3351 -1.1589 -2.4957
  143OSM   H15C15647   3.709   1.635   6.134  0.5306 -1.4969  0.2904
  143OSM    C1415648   3.773   1.403   5.904 -0.0611 -0.0182 -0.2832
  143OSM   H14A15649   3.869   1.382   5.949 -0.1045  1.1057  0.3629
  143OSM   H14B15650   3.785   1.460   5.813  2.6120  2.6794  1.6456
  143OSM   H14C15651   3.728   1.310   5.874 -0.9801 -0.0344  1.1054
  143OSM    C1315652   3.665   1.380   6.115  0.2086  0.4686 -0.6784
  143OSM   H13A15653   3.585   1.310   6.100  0.7852 -0.1623 -0.8400
  143OSM   H13B15654   3.617   1.441   6.189  0.2911  1.5430 -1.4896
  143OSM   H13C15655   3.758   1.335   6.148 -0.7140 -0.4590  0.6748
  143OSM    C1215656   3.557   1.501   5.933 -0.5572  0.0540  0.4677
  143OSM   H12A15657   3.503   1.419   5.887 -0.3808 -0.9366  1.9747
  143OSM   H12B15658   3.585   1.569   5.855  0.4050 -1.3036 -0.3778
  143OSM    C1115659   3.466   1.595   6.020  0.0964 -0.7014 -0.5233
  143OSM   H11A15660   3.371   1.606   5.963 -0.4198  0.7956  0.5675
  143OSM   H11B15661   3.520   1.692   6.024 -0.3175 -0.4657 -0.5776
  143OSM      P15662   3.418   1.639   6.279 -0.1397  0.3864 -0.3585
  143OSM    O1315663   3.361   1.770   6.236  0.4240  0.0017  0.1273
  143OSM    O1415664   3.346   1.564   6.382  0.4550  0.0405 -0.6510
  143OSM    O1115665   3.572   1.664   6.322  0.4130 -0.0434  0.2043
  143OSM    O1215666   3.428   1.546   6.145 -0.0475  0.2483  0.3275
  143OSM    C1S15667   3.602   1.780   6.396  0.0127  0.0713 -0.2718
  143OSM    H1S15668   3.550   1.871   6.360 -0.7789  0.3856  1.6363
  143OSM    H1T15669   3.709   1.808   6.386 -0.4907  2.0236 -0.3542
  143OSM     NF15670   3.616   1.906   6.615  0.0939 -0.7754  0.4568
  143OSM    HNF15671   3.706   1.913   6.657  1.7701 -2.7825 -2.5630
  143OSM    C2S15672   3.571   1.778   6.553  1.1356 -1.1745  0.4015
  143OSM    H2S15673   3.463   1.757   6.538  1.4814 -1.6002 -1.6501
  143OSM    C3S15674   3.627   1.654   6.618  0.2166  0.1796 -0.5432
  143OSM    H3S15675   3.737   1.665   6.613  0.0518  2.2175 -0.3270
  143OSM     O315676   3.605   1.528   6.546 -0.3460 -0.3072 -0.4534
  143OSM    HO315677   3.563   1.548   6.463  1.8165 -0.0767 -1.5151
  143OSM    C4S15678   3.580   1.637   6.760 -0.0798 -0.7119  0.4794
  143OSM    H4S15679   3.473   1.652   6.779  0.0352  0.5879  0.1884
  143OSM    C5S15680   3.662   1.613   6.865 -0.4068  0.4341  0.5656
  143OSM    H5S15681   3.769   1.607   6.842 -0.5259 -0.0417  0.1072
  143OSM    C6S15682   3.623   1.590   7.009  0.6226 -0.0536  0.2113
  143OSM    H6S15683   3.680   1.505   7.052  1.0432 -1.0246 -2.1706
  143OSM    H6T15684   3.514   1.568   7.001  0.9795 -1.5502 -0.6608
  143OSM    C7S15685   3.650   1.715   7.087  0.1791  0.1383 -0.5211
  143OSM    H7S15686   3.586   1.802   7.059 -2.7861 -1.1486  1.9296
  143OSM    H7T15687   3.760   1.725   7.089  0.1819 -0.1156  0.9246
  143OSM    C8S15688   3.611   1.705   7.241 -0.1959  0.5498 -0.2179
  143OSM    H8S15689   3.677   1.625   7.283 -2.2732 -1.2116 -0.2330
  143OSM    H8T15690   3.506   1.673   7.254 -0.4936  1.3112 -0.6896
  143OSM    C9S15691   3.639   1.816   7.334  0.3906  0.4233 -0.6873
  143OSM    H9S15692   3.568   1.900   7.318  0.3324  0.6420  0.6248
  143OSM    H9T15693   3.743   1.855   7.319  1.5458 -1.9505  0.8283
  143OSM   C10S15694   3.640   1.779   7.481 -0.4349  0.7944  0.4425
  143OSM   H10S15695   3.736   1.725   7.493 -0.7205 -0.6630 -3.1773
  143OSM   H10T15696   3.552   1.715   7.501 -1.5046  2.4336  1.1053
  143OSM   C11S15697   3.636   1.904   7.578 -0.7508  0.3661  0.4209
  143OSM   H11S15698   3.540   1.945   7.539 -0.5741 -2.6631 -3.6017
  143OSM   H11T15699   3.717   1.973   7.544  0.6375 -1.5138 -0.1609
  143OSM   C12S15700   3.625   1.880   7.728 -0.0313 -0.0359  0.9511
  143OSM   H12S15701   3.553   1.809   7.774  0.1996 -0.8693  0.0478
  143OSM   H12T15702   3.612   1.984   7.765  1.3594  0.9468 -1.1801
  143OSM   C13S15703   3.771   1.839   7.781 -0.2535  0.2300  0.2103
  143OSM   H13S15704   3.834   1.929   7.767  1.4792 -0.4694  3.1985
  143OSM   H13T15705   3.816   1.751   7.731  3.3480  0.8733  2.1924
  143OSM   C14S15706   3.767   1.803   7.933  1.3583 -0.6135  0.6621
  143OSM   H14S15707   3.693   1.721   7.944  1.6366 -0.8929  0.4646
  143OSM   H14T15708   3.732   1.891   7.992  0.8966 -0.9046  0.8212
  143OSM   C15S15709   3.906   1.756   7.985 -0.5818  0.9233 -0.4291
  143OSM   H15S15710   3.980   1.837   8.000  1.0936 -0.7154  0.4591
  143OSM   H15T15711   3.954   1.690   7.909  0.6927 -0.9801  1.9434
  143OSM   C16S15712   3.895   1.682   8.119 -0.2993  0.1784  0.6372
  143OSM   H16S15713   3.851   1.580   8.120 -0.9561  0.4198 -1.2367
  143OSM   H16T15714   3.846   1.744   8.196 -0.4216 -0.2330  0.8958
  143OSM   C17S15715   4.038   1.665   8.183  0.9521  0.0594 -0.8277
  143OSM   H17S15716   4.097   1.639   8.093 -0.5153 -2.8427 -1.0149
  143OSM   H17T15717   4.038   1.576   8.250  2.4691  0.0703 -0.7825
  143OSM   C18S15718   4.087   1.780   8.266 -0.8817  0.4679  0.7375
  143OSM   H18S15719   4.188   1.765   8.310 -1.4258 -1.0043  1.5161
  143OSM   H18T15720   4.014   1.793   8.349 -0.0590  0.9159  1.3968
  143OSM   H18U15721   4.093   1.874   8.207 -2.3387  1.3537  1.9510
  143OSM    C1F15722   3.550   2.022   6.615 -0.3272 -0.3626 -0.3143
  143OSM     OF15723   3.434   2.012   6.579  0.0107  0.0930  0.5755
  143OSM    C2F15724   3.630   2.150   6.669  0.2041 -0.0014  0.0511
  143OSM    H2F15725   3.637   2.227   6.589  0.7106  0.4710  0.5481
  143OSM    H2G15726   3.733   2.127   6.701  0.3414  0.7419  0.1547
  143OSM    C3F15727   3.558   2.213   6.785  0.0959 -0.1137  0.1613
  143OSM    H3F15728   3.452   2.236   6.760  0.1812  0.7806  0.5906
  143OSM    H3G15729   3.615   2.306   6.806  2.4033 -1.8158  1.6768
  143OSM    C4F15730   3.552   2.133   6.922 -0.1636 -0.0299 -0.3222
  143OSM    H4F15731   3.658   2.103   6.938  0.6956  1.5608 -2.6705
  143OSM    H4G15732   3.488   2.042   6.922 -1.1838  0.6896  0.4002
  143OSM    C5F15733   3.519   2.225   7.049  0.6442 -0.9603  0.0309
  143OSM    H5F15734   3.423   2.277   7.028  1.6999  1.2668  0.5054
  143OSM    H5G15735   3.599   2.299   7.071  1.0422 -0.9603 -1.3468
  143OSM    C6F15736   3.501   2.137   7.174  0.3132 -0.0440 -0.3660
  143OSM    H6F15737   3.597   2.089   7.204  0.8007  1.2505  0.1999
  143OSM    H6G15738   3.431   2.059   7.138  0.9678 -0.4270 -0.8181
  143OSM    C7F15739   3.434   2.216   7.289  0.4673  0.4224  0.0148
  143OSM    H7F15740   3.362   2.157   7.349  0.1464  1.7664  0.9853
  143OSM    H7G15741   3.362   2.286   7.242  0.1491 -0.4133 -0.7686
  143OSM    C8F15742   3.531   2.278   7.393 -0.0729 -0.0094 -0.1150
  143OSM    H8F15743   3.611   2.340   7.348 -0.5589  1.0421  0.4460
  143OSM    H8G15744   3.584   2.200   7.451  1.3901  0.7723 -0.3750
  143OSM    C9F15745   3.464   2.374   7.491 -0.3830  0.0291 -0.0016
  143OSM    H9F15746   3.436   2.470   7.447 -1.7417 -1.0084 -1.4612
  143OSM   C10F15747   3.422   2.344   7.617  0.0275 -0.1561 -0.0064
  143OSM   H10F15748   3.367   2.415   7.681 -0.2123  0.0462 -0.4348
  143OSM   C11F15749   3.442   2.214   7.686  0.3923 -0.8720  0.7864
  143OSM   H11F15750   3.534   2.162   7.651  0.3251  0.9025 -2.1641
  143OSM   H11G15751   3.363   2.141   7.658 -0.9742  0.5513  0.9206
  143OSM   C12F15752   3.437   2.237   7.841  0.0343 -0.0109 -0.1987
  143OSM   H12F15753   3.438   2.134   7.883 -2.0885  0.3086  0.7324
  143OSM   H12G15754   3.346   2.294   7.871 -0.6320 -1.8977  1.4284
  143OSM   C13F15755   3.559   2.299   7.901 -0.8127  0.1899  0.7575
  143OSM   H13F15756   3.565   2.390   7.838 -0.6441 -1.2420 -1.3243
  143OSM   H13G15757   3.650   2.236   7.888  0.3831  1.5887  2.1651
  143OSM   C14F15758   3.548   2.342   8.045  0.1296 -0.6130 -0.6765
  143OSM   H14F15759   3.507   2.258   8.104 -2.1030  1.0295  0.1703
  143OSM   H14G15760   3.484   2.433   8.043 -0.8665 -1.2291  1.5045
  143OSM   C15F15761   3.683   2.373   8.114  0.1635 -0.1149 -0.3928
  143OSM   H15F15762   3.733   2.449   8.051 -1.4728  1.2303 -0.1238
  143OSM   H15G15763   3.738   2.276   8.116  0.8269  0.2771  1.1831
  143OSM   C16F15764   3.679   2.416   8.265 -0.5200  0.0349 -0.0650
  143OSM   H16F15765   3.750   2.351   8.320  1.6566  1.3719 -1.2171
  143OSM   H16G15766   3.581   2.387   8.309 -0.6042  0.4077 -0.0118
  143OSM   C17F15767   3.710   2.564   8.289 -0.3493  0.3598  0.4324
  143OSM   H17F15768   3.674   2.627   8.206 -3.2445 -2.2287 -0.3679
  143OSM   H17G15769   3.819   2.578   8.275 -0.6779  0.0599 -2.6327
  143OSM   C18F15770   3.685   2.627   8.424  0.1556  0.8079 -0.2393
  143OSM   H18F15771   3.762   2.585   8.493  0.3265  3.6254  1.3394
  143OSM   H18G15772   3.589   2.605   8.475  0.5068 -0.2354 -0.0147
  143OSM   H18H15773   3.705   2.736   8.427  0.3346  0.7564  0.6377
  144OSM      N15774   2.056   2.369   5.937  0.3980  0.4799 -0.1715
  144OSM    C1515775   2.085   2.409   6.083 -0.4389  0.4145  0.3035
  144OSM   H15A15776   2.005   2.372   6.146  0.3176 -2.0127 -0.0915
  144OSM   H15B15777   2.092   2.516   6.093 -0.1398  0.3117  1.2378
  144OSM   H15C15778   2.178   2.370   6.121 -0.0092  1.9428  0.8382
  144OSM    C1415779   1.930   2.433   5.900 -0.0697  0.4688  0.4978
  144OSM   H14A15780   1.848   2.396   5.958 -0.0555  0.2035  0.3494
  144OSM   H14B15781   1.911   2.425   5.794 -0.4997 -0.6448  0.6518
  144OSM   H14C15782   1.939   2.537   5.930  1.2546  0.1639  1.1863
  144OSM    C1315783   2.162   2.427   5.851  0.6587 -0.5440 -0.1362
  144OSM   H13A15784   2.160   2.398   5.747  2.2024  0.9487 -0.6232
  144OSM   H13B15785   2.257   2.389   5.887  0.0385 -0.5175  1.5394
  144OSM   H13C15786   2.157   2.535   5.857  0.2029 -0.4733 -1.5543
  144OSM    C1215787   2.047   2.222   5.924  0.3898 -0.0246  0.4140
  144OSM   H12A15788   2.013   2.205   5.823  1.1184  0.7759  0.0314
  144OSM   H12B15789   1.966   2.183   5.984  0.3384  1.5265  1.3839
  144OSM    C1115790   2.180   2.140   5.949  0.6221 -0.0904  0.4494
  144OSM   H11A15791   2.277   2.183   5.918  2.1812 -1.5290  3.1309
  144OSM   H11B15792   2.169   2.046   5.891 -1.3787 -0.0931  0.7872
  144OSM      P15793   2.086   2.029   6.154  0.1865  0.1662  0.1314
  144OSM    O1315794   1.969   2.115   6.185  0.1596  0.5609  0.4886
  144OSM    O1415795   2.063   1.906   6.085 -0.2997  0.0126  0.7120
  144OSM    O1115796   2.157   1.988   6.285  0.6125 -0.0603 -0.3089
  144OSM    O1215797   2.203   2.104   6.086 -0.0973  0.3717 -0.0274
  144OSM    C1S15798   2.237   2.076   6.364 -0.1850 -0.1907 -0.4721
  144OSM    H1S15799   2.197   2.179   6.357  1.0083  0.3081  0.1029
  144OSM    H1T15800   2.344   2.085   6.337 -0.3889 -1.3010 -1.7232
  144OSM     NF15801   2.252   2.136   6.617  0.4057  0.5506 -0.4761
  144OSM    HNF15802   2.346   2.155   6.644  0.6075 -1.1633  0.1066
  144OSM    C2S15803   2.221   2.026   6.517  0.4065 -0.1032  1.1016
  144OSM    H2S15804   2.114   1.996   6.525  1.0175 -2.3411  1.1047
  144OSM    C3S15805   2.304   1.893   6.531 -0.1816  0.1632  0.3089
  144OSM    H3S15806   2.413   1.913   6.530  0.0779 -0.8668  3.2095
  144OSM     O315807   2.280   1.802   6.425 -0.1830 -0.5772  0.3417
  144OSM    HO315808   2.237   1.853   6.356  0.1208  0.7080  1.0824
  144OSM    C4S15809   2.269   1.828   6.664  0.1211 -0.2736  0.0428
  144OSM    H4S15810   2.197   1.745   6.652 -1.5724  1.0355  0.9374
  144OSM    C5S15811   2.324   1.857   6.788  0.1623 -0.1878 -0.5460
  144OSM    H5S15812   2.401   1.936   6.781  0.4073 -0.4300 -0.6143
  144OSM    C6S15813   2.281   1.792   6.918 -0.6726 -0.1345  0.4583
  144OSM    H6S15814   2.265   1.873   6.992  1.0127 -0.4564  1.2211
  144OSM    H6T15815   2.369   1.740   6.962  1.4046  0.9534 -2.2952
  144OSM    C7S15816   2.180   1.680   6.924  0.1417  0.7494  0.5680
  144OSM    H7S15817   2.225   1.591   6.876 -1.6911 -0.4571  1.0022
  144OSM    H7T15818   2.086   1.702   6.868  0.5261 -1.9035 -1.2348
  144OSM    C8S15819   2.140   1.634   7.062  0.0808  0.3666  0.1092
  144OSM    H8S15820   2.085   1.711   7.120  0.7116 -1.8434  3.8052
  144OSM    H8T15821   2.230   1.619   7.125  1.5582  0.8502 -1.8329
  144OSM    C9S15822   2.061   1.505   7.088  0.4302  0.0183  0.1443
  144OSM    H9S15823   2.129   1.423   7.056  1.8412  0.5703  1.6837
  144OSM    H9T15824   1.961   1.511   7.038  0.6969 -1.8834 -0.6428
  144OSM   C10S15825   2.045   1.482   7.241 -0.2632  0.9449 -0.3195
  144OSM   H10S15826   2.035   1.571   7.307 -2.4853  0.5465 -0.0742
  144OSM   H10T15827   2.130   1.420   7.276 -1.3070 -0.6176 -0.4930
  144OSM   C11S15828   1.917   1.403   7.266  0.1072 -0.4087  0.5198
  144OSM   H11S15829   1.913   1.309   7.207  0.6645 -0.4154  0.4856
  144OSM   H11T15830   1.843   1.467   7.215 -0.6357 -2.5654 -1.1673
  144OSM   C12S15831   1.882   1.388   7.415  0.1359 -0.3584 -0.3374
  144OSM   H12S15832   1.774   1.363   7.420 -0.4560  2.0125 -0.8244
  144OSM   H12T15833   1.897   1.479   7.476 -0.2442 -0.8825  0.5581
  144OSM   C13S15834   1.971   1.269   7.472  0.3833  0.1555 -0.1049
  144OSM   H13S15835   2.068   1.323   7.466  1.7619 -2.1849  0.0361
  144OSM   H13T15836   1.965   1.180   7.405 -4.4481  0.9315 -0.8925
  144OSM   C14S15837   1.940   1.243   7.620 -0.3811 -0.6047 -0.2889
  144OSM   H14S15838   1.835   1.206   7.615 -1.3923  2.1620 -0.2030
  144OSM   H14T15839   1.957   1.336   7.679  1.5666 -0.0367 -1.7117
  144OSM   C15S15840   2.030   1.139   7.690 -0.0386 -0.0151  0.1788
  144OSM   H15S15841   2.139   1.158   7.679  0.0458 -0.5851  0.0130
  144OSM   H15T15842   2.016   1.043   7.637  1.0929 -0.7139  1.1091
  144OSM   C16S15843   1.968   1.108   7.830 -0.1308  0.2116 -0.2266
  144OSM   H16S15844   1.863   1.071   7.826  0.4549 -1.8427  1.9002
  144OSM   H16T15845   1.956   1.201   7.890 -2.3667  0.0886 -0.4516
  144OSM   C17S15846   2.062   1.006   7.902  0.3219 -0.1728  0.5777
  144OSM   H17S15847   2.163   1.048   7.920  0.6805 -2.0849  3.2893
  144OSM   H17T15848   2.060   0.916   7.836  1.0574  1.3317 -1.5778
  144OSM   C18S15849   2.015   0.974   8.043  0.9429  0.6782  0.2243
  144OSM   H18S15850   2.008   1.057   8.117 -0.0064 -0.9480  1.9893
  144OSM   H18T15851   2.083   0.900   8.089  3.5590  2.9544  0.1416
  144OSM   H18U15852   1.913   0.932   8.028  0.7571  1.4795 -0.7936
  144OSM    C1F15853   2.161   2.221   6.644 -0.5514  0.3433 -0.5260
  144OSM     OF15854   2.057   2.231   6.587 -0.6150  0.0430 -0.5757
  144OSM    C2F15855   2.197   2.317   6.759 -0.1505  0.5498 -0.0961
  144OSM    H2F15856   2.293   2.364   6.730 -0.0549  0.6188  0.3383
  144OSM    H2G15857   2.214   2.253   6.848  0.2616  0.3432 -0.3224
  144OSM    C3F15858   2.088   2.411   6.786  0.4039  1.0111 -0.6540
  144OSM    H3F15859   1.992   2.360   6.808  0.2585  2.5505  2.5332
  144OSM    H3G15860   2.067   2.476   6.698 -0.4044  2.3852  0.5419
  144OSM    C4F15861   2.114   2.511   6.904  0.0655 -1.0669  0.0232
  144OSM    H4F15862   2.029   2.584   6.900  1.5113  0.7419  1.3620
  144OSM    H4G15863   2.202   2.573   6.877 -0.2616 -1.1548 -1.2819
  144OSM    C5F15864   2.116   2.442   7.033  0.3768  0.7237  0.3051
  144OSM    H5F15865   2.198   2.370   7.051 -1.2364 -1.2983 -0.2236
  144OSM    H5G15866   2.033   2.368   7.031  2.0143 -1.1445 -1.7165
  144OSM    C6F15867   2.113   2.535   7.158  0.4029 -0.3819  0.3236
  144OSM    H6F15868   2.015   2.588   7.156 -0.0928 -1.3332 -2.4366
  144OSM    H6G15869   2.197   2.608   7.152 -0.1626  0.2422 -0.0998
  144OSM    C7F15870   2.123   2.451   7.292  0.1442 -0.2847 -0.6607
  144OSM    H7F15871   2.207   2.379   7.300  1.9887  1.9919  2.1114
  144OSM    H7G15872   2.025   2.405   7.317 -0.5178  0.4614 -1.8817
  144OSM    C8F15873   2.142   2.553   7.408 -0.8741  0.3923  0.7538
  144OSM    H8F15874   2.234   2.613   7.393 -0.4500 -0.8592 -1.9169
  144OSM    H8G15875   2.172   2.495   7.499  0.3574 -0.5075 -0.2051
  144OSM    C9F15876   2.013   2.628   7.422  0.4193  0.2774  0.4947
  144OSM    H9F15877   1.957   2.650   7.330  0.3431  1.8737  0.9026
  144OSM   C10F15878   1.957   2.664   7.535  0.0606 -0.0637  0.2878
  144OSM   H10F15879   1.858   2.713   7.531 -0.3887 -1.0498 -0.7133
  144OSM   C11F15880   2.014   2.650   7.674 -0.6831  0.1486 -0.0008
  144OSM   H11F15881   2.068   2.553   7.681  2.6694  1.8767 -0.7674
  144OSM   H11G15882   1.929   2.648   7.745 -1.7224 -0.2521 -1.2447
  144OSM   C12F15883   2.114   2.763   7.718 -0.2433 -0.7080 -0.6118
  144OSM   H12F15884   2.095   2.857   7.662 -1.3011  1.4312  3.1923
  144OSM   H12G15885   2.222   2.744   7.701  0.5547  3.3597 -0.4919
  144OSM   C13F15886   2.086   2.810   7.863  0.2464 -0.0206 -0.4612
  144OSM   H13F15887   2.085   2.711   7.914 -0.7893 -0.4618 -1.3033
  144OSM   H13G15888   1.983   2.852   7.874  0.5909  0.3307  1.6556
  144OSM   C14F15889   2.184   2.918   7.923 -0.1395 -0.5367 -0.3391
  144OSM   H14F15890   2.162   3.006   7.860 -3.4331  1.2690  3.1415
  144OSM   H14G15891   2.290   2.892   7.903  1.0368  1.8538  2.4167
  144OSM   C15F15892   2.174   2.941   8.072 -0.1230 -0.2606  0.2351
  144OSM   H15F15893   2.183   2.847   8.131  2.3981  0.1421  0.5806
  144OSM   H15G15894   2.074   2.988   8.078 -0.0493 -0.2796  1.9500
  144OSM   C16F15895   2.289   3.035   8.126  0.9704 -0.3322  0.2982
  144OSM   H16F15896   2.320   3.096   8.039  1.4131 -1.1059 -0.0995
  144OSM   H16G15897   2.379   2.971   8.139  1.1766 -0.1362 -0.1635
  144OSM   C17F15898   2.261   3.126   8.245 -0.0035 -0.0101  0.7810
  144OSM   H17F15899   2.231   3.073   8.338  0.8196 -1.5013  0.2070
  144OSM   H17G15900   2.185   3.203   8.221 -0.5333 -0.3026  1.4972
  144OSM   C18F15901   2.385   3.213   8.277  0.4522 -0.3011  0.1099
  144OSM   H18F15902   2.476   3.152   8.296  0.8245 -0.4706 -2.0789
  144OSM   H18G15903   2.367   3.280   8.363 -0.3018  2.5652 -2.2142
  144OSM   H18H15904   2.404   3.279   8.190 -0.8218  2.6619  2.0267
  145SAPE     N15905   1.288   3.497  10.549 -0.4971 -0.2360  0.4968
  145SAPE   HN115906   1.384   3.520  10.516 -1.0421 -0.2261 -1.1345
  145SAPE   HN215907   1.243   3.567  10.611 -1.1916  0.4105 -0.7276
  145SAPE   HN315908   1.297   3.404  10.594 -2.3561 -0.4007  0.5389
  145SAPE   C1215909   1.214   3.494  10.418  0.7696  0.0781 -0.3724
  145SAPE  H12A15910   1.229   3.592  10.367 -0.5790  0.6089  0.2330
  145SAPE  H12B15911   1.108   3.490  10.452  1.2057 -1.5673  0.8433
  145SAPE   C1115912   1.259   3.372  10.329  0.7577 -0.0517  0.3303
  145SAPE  H11A15913   1.350   3.401  10.272 -0.0856 -0.9574 -1.5342
  145SAPE  H11B15914   1.177   3.352  10.256  1.0136 -0.4018  0.1390
  145SAPE     P15915   1.216   3.145  10.446  0.2058 -0.1264  0.2014
  145SAPE   O1315916   1.303   3.054  10.517  0.4536  0.2306 -0.1095
  145SAPE   O1415917   1.113   3.200  10.535 -0.6014 -0.4947 -0.0131
  145SAPE   O1215918   1.301   3.267  10.411 -0.0857  0.4716 -0.2509
  145SAPE   O1115919   1.161   3.088  10.306 -0.2222 -0.5464  0.9503
  145SAPE    C115920   1.254   3.065  10.202 -0.3700  0.1040  0.3500
  145SAPE    HA15921   1.199   3.095  10.110 -0.1271  0.2668  0.2572
  145SAPE    HB15922   1.345   3.126  10.218 -1.4736  1.0733  3.3099
  145SAPE    C215923   1.297   2.920  10.181  0.6958  0.0888  0.5819
  145SAPE    HS15924   1.378   2.898  10.254  1.1333  0.9646  0.3608
  145SAPE   O2115925   1.317   2.892  10.039 -0.1985 -0.0503  0.2342
  145SAPE   C2115926   1.438   2.939   9.997 -0.2555  0.5027  0.7106
  145SAPE   O2215927   1.510   3.009  10.066  0.2761  0.2141 -0.2294
  145SAPE   C2215928   1.468   2.888   9.858  1.4374  0.0678  0.3980
  145SAPE   H2R15929   1.425   2.786   9.843  0.1368  0.9176 -1.8912
  145SAPE   H2S15930   1.417   2.966   9.797  0.3460 -0.1898  0.9632
  145SAPE    C315931   1.182   2.816  10.219 -0.5302  0.2306 -0.5082
  145SAPE    HX15932   1.098   2.844  10.152 -0.0124  1.0769 -0.7934
  145SAPE    HY15933   1.147   2.840  10.322 -1.5960 -1.7491 -0.3692
  145SAPE   O3115934   1.210   2.672  10.202  0.0750  0.3048 -0.5228
  145SAPE   C3115935   1.320   2.620  10.258 -0.2281  0.0942 -0.8214
  145SAPE   O3215936   1.399   2.679  10.329  0.2927  0.0545 -0.4428
  145SAPE   C3215937   1.331   2.475  10.211 -0.5210  0.2455 -0.3764
  145SAPE   H2X15938   1.240   2.429  10.167 -0.4226 -1.9279  1.5717
  145SAPE   H2Y15939   1.338   2.417  10.305  0.7994 -0.8413 -1.1310
  145SAPE   C2315940   1.612   2.903   9.814  0.3370  0.0787 -0.1317
  145SAPE   H3R15941   1.677   2.849   9.887  2.6959 -0.7833 -2.7931
  145SAPE   H3S15942   1.650   3.007   9.812 -1.0761  0.6537  1.6610
  145SAPE   C2415943   1.631   2.849   9.672 -0.0718 -0.3549  0.3693
  145SAPE   H4R15944   1.737   2.872   9.652  1.2531 -1.7983  5.1088
  145SAPE   H4S15945   1.572   2.917   9.606 -1.1976  0.5335  2.2414
  145SAPE   C2515946   1.613   2.705   9.655 -0.6801  0.1882  0.4772
  145SAPE   H5R15947   1.627   2.644   9.746 -0.7166 -0.8976 -0.2440
  145SAPE   C2615948   1.570   2.646   9.542 -1.0572  0.4389 -0.1171
  145SAPE   H6R15949   1.577   2.536   9.545 -1.3640  0.4590  1.3235
  145SAPE   C2715950   1.547   2.709   9.407 -0.1534 -0.0978 -0.9148
  145SAPE   H7R15951   1.617   2.654   9.341 -0.6847 -1.2822 -0.5017
  145SAPE   H7S15952   1.589   2.812   9.417 -0.0592 -0.3164  1.1914
  145SAPE   C2815953   1.412   2.707   9.344 -0.4807  0.1679  0.2207
  145SAPE   H8R15954   1.350   2.616   9.354 -2.8638  1.5653 -1.3957
  145SAPE   C2915955   1.347   2.809   9.285  1.0821 -0.3197 -0.2016
  145SAPE   H9R15956   1.246   2.794   9.244 -0.3298  2.8309  1.9357
  145SAPE  C21015957   1.400   2.948   9.262  0.0505 -0.6201 -0.9435
  145SAPE  H10R15958   1.425   2.990   9.363  2.9531  2.3776 -2.7911
  145SAPE  H10S15959   1.303   2.997   9.238  0.0068 -0.1968  0.0494
  145SAPE  C21115960   1.505   2.962   9.152  0.0001  0.1616  0.2273
  145SAPE  H11R15961   1.605   2.979   9.195  1.3402  0.5766 -2.8482
  145SAPE  C21215962   1.484   2.961   9.019 -0.3838 -0.0997  0.2133
  145SAPE  H12R15963   1.571   2.971   8.953  0.3464 -3.1812  0.6338
  145SAPE  C21315964   1.353   2.940   8.948 -0.4909 -0.1599 -0.1948
  145SAPE  H13R15965   1.278   3.005   8.999  0.2073  0.9995 -0.6128
  145SAPE  H13S15966   1.314   2.837   8.956  3.2502 -1.6378  0.1205
  145SAPE  C21415967   1.359   2.952   8.796 -0.4587 -0.4126  0.1890
  145SAPE  H14R15968   1.431   2.889   8.742  1.3379  1.0553  0.8199
  145SAPE  C21515969   1.281   3.038   8.728 -0.8690 -0.3629 -0.3937
  145SAPE  H15R15970   1.287   3.046   8.618 -4.1448 -2.2681 -0.7623
  145SAPE  C21615971   1.179   3.128   8.788 -0.2211 -0.5061 -0.1834
  145SAPE  H16R15972   1.225   3.195   8.863 -0.7208 -0.5366  0.1512
  145SAPE  H16S15973   1.105   3.076   8.852 -0.4992 -1.7148 -1.4482
  145SAPE  C21715974   1.104   3.216   8.683  0.1073 -0.3913 -0.2689
  145SAPE  H17R15975   1.052   3.152   8.608  0.5901 -2.8734  1.4516
  145SAPE  H17S15976   1.186   3.275   8.635  0.2401 -1.1001 -0.9209
  145SAPE  C21815977   1.002   3.321   8.742  0.0769 -0.4164 -0.1474
  145SAPE  H18R15978   0.916   3.269   8.788  1.4061 -1.2619  1.4199
  145SAPE  H18S15979   0.962   3.390   8.664  3.3648  2.0880  0.2407
  145SAPE  C21915980   1.067   3.416   8.845 -0.0270 -0.1912  0.0166
  145SAPE  H19R15981   1.138   3.486   8.797 -0.1904 -0.4196 -0.5718
  145SAPE  H19S15982   1.108   3.352   8.926 -0.0982 -0.6428 -0.3029
  145SAPE  C22015983   0.960   3.503   8.913  0.3945  0.2011 -1.2091
  145SAPE  H20R15984   0.982   3.533   9.018 -2.5523  0.5146 -0.6532
  145SAPE  H20S15985   0.864   3.448   8.916  1.4032 -1.5589 -0.3401
  145SAPE  H20T15986   0.945   3.596   8.855 -0.1118  0.4447 -0.6922
  145SAPE   C3315987   1.462   2.456  10.129  0.0455 -0.3650  0.0348
  145SAPE   H3X15988   1.496   2.353  10.104 -3.7981 -1.6082 -0.3078
  145SAPE   H3Y15989   1.545   2.515  10.173 -0.4127  0.0095  0.3898
  145SAPE   C3415990   1.428   2.519   9.985  0.3558  0.3841 -0.2513
  145SAPE   H4X15991   1.523   2.512   9.928  0.1864 -0.9834 -0.3765
  145SAPE   H4Y15992   1.393   2.623   9.970  0.0391  0.4299  0.7182
  145SAPE   C3515993   1.335   2.423   9.906 -0.1495 -0.1424  0.3509
  145SAPE   H5X15994   1.230   2.437   9.942  0.3956  0.2885  1.8218
  145SAPE   H5Y15995   1.358   2.318   9.935  0.9670 -0.3485 -1.2303
  145SAPE   C3615996   1.354   2.434   9.757  0.3750  0.3556 -0.6261
  145SAPE   H6X15997   1.460   2.421   9.726 -0.0874  0.3338 -2.2382
  145SAPE   H6Y15998   1.318   2.536   9.736  0.3638  0.6686  0.8133
  145SAPE   C3715999   1.274   2.309   9.696 -0.1821  0.3107 -0.0754
  145SAPE   H7X16000   1.195   2.270   9.765  0.2657 -0.7927 -0.1697
  145SAPE   H7Y16001   1.349   2.228   9.683 -1.5620 -0.5799 -2.9090
  145SAPE   C3816002   1.211   2.342   9.563  0.3399  0.1593 -0.0980
  145SAPE   H8X16003   1.161   2.440   9.575 -0.2966 -0.4894  3.0682
  145SAPE   H8Y16004   1.136   2.266   9.531  2.1113 -1.7226  0.0657
  145SAPE   C3916005   1.312   2.354   9.444  0.0206  0.4603  0.1709
  145SAPE   H9X16006   1.367   2.257   9.444 -0.4667  0.1838 -0.8569
  145SAPE   H9Y16007   1.386   2.431   9.476 -0.5695  1.0086  0.2324
  145SAPE  C31016008   1.253   2.372   9.300 -0.0462 -0.3411 -0.3785
  145SAPE  H10X16009   1.192   2.464   9.295 -2.2400 -1.6777  0.8208
  145SAPE  H10Y16010   1.185   2.286   9.283  0.4264 -1.2873  2.2615
  145SAPE  C31116011   1.354   2.368   9.189 -0.2033 -0.0969  0.2377
  145SAPE  H11X16012   1.407   2.273   9.215  1.5244  0.2886 -1.7178
  145SAPE  H11Y16013   1.435   2.444   9.194 -0.5183  0.2010  0.8559
  145SAPE  C31216014   1.289   2.356   9.049  0.0611 -0.4508 -0.9190
  145SAPE  H12X16015   1.221   2.268   9.051 -1.3877  0.6452 -1.3100
  145SAPE  H12Y16016   1.364   2.329   8.972  0.3301  0.4273 -0.9643
  145SAPE  C31316017   1.209   2.481   9.013  0.7327 -0.5015  0.5788
  145SAPE  H13X16018   1.269   2.574   9.008  1.1151 -0.6654  2.0501
  145SAPE  H13Y16019   1.131   2.487   9.091  0.0553 -0.3363 -0.1093
  145SAPE  C31416020   1.146   2.466   8.871 -0.5345 -0.0605 -0.6209
  145SAPE  H14X16021   1.064   2.394   8.889 -0.7012 -0.3202 -2.3537
  145SAPE  H14Y16022   1.225   2.436   8.799 -1.7467 -2.1517 -1.1080
  145SAPE  C31516023   1.087   2.600   8.824  0.0747 -0.9196  0.3607
  145SAPE  H15X16024   1.165   2.676   8.802 -1.6097  1.0465  1.0725
  145SAPE  H15Y16025   1.020   2.638   8.904 -2.4916 -3.7658 -0.3650
  145SAPE  C31616026   1.000   2.573   8.703 -0.1545 -0.0970  0.4133
  145SAPE  H16X16027   0.927   2.496   8.737 -0.3553 -0.2715 -0.4067
  145SAPE  H16Y16028   1.049   2.546   8.607 -2.4676  0.4716 -0.9859
  145SAPE  C31716029   0.907   2.693   8.657  0.8154  0.0643 -0.6864
  145SAPE  H17X16030   0.974   2.776   8.626  0.2411  0.0022 -2.1134
  145SAPE  H17Y16031   0.856   2.728   8.750 -0.8059 -0.4166 -1.3734
  145SAPE  C31816032   0.816   2.664   8.544  0.2149  0.2247  0.0932
  145SAPE  H18X16033   0.878   2.611   8.469  0.5896  0.7773  0.0188
  145SAPE  H18Y16034   0.763   2.751   8.499 -2.3710 -0.6097  1.3931
  145SAPE  H18Z16035   0.740   2.594   8.586  0.6234  0.9374  2.0846
  146SAPE     N16036   0.218   3.818  10.867  0.1982  0.6016  0.3879
  146SAPE   HN116037   0.129   3.853  10.906  0.2865  1.3426 -0.0729
  146SAPE   HN216038   0.198   3.735  10.808 -1.2207 -0.5236  2.3871
  146SAPE   HN316039   0.287   3.781  10.936 -0.7700  1.1355  1.6505
  146SAPE   C1216040   0.274   3.918  10.775 -0.1088  0.0630  0.1648
  146SAPE  H12A16041   0.381   3.898  10.750  0.3740  1.2702  1.1397
  146SAPE  H12B16042   0.280   4.006  10.843  1.5426  0.7540 -0.8488
  146SAPE   C1116043   0.181   3.929  10.654 -0.3251 -0.2552 -0.3699
  146SAPE  H11A16044   0.180   3.833  10.599 -0.7057  0.6756 -2.0073
  146SAPE  H11B16045   0.226   3.999  10.581 -2.1646  0.3882 -0.9177
  146SAPE     P16046  -0.031   4.093  10.684 -0.0082  0.5037  0.1152
  146SAPE   O1316047  -0.177   4.065  10.682  0.4125  0.6159 -0.3870
  146SAPE   O1416048   0.021   4.174  10.794  0.0931  0.0220  0.0863
  146SAPE   O1216049   0.047   3.952  10.691  0.3160 -0.1922  0.0466
  146SAPE   O1116050   0.010   4.153  10.541 -0.0670 -0.2134 -0.4624
  146SAPE    C116051  -0.044   4.103  10.421 -0.8725  0.0774  0.2740
  146SAPE    HA16052  -0.008   3.999  10.406  3.7176  1.3614  1.6100
  146SAPE    HB16053  -0.155   4.108  10.411 -0.7629 -0.0697 -1.0781
  146SAPE    C216054   0.041   4.179  10.309  0.7514 -0.2337 -0.3151
  146SAPE    HS16055   0.026   4.289  10.318  2.1375 -0.1477  1.2553
  146SAPE   O2116056   0.007   4.136  10.170  0.1292  0.7454 -0.3314
  146SAPE   C2116057  -0.116   4.153  10.130 -0.2080  0.1275 -0.0622
  146SAPE   O2216058  -0.198   4.227  10.176  0.1518 -0.0390  0.3797
  146SAPE   C2216059  -0.133   4.064  10.006  0.3862  0.1141  0.5104
  146SAPE   H2R16060  -0.213   4.107   9.941  0.1502 -1.1225 -0.0179
  146SAPE   H2S16061  -0.037   4.054   9.951  0.0107  1.9624 -0.5184
  146SAPE    C316062   0.196   4.168  10.340 -0.0460  0.8134 -0.6700
  146SAPE    HX16063   0.217   4.061  10.362 -0.2413  0.9347  0.1434
  146SAPE    HY16064   0.224   4.210  10.439 -0.3411  1.1430 -0.7248
  146SAPE   O3116065   0.281   4.210  10.234 -0.3283  0.0594  0.0984
  146SAPE   C3116066   0.322   4.328  10.235 -0.3080 -0.3066  0.0356
  146SAPE   O3216067   0.304   4.412  10.326 -0.2369 -0.4325  0.0667
  146SAPE   C3216068   0.407   4.354  10.120 -0.3512 -0.1802  0.4850
  146SAPE   H2X16069   0.507   4.350  10.168 -0.3686 -0.9544  0.4665
  146SAPE   H2Y16070   0.394   4.458  10.081 -2.5544 -1.0777 -1.3294
  146SAPE   C2316071  -0.172   3.915  10.058 -0.3963 -0.1459 -0.0513
  146SAPE   H3R16072  -0.239   3.912  10.146 -0.9886 -3.3757 -0.5152
  146SAPE   H3S16073  -0.074   3.876  10.093  0.4609  0.6500 -1.5323
  146SAPE   C2416074  -0.216   3.827   9.940  0.2304  0.0720 -0.3815
  146SAPE   H4R16075  -0.300   3.885   9.899  0.1700 -0.5626 -1.1713
  146SAPE   H4S16076  -0.255   3.727   9.968 -0.6012  0.6635  0.5911
  146SAPE   C2516077  -0.114   3.817   9.828 -0.5430  0.1076  0.0742
  146SAPE   H5R16078  -0.021   3.763   9.853  0.6960  1.0194 -2.4111
  146SAPE   C2616079  -0.120   3.860   9.702 -0.2941  0.4862 -0.4009
  146SAPE   H6R16080  -0.034   3.834   9.638 -1.9469  0.0093 -2.5077
  146SAPE   C2716081  -0.225   3.940   9.631 -0.5658 -0.1372  0.3444
  146SAPE   H7R16082  -0.246   4.030   9.693  0.8318  0.7077 -0.3698
  146SAPE   H7S16083  -0.318   3.881   9.621 -1.6582  1.3767  1.3371
  146SAPE   C2816084  -0.168   3.996   9.501  0.6505 -0.2690  0.1195
  146SAPE   H8R16085  -0.167   4.106   9.499 -1.7319 -0.2511 -1.3048
  146SAPE   C2916086  -0.128   3.932   9.387  0.0226 -0.8283  0.3937
  146SAPE   H9R16087  -0.089   3.993   9.304 -2.0080 -0.9640 -0.6881
  146SAPE  C21016088  -0.132   3.790   9.358 -0.1531  0.4555  0.0696
  146SAPE  H10R16089  -0.149   3.725   9.446 -1.1423  0.1377 -0.3461
  146SAPE  H10S16090  -0.026   3.762   9.344  0.0291  1.7961 -1.4249
  146SAPE  C21116091  -0.204   3.761   9.228  0.1522 -0.1112  0.5715
  146SAPE  H11R16092  -0.297   3.820   9.218 -1.8297 -2.9246  1.8253
  146SAPE  C21216093  -0.175   3.675   9.126  0.6826  0.0311 -1.4407
  146SAPE  H12R16094  -0.249   3.681   9.045 -2.0550 -1.6820  0.7918
  146SAPE  C21316095  -0.064   3.572   9.120  0.0476 -0.2809 -0.7196
  146SAPE  H13R16096  -0.104   3.468   9.128 -4.5276  1.2893 -1.6060
  146SAPE  H13S16097  -0.000   3.589   9.210 -1.6871 -0.6136  0.6173
  146SAPE  C21416098   0.020   3.579   8.992 -0.2090  0.5797  0.3204
  146SAPE  H14R16099   0.033   3.484   8.939  0.7231  0.4106  0.8406
  146SAPE  C21516100   0.099   3.686   8.953 -0.6381  0.4591 -0.8009
  146SAPE  H15R16101   0.156   3.678   8.859  0.4146 -0.6593 -0.0767
  146SAPE  C21616102   0.125   3.816   9.028 -0.4722  0.2146  0.3226
  146SAPE  H16R16103   0.077   3.817   9.128 -1.7260 -0.5443 -0.2521
  146SAPE  H16S16104   0.068   3.888   8.966  0.5212  0.4429 -0.3442
  146SAPE  C21716105   0.271   3.860   9.049  0.2431  0.4168  0.2253
  146SAPE  H17R16106   0.300   3.797   9.136  0.0037  1.1498  0.8494
  146SAPE  H17S16107   0.268   3.971   9.058  0.0323  0.6103 -1.9747
  146SAPE  C21816108   0.367   3.827   8.939 -0.3298  0.3547  0.7956
  146SAPE  H18R16109   0.388   3.720   8.917  1.2163  1.0086 -1.0750
  146SAPE  H18S16110   0.471   3.856   8.965  0.1617  1.5856 -2.2855
  146SAPE  C21916111   0.342   3.903   8.810 -0.4148  0.1675  0.3593
  146SAPE  H19R16112   0.363   4.012   8.821  0.4449 -0.0441  0.8402
  146SAPE  H19S16113   0.235   3.899   8.781 -0.0623  1.6098 -1.1925
  146SAPE  C22016114   0.422   3.862   8.696 -0.0490 -0.0954  0.0775
  146SAPE  H20R16115   0.526   3.882   8.729  0.2613  0.2997 -1.0950
  146SAPE  H20S16116   0.388   3.926   8.611 -2.2885 -0.2066  0.8615
  146SAPE  H20T16117   0.393   3.758   8.668 -3.3609  0.6627  0.4634
  146SAPE   C3316118   0.398   4.263   9.995  0.2121 -0.1469 -0.1905
  146SAPE   H3X16119   0.426   4.161  10.031 -3.2153 -1.0308  0.1459
  146SAPE   H3Y16120   0.478   4.295   9.925  0.3447  0.7382  0.3559
  146SAPE   C3416121   0.270   4.239   9.918  0.4357  0.2012  0.0856
  146SAPE   H4X16122   0.189   4.218   9.991  0.7074 -0.1145  0.2940
  146SAPE   H4Y16123   0.265   4.153   9.848 -1.4557 -1.5720  2.3257
  146SAPE   C3516124   0.226   4.362   9.832  0.1827 -0.0926 -0.2869
  146SAPE   H5X16125   0.305   4.378   9.756 -0.4752 -0.5022 -1.0524
  146SAPE   H5Y16126   0.198   4.450   9.894 -0.0687 -0.7174  0.5081
  146SAPE   C3616127   0.097   4.334   9.742  0.2095 -0.0750 -0.1188
  146SAPE   H6X16128  -0.004   4.327   9.789 -0.0386 -1.1226 -0.8131
  146SAPE   H6Y16129   0.112   4.231   9.705  0.5324  0.1680 -0.6683
  146SAPE   C3716130   0.090   4.429   9.619  0.2628  0.2362 -0.3331
  146SAPE   H7X16131   0.188   4.407   9.573  0.4103 -1.5719  0.7843
  146SAPE   H7Y16132   0.081   4.535   9.650  0.9415 -0.2041  1.4017
  146SAPE   C3816133  -0.013   4.394   9.510 -0.3031 -0.5601  1.0811
  146SAPE   H8X16134  -0.115   4.404   9.552 -0.1885  2.2936  0.7840
  146SAPE   H8Y16135   0.006   4.290   9.476 -1.4642 -0.2683 -0.4911
  146SAPE   C3916136  -0.005   4.501   9.393 -0.1019 -1.2882 -0.6397
  146SAPE   H9X16137   0.086   4.492   9.330  0.3636  1.3594 -0.4126
  146SAPE   H9Y16138  -0.009   4.599   9.445 -2.9767 -0.1889 -2.7802
  146SAPE  C31016139  -0.121   4.505   9.294  0.6610  1.0174  0.7136
  146SAPE  H10X16140  -0.103   4.584   9.218  0.9907  0.1286 -0.1439
  146SAPE  H10Y16141  -0.212   4.541   9.346 -0.3501  2.4360 -1.9507
  146SAPE  C31116142  -0.162   4.374   9.222 -0.5844 -0.3041 -0.1685
  146SAPE  H11X16143  -0.244   4.323   9.278 -0.7164  1.3753  1.2104
  146SAPE  H11Y16144  -0.072   4.309   9.213  0.1337  0.8621 -1.5216
  146SAPE  C31216145  -0.216   4.402   9.080  0.6283  0.1020 -0.4359
  146SAPE  H12X16146  -0.241   4.299   9.047  0.0205  0.4893 -1.1991
  146SAPE  H12Y16147  -0.148   4.456   9.010  0.8547 -4.0376 -3.6124
  146SAPE  C31316148  -0.348   4.476   9.073  0.3148  0.4714 -0.1188
  146SAPE  H13X16149  -0.339   4.583   9.101  0.8923 -0.2854  2.7499
  146SAPE  H13Y16150  -0.414   4.432   9.151  1.5012  1.0324  1.2304
  146SAPE  C31416151  -0.415   4.452   8.937 -0.0825 -0.5010 -0.7050
  146SAPE  H14X16152  -0.430   4.342   8.936  1.2540 -0.6813 -1.4338
  146SAPE  H14Y16153  -0.351   4.481   8.851 -0.8718 -0.2444 -1.2152
  146SAPE  C31516154  -0.539   4.533   8.920 -0.1035 -0.0225  0.6553
  146SAPE  H15X16155  -0.574   4.524   8.814  3.0521  0.1971 -0.4665
  146SAPE  H15Y16156  -0.517   4.638   8.946  0.7861  0.6232 -2.5269
  146SAPE  C31616157  -0.657   4.483   9.012  0.1140  0.8625 -0.3421
  146SAPE  H16X16158  -0.631   4.515   9.115 -1.7724  1.2995  0.0119
  146SAPE  H16Y16159  -0.660   4.373   8.995  1.1602  1.0979 -2.1451
  146SAPE  C31716160  -0.788   4.549   8.978  0.1417 -0.1746 -0.5708
  146SAPE  H17X16161  -0.772   4.658   8.975 -1.8722  0.1593 -0.1098
  146SAPE  H17Y16162  -0.852   4.538   9.068  0.3686  0.6908 -0.3062
  146SAPE  C31816163  -0.859   4.503   8.848 -0.2654 -0.2168 -0.3481
  146SAPE  H18X16164  -0.894   4.399   8.866 -1.2418 -0.3651 -2.9127
  146SAPE  H18Y16165  -0.790   4.511   8.761  0.0459  2.1683  0.0848
  146SAPE  H18Z16166  -0.944   4.568   8.820 -1.8531 -1.7309  0.8974
  147SAPE     N16167   1.707   0.129  11.186 -0.4366  0.0259  0.5711
  147SAPE   HN116168   1.793   0.185  11.204 -1.2460  1.6440 -0.5159
  147SAPE   HN216169   1.622   0.171  11.227 -0.4183  2.8479 -2.0580
  147SAPE   HN316170   1.715   0.034  11.227  1.7865  0.6534  1.6758
  147SAPE   C1216171   1.696   0.127  11.031  0.1800  0.0085 -0.9244
  147SAPE  H12A16172   1.794   0.090  10.993  0.9073  1.3718 -0.4125
  147SAPE  H12B16173   1.701   0.235  11.003  1.1309  0.3149  0.3653
  147SAPE   C1116174   1.575   0.053  10.979  0.0652 -0.3215 -0.8684
  147SAPE  H11A16175   1.572   0.071  10.870  1.2681 -2.5270 -1.2943
  147SAPE  H11B16176   1.484   0.101  11.021  0.0099 -1.9706  0.9960
  147SAPE     P16177   1.491  -0.195  10.948 -0.1280  0.1576 -0.2274
  147SAPE   O1316178   1.574  -0.316  10.934  0.3343 -0.1091 -0.2584
  147SAPE   O1416179   1.368  -0.212  11.029 -0.0799 -0.2621  0.5757
  147SAPE   O1216180   1.578  -0.088  11.012 -0.3013 -1.3432  0.6086
  147SAPE   O1116181   1.454  -0.136  10.805  0.1098 -0.5717 -0.4213
  147SAPE    C116182   1.500  -0.187  10.682 -0.1085 -0.7795 -0.5652
  147SAPE    HA16183   1.476  -0.294  10.672  1.3844 -1.1260 -0.6553
  147SAPE    HB16184   1.451  -0.137  10.596 -1.6962 -2.3248 -0.5605
  147SAPE    C216185   1.649  -0.147  10.665 -0.5431  0.0988 -0.4903
  147SAPE    HS16186   1.707  -0.175  10.755 -1.6326 -2.0026 -0.4118
  147SAPE   O2116187   1.661  -0.002  10.649  0.4467  0.0544  0.5779
  147SAPE   C2116188   1.780   0.048  10.652  0.1734  0.3739 -0.0975
  147SAPE   O2216189   1.880  -0.005  10.700  0.0463  0.4636 -0.9248
  147SAPE   C2216190   1.773   0.195  10.597  0.2695 -0.9414 -0.5465
  147SAPE   H2R16191   1.711   0.200  10.505  1.3630 -1.5522 -1.3393
  147SAPE   H2S16192   1.715   0.235  10.682 -0.5234 -2.0604 -0.5643
  147SAPE    C316193   1.703  -0.223  10.545  0.2420  0.0799 -0.3031
  147SAPE    HX16194   1.810  -0.199  10.526  0.2091 -0.3311 -1.0549
  147SAPE    HY16195   1.649  -0.188  10.455  0.0589 -2.7758 -1.3689
  147SAPE   O3116196   1.691  -0.366  10.575 -0.3157 -0.6981  0.0158
  147SAPE   C3116197   1.772  -0.441  10.491  0.1159  0.9668  0.6870
  147SAPE   O3216198   1.823  -0.399  10.387 -0.3485  0.4143 -1.0065
  147SAPE   C3216199   1.787  -0.580  10.558 -0.2071  0.2956 -0.4447
  147SAPE   H2X16200   1.688  -0.630  10.560  0.1910 -0.4568  0.2890
  147SAPE   H2Y16201   1.811  -0.562  10.664  1.6982 -3.4808 -0.1555
  147SAPE   C2316202   1.899   0.288  10.595  0.8457  0.2833  0.5700
  147SAPE   H3R16203   1.964   0.244  10.673 -0.0235 -1.9291  0.0839
  147SAPE   H3S16204   1.863   0.386  10.634 -0.2267 -0.7912  2.3550
  147SAPE   C2416205   1.981   0.283  10.462 -0.1744  0.5454 -0.2305
  147SAPE   H4R16206   2.060   0.360  10.451 -0.0157  0.0110 -3.1050
  147SAPE   H4S16207   1.909   0.318  10.385 -0.1009  1.4780  0.1129
  147SAPE   C2516208   2.041   0.146  10.432  0.0609 -0.9250  0.2620
  147SAPE   H5R16209   2.115   0.124  10.509  0.1132 -1.7416 -0.0225
  147SAPE   C2616210   2.021   0.070  10.315 -0.1086 -0.6944  0.5375
  147SAPE   H6R16211   2.075  -0.026  10.308  1.3404  0.1939 -1.1303
  147SAPE   C2716212   1.942   0.117  10.196 -0.0448  0.6207  0.1382
  147SAPE   H7R16213   2.014   0.115  10.111 -0.0968 -0.9564  0.1182
  147SAPE   H7S16214   1.903   0.220  10.211 -0.0422  0.6550 -0.0850
  147SAPE   C2816215   1.829   0.034  10.144 -0.3602  0.3875  0.2682
  147SAPE   H8R16216   1.784  -0.015  10.231 -0.8633  0.2304 -0.0760
  147SAPE   C2916217   1.795   0.016  10.011  0.0342 -0.4968  0.0398
  147SAPE   H9R16218   1.698  -0.032   9.996 -0.4314  0.1609  0.9157
  147SAPE  C21016219   1.845   0.082   9.886 -0.5311 -0.3614  0.5621
  147SAPE  H10R16220   1.943   0.034   9.868 -0.9856 -1.9722  2.2871
  147SAPE  H10S16221   1.857   0.189   9.914  0.5371  0.1706 -1.8190
  147SAPE  C21116222   1.754   0.066   9.767  0.1627  0.1406  1.0591
  147SAPE  H11R16223   1.670  -0.005   9.770  0.1936 -0.0254 -1.3099
  147SAPE  C21216224   1.778   0.142   9.660 -0.0905 -0.7573  0.1482
  147SAPE  H12R16225   1.715   0.132   9.570 -1.3409  1.9801  0.6781
  147SAPE  C21316226   1.886   0.249   9.656 -0.6382 -0.2690  0.8841
  147SAPE  H13R16227   1.977   0.213   9.708 -1.8804 -0.5680  2.9006
  147SAPE  H13S16228   1.856   0.336   9.719  0.4241 -0.3722  1.5358
  147SAPE  C21416229   1.926   0.313   9.525  0.0319 -0.6656 -0.8377
  147SAPE  H14R16230   1.896   0.418   9.519  0.1072 -0.5761  0.2031
  147SAPE  C21516231   1.982   0.249   9.415  0.3060 -0.7980 -0.6609
  147SAPE  H15R16232   2.012   0.307   9.326  0.3838 -1.3487 -0.9901
  147SAPE  C21616233   2.010   0.108   9.400  0.7209 -0.0804  0.4098
  147SAPE  H16R16234   2.000   0.061   9.500  0.3407 -0.3297  0.2556
  147SAPE  H16S16235   2.118   0.098   9.375  0.9387 -1.3229  1.7614
  147SAPE  C21716236   1.908   0.041   9.304 -0.9506 -0.9407  0.9074
  147SAPE  H17R16237   1.806   0.064   9.341 -2.0826 -2.3273 -1.3191
  147SAPE  H17S16238   1.920  -0.069   9.312  0.3368 -0.8633  0.2689
  147SAPE  C21816239   1.918   0.078   9.157 -0.1847 -0.1854 -0.1085
  147SAPE  H18R16240   2.010   0.032   9.115 -0.4561 -0.4244 -0.4303
  147SAPE  H18S16241   1.918   0.188   9.139 -2.0519 -0.5439 -2.5108
  147SAPE  C21916242   1.801   0.019   9.076  0.2118 -0.3764 -0.2126
  147SAPE  H19R16243   1.707   0.066   9.112  0.4064 -0.2620  0.1535
  147SAPE  H19S16244   1.801  -0.085   9.113 -0.9437 -0.1477  0.4431
  147SAPE  C22016245   1.810   0.042   8.929 -0.1199  0.3773  0.2426
  147SAPE  H20R16246   1.833   0.150   8.917 -1.3285  0.5092 -0.8637
  147SAPE  H20S16247   1.718   0.014   8.874 -1.2159  1.0963  1.6592
  147SAPE  H20T16248   1.899  -0.011   8.888 -0.8707 -0.2761 -0.5543
  147SAPE   C3316249   1.905  -0.663  10.509  0.0157 -0.8914  0.5293
  147SAPE   H3X16250   1.941  -0.711  10.603 -0.0788  0.0325  1.0368
  147SAPE   H3Y16251   1.986  -0.599  10.467 -0.8560 -1.4083 -2.0012
  147SAPE   C3416252   1.873  -0.776  10.407  0.4694  0.1424 -0.6337
  147SAPE   H4X16253   1.783  -0.835  10.433  0.9419 -0.9386 -1.4295
  147SAPE   H4Y16254   1.965  -0.839  10.409 -1.2540 -2.3963 -0.1424
  147SAPE   C3516255   1.860  -0.716  10.264  0.3406 -0.2682  0.5524
  147SAPE   H5X16256   1.930  -0.631  10.256  0.5997 -0.6482 -1.9500
  147SAPE   H5Y16257   1.758  -0.675  10.247  0.6125  0.4022  0.5468
  147SAPE   C3616258   1.892  -0.814  10.154 -0.7630 -0.6443  0.0550
  147SAPE   H6X16259   1.821  -0.898  10.172 -0.5125 -0.5600  1.5486
  147SAPE   H6Y16260   1.986  -0.872  10.161 -1.3293 -2.0718 -3.2104
  147SAPE   C3716261   1.891  -0.758  10.011  0.1040  0.1536 -0.1346
  147SAPE   H7X16262   1.989  -0.712   9.989 -1.0582  1.2440 -3.4035
  147SAPE   H7Y16263   1.811  -0.684   9.989  0.4332  0.7659  0.6927
  147SAPE   C3816264   1.849  -0.873   9.912  0.1730 -0.0869 -0.0025
  147SAPE   H8X16265   1.745  -0.896   9.943  0.0835 -0.7020 -0.7275
  147SAPE   H8Y16266   1.911  -0.964   9.929 -0.6343 -0.8373 -0.9545
  147SAPE   C3916267   1.867  -0.841   9.763  0.2203  0.2576 -0.5897
  147SAPE   H9X16268   1.968  -0.805   9.736  0.4686  0.1641  0.2000
  147SAPE   H9Y16269   1.809  -0.748   9.745 -2.2729 -0.9200  1.0080
  147SAPE  C31016270   1.825  -0.954   9.665  0.3825  0.4819 -0.8708
  147SAPE  H10X16271   1.715  -0.942   9.657  0.4817  2.2337  0.2334
  147SAPE  H10Y16272   1.847  -1.050   9.716  1.6937  0.5525 -1.2841
  147SAPE  C31116273   1.886  -0.952   9.525  0.3721  0.8898  0.2449
  147SAPE  H11X16274   1.997  -0.959   9.528  0.2423 -1.3465  0.7117
  147SAPE  H11Y16275   1.860  -0.857   9.475  0.3436  0.7907  0.0704
  147SAPE  C31216276   1.848  -1.072   9.430 -0.1358  0.7132 -0.0226
  147SAPE  H12X16277   1.741  -1.074   9.404 -0.1748  1.4815  0.0715
  147SAPE  H12Y16278   1.865  -1.166   9.488  0.7023  0.2852 -0.9343
  147SAPE  C31316279   1.932  -1.085   9.304  0.2468 -0.4930 -0.2239
  147SAPE  H13X16280   2.040  -1.088   9.331  0.1858 -2.5532 -0.0623
  147SAPE  H13Y16281   1.925  -0.980   9.270  0.3402  0.4857  2.6830
  147SAPE  C31416282   1.880  -1.188   9.205  0.2136  0.1623  0.2632
  147SAPE  H14X16283   1.771  -1.170   9.189  0.5718  3.1664  1.0323
  147SAPE  H14Y16284   1.892  -1.284   9.260  2.3387  0.7346  0.8199
  147SAPE  C31516285   1.939  -1.183   9.058 -0.0682 -0.7479  0.0829
  147SAPE  H15X16286   2.035  -1.240   9.054  0.8266  0.6328  1.4117
  147SAPE  H15Y16287   1.953  -1.078   9.024 -2.2373 -0.8943 -1.3157
  147SAPE  C31616288   1.838  -1.261   8.976 -0.3042 -0.3970  0.5169
  147SAPE  H16X16289   1.736  -1.229   9.004  0.2403  2.4925 -0.6730
  147SAPE  H16Y16290   1.845  -1.365   9.015  1.3616 -0.4937 -0.0050
  147SAPE  C31716291   1.845  -1.250   8.826  0.7796 -0.6120 -0.5868
  147SAPE  H17X16292   1.842  -1.142   8.799  0.4534 -0.2783  0.7277
  147SAPE  H17Y16293   1.758  -1.302   8.781 -0.3881 -0.5078  1.4563
  147SAPE  C31816294   1.963  -1.310   8.761  0.4922 -0.3223 -0.5298
  147SAPE  H18X16295   1.998  -1.407   8.803  2.2547  1.2336  1.7459
  147SAPE  H18Y16296   2.053  -1.244   8.769  1.2271 -1.3263 -0.4490
  147SAPE  H18Z16297   1.946  -1.316   8.652  1.2766  0.1748 -0.6911
  148SAPE     N16298   2.596   1.648  10.814  0.1419 -0.5701  0.1845
  148SAPE   HN116299   2.541   1.727  10.776 -2.2695 -2.9023 -1.3600
  148SAPE   HN216300   2.606   1.581  10.734 -0.3697 -0.9764  0.4613
  148SAPE   HN316301   2.538   1.603  10.888  0.1735  0.0550  0.5928
  148SAPE   C1216302   2.734   1.692  10.851  0.2441 -0.0804  0.2556
  148SAPE  H12A16303   2.803   1.618  10.895 -0.4524 -1.3494 -0.7683
  148SAPE  H12B16304   2.715   1.784  10.911 -1.2333  0.9220 -1.6790
  148SAPE   C1116305   2.801   1.746  10.720  0.0529 -0.1699  0.3220
  148SAPE  H11A16306   2.894   1.800  10.748 -0.0294  0.6247 -0.9345
  148SAPE  H11B16307   2.732   1.815  10.667  0.3513  0.0670  0.2372
  148SAPE     P16308   2.900   1.646  10.499  0.3719  0.3123 -0.2158
  148SAPE   O1316309   2.993   1.535  10.495  0.4337 -0.0289  0.1182
  148SAPE   O1416310   2.793   1.654  10.396 -0.1666  0.2928  0.4387
  148SAPE   O1216311   2.831   1.627  10.645 -0.0392 -0.6208 -0.5171
  148SAPE   O1116312   2.976   1.787  10.499  0.7590 -0.2159 -0.4618
  148SAPE    C116313   2.927   1.902  10.427  0.3505 -0.3958  0.2234
  148SAPE    HA16314   2.817   1.884  10.423  0.4856 -1.0179 -0.7050
  148SAPE    HB16315   2.944   1.994  10.488 -0.2055  0.0237 -0.2450
  148SAPE    C216316   2.992   1.922  10.285 -0.1618 -0.3016 -0.2199
  148SAPE    HS16317   2.971   1.833  10.222 -0.3667 -1.1266  1.0000
  148SAPE   O2116318   3.135   1.942  10.311 -0.5540  0.9642  0.2636
  148SAPE   C2116319   3.208   1.932  10.202 -0.8085  0.1648  0.3306
  148SAPE   O2216320   3.162   1.911  10.086 -0.4298  0.2019  0.3277
  148SAPE   C2216321   3.350   1.971  10.231 -0.5476 -0.3188  0.3676
  148SAPE   H2R16322   3.359   2.021  10.330  0.0849  1.9052 -0.7732
  148SAPE   H2S16323   3.414   1.881  10.225  0.4121  0.4430 -1.2017
  148SAPE    C316324   2.931   2.046  10.212  0.3863  0.1640  0.0015
  148SAPE    HX16325   2.986   2.141  10.230  2.5547 -1.0264 -0.1906
  148SAPE    HY16326   2.828   2.067  10.249  0.1511  0.2426 -0.6914
  148SAPE   O3116327   2.917   2.023  10.070  0.2597 -0.0819 -0.8521
  148SAPE   C3116328   2.977   2.097   9.980 -0.5328 -0.7210 -0.6262
  148SAPE   O3216329   3.040   2.204  10.000 -0.2636  0.0353  0.5103
  148SAPE   C3216330   2.965   2.016   9.852  0.6544  0.3341 -0.1264
  148SAPE   H2X16331   2.857   2.030   9.830 -0.1020 -0.3108  2.8363
  148SAPE   H2Y16332   2.968   1.906   9.869 -1.2301  0.3582  0.5260
  148SAPE   C2316333   3.400   2.077  10.133 -0.2902  0.1740 -0.3340
  148SAPE   H3R16334   3.493   2.128  10.167 -0.4020  1.2867 -1.6487
  148SAPE   H3S16335   3.331   2.164  10.119  0.7741  0.9248 -0.9196
  148SAPE   C2416336   3.430   2.023   9.986  0.1953 -0.0391  0.1052
  148SAPE   H4R16337   3.403   2.113   9.926 -1.3989  0.4349  1.5067
  148SAPE   H4S16338   3.361   1.937   9.973 -2.0253  1.8456 -0.8859
  148SAPE   C2516339   3.579   1.990   9.970 -0.1753 -0.0075 -0.2566
  148SAPE   H5R16340   3.618   1.915  10.041 -0.9435  1.1926  1.4773
  148SAPE   C2616341   3.658   2.030   9.869 -0.4033  0.7150  0.2435
  148SAPE   H6R16342   3.762   1.998   9.884  0.1530  2.4312  0.1891
  148SAPE   C2716343   3.632   2.116   9.747  0.8388 -0.6053  0.9730
  148SAPE   H7R16344   3.721   2.183   9.738 -0.1362  0.5145 -0.5175
  148SAPE   H7S16345   3.550   2.190   9.760 -0.2429 -1.7485  0.6767
  148SAPE   C2816346   3.605   2.045   9.614 -0.4999 -0.2986  0.0867
  148SAPE   H8R16347   3.517   1.979   9.615 -1.6126  1.1519 -0.2576
  148SAPE   C2916348   3.686   2.037   9.509  0.4171  0.6348 -0.3934
  148SAPE   H9R16349   3.646   1.988   9.419 -1.8287  1.3829  0.1683
  148SAPE  C21016350   3.818   2.101   9.489  0.7200 -0.0879 -0.0358
  148SAPE  H10R16351   3.845   2.155   9.582 -0.6741  0.9873 -0.2411
  148SAPE  H10S16352   3.809   2.169   9.402  0.9255 -0.1256 -0.0873
  148SAPE  C21116353   3.921   1.989   9.468 -0.5304  0.7847  0.5640
  148SAPE  H11R16354   3.980   1.968   9.559  0.8803 -0.0338 -0.5268
  148SAPE  C21216355   3.953   1.926   9.350  0.1795  0.1238 -0.0605
  148SAPE  H12R16356   4.015   1.836   9.363  0.2079 -0.0340 -1.2980
  148SAPE  C21316357   3.895   1.956   9.215 -0.0824  0.2791  0.5803
  148SAPE  H13R16358   3.912   2.063   9.191 -1.3143  0.1300 -0.9680
  148SAPE  H13S16359   3.785   1.943   9.218 -0.1166  0.6010  0.7317
  148SAPE  C21416360   3.945   1.866   9.097  0.1717 -0.3240 -0.3747
  148SAPE  H14R16361   3.974   1.767   9.135  0.4492  0.2189  0.8824
  148SAPE  C21516362   3.953   1.897   8.968  0.1208 -0.4696  0.2884
  148SAPE  H15R16363   3.997   1.819   8.905 -0.5285 -0.6502  0.0613
  148SAPE  C21616364   3.913   2.033   8.901  0.7346  0.4227 -0.0265
  148SAPE  H16R16365   3.872   2.103   8.976 -0.3613  0.3398 -0.5330
  148SAPE  H16S16366   3.846   2.028   8.813 -0.0571 -0.1203  0.5974
  148SAPE  C21716367   4.049   2.083   8.843  1.1865  0.0635  0.2967
  148SAPE  H17R16368   4.028   2.183   8.800 -1.9022 -0.5153  0.3087
  148SAPE  H17S16369   4.083   2.020   8.758  1.5412  1.3205 -0.4978
  148SAPE  C21816370   4.161   2.109   8.937 -0.2036  0.0637 -0.7847
  148SAPE  H18R16371   4.190   2.011   8.980  0.9406 -0.1726 -2.0536
  148SAPE  H18S16372   4.136   2.171   9.026 -2.4309  1.6176 -2.4331
  148SAPE  C21916373   4.276   2.181   8.874  0.2211 -0.0654 -0.2096
  148SAPE  H19R16374   4.250   2.288   8.863  1.2135  0.0885 -1.1594
  148SAPE  H19S16375   4.297   2.139   8.773  1.1432 -2.1899  0.8474
  148SAPE  C22016376   4.414   2.161   8.942 -0.3689  0.6089  0.2891
  148SAPE  H20R16377   4.413   2.151   9.053  0.7292  0.9276  0.3323
  148SAPE  H20S16378   4.492   2.236   8.919  2.4935 -2.4105 -0.2872
  148SAPE  H20T16379   4.444   2.063   8.898 -1.8072 -1.6042  4.0447
  148SAPE   C3316380   3.059   2.064   9.742  0.2781  0.2158 -0.5133
  148SAPE   H3X16381   3.153   2.006   9.753  0.1005  0.6286  4.7871
  148SAPE   H3Y16382   3.094   2.169   9.760 -1.4353  0.6577  0.3349
  148SAPE   C3416383   3.010   2.047   9.597  0.5993 -0.0996 -0.3932
  148SAPE   H4X16384   2.904   2.079   9.595  0.6891  0.6629  3.1418
  148SAPE   H4Y16385   3.016   1.942   9.560  0.9401 -0.7192  1.3611
  148SAPE   C3516386   3.090   2.134   9.491  0.0421  0.0220 -0.0536
  148SAPE   H5X16387   3.075   2.240   9.521 -0.1996  0.2299 -0.9075
  148SAPE   H5Y16388   3.047   2.125   9.389  1.0437  0.4303 -0.5202
  148SAPE   C3616389   3.237   2.102   9.472 -0.6122  0.1611 -0.0610
  148SAPE   H6X16390   3.254   1.996   9.444 -0.5205 -0.0934  0.9503
  148SAPE   H6Y16391   3.283   2.124   9.570 -1.0487 -0.2820  0.2463
  148SAPE   C3716392   3.287   2.187   9.364  0.7104  0.3993 -0.3405
  148SAPE   H7X16393   3.259   2.294   9.372  0.1103  0.3229 -1.3111
  148SAPE   H7Y16394   3.219   2.158   9.281 -0.6375  2.6269 -0.0479
  148SAPE   C3816395   3.434   2.168   9.322 -0.8296  0.1204 -0.5136
  148SAPE   H8X16396   3.454   2.064   9.289  0.6915  0.5461 -0.9522
  148SAPE   H8Y16397   3.508   2.198   9.400  0.9689 -0.8522 -1.8103
  148SAPE   C3916398   3.465   2.242   9.194 -0.1438  0.4958  0.0073
  148SAPE   H9X16399   3.426   2.345   9.204  1.2017  0.8748  1.6587
  148SAPE   H9Y16400   3.400   2.194   9.118  0.6084 -1.9606  0.8597
  148SAPE  C31016401   3.611   2.211   9.146 -0.1491 -0.3661  0.4153
  148SAPE  H10X16402   3.613   2.104   9.116  3.2433 -0.0864 -0.5395
  148SAPE  H10Y16403   3.671   2.223   9.238 -0.2578  2.1518  0.1961
  148SAPE  C31116404   3.651   2.298   9.026 -0.5837 -0.0214 -0.0803
  148SAPE  H11X16405   3.755   2.273   8.995 -0.8653 -1.9994  0.5292
  148SAPE  H11Y16406   3.655   2.404   9.057 -2.0206  0.0165 -0.0117
  148SAPE  C31216407   3.565   2.282   8.897  0.6837 -0.3036  0.2601
  148SAPE  H12X16408   3.462   2.313   8.925  1.0668  1.4193 -0.1725
  148SAPE  H12Y16409   3.556   2.185   8.844  0.1448 -0.0501 -0.1275
  148SAPE  C31316410   3.596   2.374   8.778 -0.6942 -1.1659 -0.8103
  148SAPE  H13X16411   3.706   2.366   8.762 -0.3951  0.9112  0.1160
  148SAPE  H13Y16412   3.565   2.477   8.804 -1.8742 -1.5456 -0.6657
  148SAPE  C31416413   3.526   2.329   8.647 -0.3428 -0.0749  0.3836
  148SAPE  H14X16414   3.516   2.221   8.625 -1.8979 -0.2009  1.6248
  148SAPE  H14Y16415   3.584   2.376   8.565  0.4030 -1.2338  0.2381
  148SAPE  C31516416   3.385   2.377   8.621  0.0463  0.6043  0.5750
  148SAPE  H15X16417   3.391   2.488   8.621  1.0158  0.6257 -3.1236
  148SAPE  H15Y16418   3.332   2.351   8.715 -1.7379  1.0313 -0.2880
  148SAPE  C31616419   3.312   2.328   8.501 -0.0067  0.4159  0.0669
  148SAPE  H16X16420   3.323   2.218   8.490  1.6692  0.3615  2.1301
  148SAPE  H16Y16421   3.374   2.364   8.416 -0.2831  0.9673  0.0993
  148SAPE  C31716422   3.176   2.374   8.477  0.1196  0.0219 -0.0231
  148SAPE  H17X16423   3.164   2.484   8.490  0.5536  0.1294 -0.5112
  148SAPE  H17Y16424   3.103   2.334   8.550  1.0282 -0.4951  0.6157
  148SAPE  C31816425   3.128   2.331   8.341  0.8648 -0.5180  0.5802
  148SAPE  H18X16426   3.025   2.370   8.327  0.8755  0.4643  3.0160
  148SAPE  H18Y16427   3.125   2.221   8.324 -1.8071 -0.4551  0.4177
  148SAPE  H18Z16428   3.200   2.381   8.272  0.9159  2.6897  2.8670
  149SAPE     N16429   5.726   4.239  11.035  0.0820 -0.1354  0.1126
  149SAPE   HN116430   5.778   4.329  11.031  0.6086 -0.4475 -0.1044
  149SAPE   HN216431   5.648   4.248  11.104  0.6319  2.4836  0.4210
  149SAPE   HN316432   5.797   4.165  11.056 -0.7755 -1.3860 -1.2719
  149SAPE   C1216433   5.663   4.222  10.901 -0.6144  0.2041  0.5643
  149SAPE  H12A16434   5.735   4.234  10.818 -1.6671  1.1096 -0.2278
  149SAPE  H12B16435   5.588   4.302  10.882 -0.9906 -0.1650  0.4850
  149SAPE   C1116436   5.580   4.090  10.886 -0.3593 -0.3652  0.2443
  149SAPE  H11A16437   5.658   4.010  10.883  1.0811  1.0044  0.4399
  149SAPE  H11B16438   5.526   4.085  10.789  3.0391 -2.5070 -1.6653
  149SAPE     P16439   5.340   4.056  10.995  0.3042 -0.0201 -0.0038
  149SAPE   O1316440   5.288   4.101  11.125  0.4378  0.4866  0.3233
  149SAPE   O1416441   5.285   4.124  10.879  0.2365 -0.1298  0.7171
  149SAPE   O1216442   5.499   4.062  10.998 -0.0194  0.3112  0.0818
  149SAPE   O1116443   5.307   3.903  10.982  0.2574 -0.6423 -0.3297
  149SAPE    C116444   5.382   3.813  10.904  0.4089  0.1053  0.2570
  149SAPE    HA16445   5.489   3.830  10.879  0.3869 -1.8121 -1.2559
  149SAPE    HB16446   5.385   3.714  10.954  0.1798  0.7962  1.6524
  149SAPE    C216447   5.321   3.798  10.764  0.2314 -0.1561  0.5812
  149SAPE    HS16448   5.320   3.900  10.720 -1.4804 -1.0866 -1.6386
  149SAPE   O2116449   5.186   3.751  10.774 -0.9012  0.4961 -0.3469
  149SAPE   C2116450   5.105   3.825  10.699 -0.3299  0.3330  0.6337
  149SAPE   O2216451   5.141   3.908  10.613  0.2204  0.4843 -0.0230
  149SAPE   C2216452   4.967   3.804  10.747  0.0353 -0.3855  0.5840
  149SAPE   H2R16453   4.974   3.710  10.806 -0.1663 -1.1998 -0.6789
  149SAPE   H2S16454   4.946   3.886  10.819  1.1536 -0.9629  1.5912
  149SAPE    C316455   5.411   3.718  10.673 -0.3496  0.3335  0.4908
  149SAPE    HX16456   5.433   3.620  10.721  1.3105  0.1909 -0.4967
  149SAPE    HY16457   5.513   3.759  10.653 -0.0494 -0.7635 -0.2843
  149SAPE   O3116458   5.346   3.694  10.553 -0.4302 -0.1808  0.1496
  149SAPE   C3116459   5.356   3.792  10.460  0.2320  0.3922  0.0199
  149SAPE   O3216460   5.428   3.893  10.478  0.0347 -0.4240 -0.0173
  149SAPE   C3216461   5.269   3.745  10.343 -0.2297  0.5293  1.5119
  149SAPE   H2X16462   5.206   3.832  10.316  1.4612  1.0061 -1.0274
  149SAPE   H2Y16463   5.199   3.666  10.376  0.3534 -0.7567 -0.2771
  149SAPE   C2316464   4.859   3.803  10.636 -0.3219 -0.3935  0.0303
  149SAPE   H3R16465   4.859   3.892  10.570  1.8440 -0.5329 -0.1851
  149SAPE   H3S16466   4.764   3.806  10.694  0.1277  1.6599  0.7147
  149SAPE   C2416467   4.867   3.678  10.544  0.3794  0.4002 -0.1929
  149SAPE   H4R16468   4.875   3.588  10.608 -0.4414  1.2610  1.1414
  149SAPE   H4S16469   4.949   3.698  10.472  0.6529  2.9293  0.7581
  149SAPE   C2516470   4.750   3.664  10.449 -0.7887 -0.0193  0.1487
  149SAPE   H5R16471   4.653   3.663  10.500  0.5452 -2.0339  2.7922
  149SAPE   C2616472   4.740   3.645  10.314 -0.1454  0.0087 -0.2906
  149SAPE   H6R16473   4.639   3.661  10.274 -0.1056 -0.4081 -0.5685
  149SAPE   C2716474   4.861   3.639  10.229  0.8415  0.1584 -0.3904
  149SAPE   H7R16475   4.919   3.545  10.244  0.0588 -0.0657  1.3123
  149SAPE   H7S16476   4.928   3.725  10.250  1.8072 -0.3729 -1.2484
  149SAPE   C2816477   4.810   3.661  10.079 -0.7024  0.4893 -0.2046
  149SAPE   H8R16478   4.758   3.577  10.031 -0.8179 -1.2322  2.7888
  149SAPE   C2916479   4.816   3.777  10.006  0.5648  0.5139 -0.5910
  149SAPE   H9R16480   4.778   3.787   9.903 -0.0514 -0.5310 -0.4728
  149SAPE  C21016481   4.852   3.910  10.057  0.8844  0.7235 -0.3986
  149SAPE  H10R16482   4.932   3.966  10.004  1.3007 -0.8434 -1.4439
  149SAPE  H10S16483   4.878   3.901  10.165  1.8841  0.0034 -0.6932
  149SAPE  C21116484   4.730   3.996  10.060  0.5943  0.5096  0.4961
  149SAPE  H11R16485   4.703   4.022  10.164  0.8204  0.1810  0.6364
  149SAPE  C21216486   4.669   4.056   9.959 -0.3866  0.1501  1.0770
  149SAPE  H12R16487   4.577   4.114   9.980  0.4052  2.2796 -1.1260
  149SAPE  C21316488   4.708   4.054   9.817  0.5766 -0.2049 -0.2596
  149SAPE  H13R16489   4.801   3.995   9.804 -0.2271 -1.1798 -1.8425
  149SAPE  H13S16490   4.740   4.158   9.797  0.6369  0.0667  1.2383
  149SAPE  C21416491   4.586   4.009   9.733 -0.3412 -0.8724  0.0609
  149SAPE  H14R16492   4.498   4.072   9.757  0.8990 -0.0214  2.5165
  149SAPE  C21516493   4.585   3.899   9.651  0.4808 -0.0966  0.5422
  149SAPE  H15R16494   4.490   3.878   9.599  0.9496 -2.0658  0.4676
  149SAPE  C21616495   4.697   3.802   9.634 -0.1521  0.1506  0.3034
  149SAPE  H16R16496   4.657   3.701   9.658  1.2337 -0.2741  0.8806
  149SAPE  H16S16497   4.784   3.815   9.702  1.6137  0.4183 -1.9435
  149SAPE  C21716498   4.753   3.817   9.491 -0.2354  0.5352  0.5533
  149SAPE  H17R16499   4.806   3.915   9.492 -1.6496  1.3205 -0.4590
  149SAPE  H17S16500   4.670   3.817   9.418  1.5587 -2.0034 -1.5893
  149SAPE  C21816501   4.859   3.709   9.463 -0.2908 -0.5499  0.1264
  149SAPE  H18R16502   4.912   3.689   9.558 -0.2040  0.7245  0.3569
  149SAPE  H18S16503   4.923   3.749   9.381 -1.8657  0.4296 -0.6676
  149SAPE  C21916504   4.797   3.578   9.413  0.3033 -0.2470  0.1679
  149SAPE  H19R16505   4.729   3.557   9.498  1.3877 -0.6466  0.9618
  149SAPE  H19S16506   4.877   3.501   9.401  1.1080  0.7147 -0.7919
  149SAPE  C22016507   4.718   3.574   9.284  0.4025 -0.1873  0.5266
  149SAPE  H20R16508   4.628   3.638   9.300  0.6357  0.3670 -0.3525
  149SAPE  H20S16509   4.690   3.470   9.258 -0.6232  0.6559 -1.8486
  149SAPE  H20T16510   4.782   3.609   9.201 -0.7327  0.8316  0.0626
  149SAPE   C3316511   5.349   3.705  10.208  0.4684 -0.6039  0.7268
  149SAPE   H3X16512   5.407   3.611  10.223  0.6722 -0.7920 -1.1754
  149SAPE   H3Y16513   5.412   3.790  10.175  0.5314 -0.4185  1.3118
  149SAPE   C3416514   5.248   3.683  10.096  0.1685 -0.4128  0.1944
  149SAPE   H4X16515   5.198   3.778  10.068 -0.3682 -0.4167  1.1265
  149SAPE   H4Y16516   5.174   3.613  10.139  0.0367 -0.7244 -0.5288
  149SAPE   C3516517   5.304   3.620   9.975 -0.0192 -0.1204  0.0293
  149SAPE   H5X16518   5.383   3.546  10.000  0.8810  0.7003 -0.3263
  149SAPE   H5Y16519   5.363   3.691   9.913  0.1818 -0.3735 -0.0699
  149SAPE   C3616520   5.204   3.550   9.895  0.3320 -0.3142  1.0917
  149SAPE   H6X16521   5.117   3.616   9.872 -1.0665 -1.8988  1.6922
  149SAPE   H6Y16522   5.159   3.468   9.955 -0.6739 -0.3948  0.2501
  149SAPE   C3716523   5.261   3.474   9.773  0.2287  0.7357  0.4986
  149SAPE   H7X16524   5.184   3.411   9.723  0.0199 -0.6669  2.5138
  149SAPE   H7Y16525   5.340   3.399   9.798 -0.2662  1.1015  3.3295
  149SAPE   C3816526   5.305   3.572   9.660  0.3843 -0.4583  0.6567
  149SAPE   H8X16527   5.409   3.608   9.676 -0.0468  0.7729  0.7202
  149SAPE   H8Y16528   5.240   3.662   9.666 -0.3322 -0.7877 -1.6799
  149SAPE   C3916529   5.298   3.512   9.518 -0.2584  0.1220 -0.1622
  149SAPE   H9X16530   5.361   3.420   9.525  0.6003  0.4829 -2.7539
  149SAPE   H9Y16531   5.345   3.580   9.445  2.6247 -0.5016  1.0408
  149SAPE  C31016532   5.152   3.487   9.467 -0.9617  0.1457  0.3007
  149SAPE  H10X16533   5.097   3.583   9.477 -0.0178  0.7187  0.0753
  149SAPE  H10Y16534   5.101   3.404   9.521 -1.4883  0.0318 -0.3687
  149SAPE  C31116535   5.160   3.444   9.316 -0.1706 -0.1031 -1.1936
  149SAPE  H11X16536   5.098   3.352   9.310 -0.2833  0.0257 -2.0580
  149SAPE  H11Y16537   5.267   3.427   9.295  0.7748  4.3445 -0.5026
  149SAPE  C31216538   5.122   3.550   9.220 -0.1139 -0.2646  0.2769
  149SAPE  H12X16539   5.184   3.641   9.234  0.3601 -0.5361 -0.0259
  149SAPE  H12Y16540   5.017   3.585   9.233 -0.8083 -1.3057 -2.1949
  149SAPE  C31316541   5.127   3.514   9.069 -0.3631  0.4540 -1.4884
  149SAPE  H13X16542   5.041   3.444   9.070  0.5874 -0.7144  0.4911
  149SAPE  H13Y16543   5.218   3.459   9.037 -1.0751 -0.5489 -1.7781
  149SAPE  C31416544   5.111   3.629   8.971  0.0831 -0.1749  0.1751
  149SAPE  H14X16545   5.029   3.694   9.009  0.8979  0.0394  1.6273
  149SAPE  H14Y16546   5.081   3.591   8.871 -0.0132  1.3986 -0.4073
  149SAPE  C31516547   5.250   3.684   8.935 -0.5472 -0.3213 -0.0703
  149SAPE  H15X16548   5.308   3.621   8.864  0.0517 -2.6325  2.4046
  149SAPE  H15Y16549   5.300   3.692   9.033 -1.1871  0.2603  0.2167
  149SAPE  C31616550   5.240   3.828   8.880 -0.5435  0.3236 -0.5322
  149SAPE  H16X16551   5.339   3.875   8.901 -1.7108  2.0168  1.3315
  149SAPE  H16Y16552   5.160   3.880   8.937 -1.2014 -0.1211 -1.0403
  149SAPE  C31716553   5.211   3.826   8.729 -0.1340 -0.4753 -0.3212
  149SAPE  H17X16554   5.256   3.740   8.675 -0.0241 -0.7397  0.1971
  149SAPE  H17Y16555   5.261   3.910   8.676 -0.1112  0.3412  0.9882
  149SAPE  C31816556   5.061   3.834   8.711 -0.4750  0.1099 -0.1087
  149SAPE  H18X16557   5.035   3.859   8.605  0.5422 -1.7553 -0.8201
  149SAPE  H18Y16558   5.011   3.914   8.769 -1.5132 -0.4886 -0.1629
  149SAPE  H18Z16559   5.006   3.746   8.750  3.1524 -1.9282  0.6091
  150SAPE     N16560   0.093   2.831  10.935 -0.7395  0.5158  0.0378
  150SAPE   HN116561   0.187   2.788  10.939  0.2599  2.4096 -2.3888
  150SAPE   HN216562   0.100   2.925  10.980  2.7210  0.0765  0.5194
  150SAPE   HN316563   0.032   2.769  10.992 -0.0905 -1.0855 -0.9688
  150SAPE   C1216564   0.047   2.844  10.789 -0.6326 -0.3623  0.6281
  150SAPE  H12A16565  -0.058   2.880  10.788 -1.0303 -1.4855 -1.1044
  150SAPE  H12B16566   0.040   2.740  10.750  0.2026 -0.6980  1.3568
  150SAPE   C1116567   0.139   2.937  10.707 -0.0755 -0.0300  0.0501
  150SAPE  H11A16568   0.116   2.940  10.599  2.1706 -1.0586 -0.4825
  150SAPE  H11B16569   0.229   2.871  10.709  0.1492  0.2755  0.2036
  150SAPE     P16570   0.275   3.134  10.806 -0.1124 -0.1786  0.1436
  150SAPE   O1316571   0.260   3.280  10.820 -0.5960 -0.5084 -0.1509
  150SAPE   O1416572   0.319   3.060  10.924  0.0227  0.3098 -0.0605
  150SAPE   O1216573   0.137   3.072  10.760 -0.1810  0.3166  0.0333
  150SAPE   O1116574   0.369   3.086  10.695  0.2509 -0.9540  0.5310
  150SAPE    C116575   0.404   3.170  10.588  0.0128 -0.1239  0.0272
  150SAPE    HA16576   0.450   3.260  10.633 -1.2432 -1.0588  3.3035
  150SAPE    HB16577   0.481   3.110  10.535 -1.4273 -1.6722 -0.3874
  150SAPE    C216578   0.294   3.214  10.480  0.4802  0.6307 -0.0608
  150SAPE    HS16579   0.206   3.251  10.537  1.4466  1.0905  1.1524
  150SAPE   O2116580   0.254   3.090  10.425  0.3022  0.1664 -0.2945
  150SAPE   C2116581   0.144   3.093  10.356 -0.5718 -0.3691  0.0347
  150SAPE   O2216582   0.072   3.192  10.350  0.0294  0.6035 -0.3547
  150SAPE   C2216583   0.108   2.953  10.302 -0.2518  0.1361  0.0538
  150SAPE   H2R16584   0.203   2.926  10.252 -0.7625  2.6602 -2.4359
  150SAPE   H2S16585   0.090   2.880  10.383 -0.1203 -3.1540 -2.7452
  150SAPE    C316586   0.350   3.322  10.380  0.5770 -0.0823 -0.5820
  150SAPE    HX16587   0.353   3.415  10.441  3.2900 -0.7893  0.4359
  150SAPE    HY16588   0.273   3.339  10.302  0.1558  1.6780  0.1793
  150SAPE   O3116589   0.484   3.291  10.336 -0.0814  0.4301 -0.0063
  150SAPE   C3116590   0.481   3.229  10.221 -0.5715 -0.0920  0.0033
  150SAPE   O3216591   0.385   3.182  10.164 -0.7602  0.2263 -0.8408
  150SAPE   C3216592   0.614   3.221  10.166  0.5077 -0.0820 -0.1505
  150SAPE   H2X16593   0.672   3.153  10.232  2.1395  2.4019  1.0810
  150SAPE   H2Y16594   0.668   3.316  10.189  1.8385 -0.8437 -0.0958
  150SAPE   C2316595  -0.005   2.960  10.188 -0.1743  0.4330  0.0957
  150SAPE   H3R16596  -0.091   3.012  10.235  0.6736  2.3803 -0.4328
  150SAPE   H3S16597  -0.035   2.857  10.159 -0.0311  0.1022  1.1150
  150SAPE   C2416598   0.050   3.020  10.052  0.2610 -0.2706 -0.2848
  150SAPE   H4R16599   0.116   3.106  10.076  0.6877 -0.9409  1.0448
  150SAPE   H4S16600  -0.042   3.061  10.006 -0.7646 -0.2320  1.7659
  150SAPE   C2516601   0.125   2.923   9.968  0.1294  0.0032 -0.8764
  150SAPE   H5R16602   0.201   2.870  10.026 -0.1607  2.8630  2.2983
  150SAPE   C2616603   0.103   2.900   9.828 -0.2737  0.5535  0.0650
  150SAPE   H6R16604   0.168   2.821   9.787 -0.8923 -1.2031  2.3373
  150SAPE   C2716605  -0.001   2.961   9.746  0.7286 -0.0867 -0.4480
  150SAPE   H7R16606  -0.078   3.003   9.815 -1.0177 -2.4748 -0.8698
  150SAPE   H7S16607  -0.055   2.881   9.690 -1.6492  2.9593 -2.7396
  150SAPE   C2816608   0.060   3.062   9.654  0.1088  0.0650  0.0505
  150SAPE   H8R16609   0.051   3.163   9.697 -2.1380  0.2392 -0.7610
  150SAPE   C2916610   0.114   3.049   9.531 -0.7086  0.3622  0.5024
  150SAPE   H9R16611   0.154   3.139   9.484 -1.1464  0.6230  0.6301
  150SAPE  C21016612   0.124   2.910   9.460 -0.0283  0.3815 -0.1338
  150SAPE  H10R16613   0.099   2.837   9.541 -0.1872  0.9457  0.3292
  150SAPE  H10S16614   0.229   2.895   9.429 -0.8960 -1.6018 -2.2816
  150SAPE  C21116615   0.028   2.891   9.346  0.2578  0.1741 -0.0986
  150SAPE  H11R16616  -0.036   2.806   9.371  0.5085  0.3965  1.3042
  150SAPE  C21216617   0.022   2.952   9.222 -0.3016  0.5167 -0.3651
  150SAPE  H12R16618  -0.058   2.923   9.153  0.2354 -1.6299 -0.1258
  150SAPE  C21316619   0.105   3.067   9.186 -0.8116 -0.3221  0.1329
  150SAPE  H13R16620   0.209   3.055   9.224 -0.0076  1.5220 -1.3936
  150SAPE  H13S16621   0.075   3.154   9.247 -1.0987  0.8902 -1.7028
  150SAPE  C21416622   0.122   3.091   9.034 -0.7179 -0.5272 -0.7404
  150SAPE  H14R16623   0.211   3.050   8.984  0.0769  2.2086 -1.6444
  150SAPE  C21516624   0.031   3.148   8.953  0.2525 -0.2898 -0.0716
  150SAPE  H15R16625   0.063   3.144   8.848  2.3208 -0.0138  0.5383
  150SAPE  C21616626  -0.109   3.197   8.976  0.3039 -0.0071  0.6571
  150SAPE  H16R16627  -0.120   3.301   8.938 -0.4124 -0.4465 -0.3488
  150SAPE  H16S16628  -0.137   3.191   9.084 -0.3592 -1.2182  0.4235
  150SAPE  C21716629  -0.228   3.114   8.922  0.5397 -0.6838 -0.0306
  150SAPE  H17R16630  -0.204   3.008   8.947  1.1303 -1.5431 -3.8614
  150SAPE  H17S16631  -0.211   3.100   8.813  0.5877  2.6602 -0.5061
  150SAPE  C21816632  -0.369   3.165   8.960  0.0236  0.4481  0.0143
  150SAPE  H18R16633  -0.389   3.133   9.065  0.7923 -2.2135 -0.6029
  150SAPE  H18S16634  -0.435   3.109   8.891 -1.7003 -0.9420  2.7225
  150SAPE  C21916635  -0.387   3.313   8.945  0.7011  0.4357 -0.3950
  150SAPE  H19R16636  -0.352   3.333   8.841  0.1584 -0.3584 -0.7329
  150SAPE  H19S16637  -0.320   3.351   9.026  2.3050  0.0603 -1.5166
  150SAPE  C22016638  -0.538   3.354   8.952  0.2647  0.0650  0.1452
  150SAPE  H20R16639  -0.570   3.347   9.058 -1.1852  1.0683 -0.2020
  150SAPE  H20S16640  -0.596   3.283   8.889 -2.3173  2.1785  0.0100
  150SAPE  H20T16641  -0.557   3.460   8.924 -0.0352 -0.2901 -1.0080
  150SAPE   C3316642   0.634   3.172  10.024  1.0873 -0.5444 -0.4922
  150SAPE   H3X16643   0.569   3.083  10.012  1.5201 -0.8907 -0.2684
  150SAPE   H3Y16644   0.741   3.144  10.015  1.0616 -1.1729  0.9162
  150SAPE   C3416645   0.602   3.267   9.911  0.5368  0.4235 -0.0455
  150SAPE   H4X16646   0.692   3.328   9.891  1.4469 -0.8563  0.1227
  150SAPE   H4Y16647   0.520   3.338   9.936 -0.6213 -1.1136  0.6011
  150SAPE   C3516648   0.552   3.200   9.776  0.5692 -0.1284  0.1683
  150SAPE   H5X16649   0.536   3.282   9.703  2.1047  0.6346  0.6703
  150SAPE   H5Y16650   0.452   3.154   9.791 -0.6965  2.2007 -0.9086
  150SAPE   C3616651   0.658   3.093   9.735 -0.0116 -0.6075 -0.2280
  150SAPE   H6X16652   0.662   3.026   9.824  1.1885 -1.4133 -0.8819
  150SAPE   H6Y16653   0.748   3.156   9.725 -1.7355  1.6031 -2.5608
  150SAPE   C3716654   0.614   2.996   9.622  0.1283 -0.5826 -0.8158
  150SAPE   H7X16655   0.507   2.980   9.644  0.0400 -0.0817 -0.8809
  150SAPE   H7Y16656   0.670   2.901   9.631  0.3658 -0.5656 -2.0049
  150SAPE   C3816657   0.630   3.061   9.488 -0.7006  0.3410 -0.6073
  150SAPE   H8X16658   0.726   3.117   9.485 -0.2737 -0.3766 -0.6195
  150SAPE   H8Y16659   0.562   3.148   9.488 -1.7546 -0.4509 -2.5871
  150SAPE   C3916660   0.616   2.977   9.364  0.4333 -0.5473  0.7631
  150SAPE   H9X16661   0.536   2.903   9.389 -0.2536 -0.4928 -1.1791
  150SAPE   H9Y16662   0.712   2.923   9.349  0.4814 -0.6847  1.5310
  150SAPE  C31016663   0.574   3.060   9.239 -0.0867 -0.0135  0.6196
  150SAPE  H10X16664   0.643   3.144   9.214  0.7612 -0.4754  1.4109
  150SAPE  H10Y16665   0.476   3.101   9.271 -0.5784 -0.9343  0.3001
  150SAPE  C31116666   0.566   2.975   9.117 -0.6076 -0.3702 -0.4494
  150SAPE  H11X16667   0.477   2.909   9.114 -0.5588 -0.3357 -3.4677
  150SAPE  H11Y16668   0.648   2.900   9.118 -0.4274 -0.1701  0.2265
  150SAPE  C31216669   0.582   3.053   8.982 -0.4627  0.5077  0.4369
  150SAPE  H12X16670   0.673   3.118   8.980  0.8634 -1.2545  2.0590
  150SAPE  H12Y16671   0.497   3.120   8.958 -1.4370 -0.5296  0.9947
  150SAPE  C31316672   0.590   2.962   8.859  0.6259  0.1402  0.2551
  150SAPE  H13X16673   0.507   2.890   8.874  0.7376  0.2857  1.6328
  150SAPE  H13Y16674   0.677   2.893   8.867  1.4545  0.8907 -1.8553
  150SAPE  C31416675   0.596   3.033   8.720  0.2396  0.3915 -0.7937
  150SAPE  H14X16676   0.691   3.091   8.716  0.2183  0.3731 -1.8832
  150SAPE  H14Y16677   0.509   3.101   8.717  0.1330  0.2815 -0.2912
  150SAPE  C31516678   0.591   2.934   8.597 -0.4903  0.4737 -0.5648
  150SAPE  H15X16679   0.496   2.877   8.594 -0.3605  0.2985 -1.9419
  150SAPE  H15Y16680   0.671   2.862   8.624 -0.9057  0.8218  1.6529
  150SAPE  C31616681   0.602   2.992   8.456 -0.0806 -0.5896  0.4104
  150SAPE  H16X16682   0.506   3.045   8.438  1.1563  1.8456  0.6654
  150SAPE  H16Y16683   0.599   2.905   8.388  2.4778  0.2035 -0.7865
  150SAPE  C31716684   0.718   3.097   8.428  0.1767 -0.2778  0.0363
  150SAPE  H17X16685   0.711   3.184   8.496 -1.2706 -1.2421  1.1616
  150SAPE  H17Y16686   0.690   3.145   8.332  1.9589 -0.5444 -0.6356
  150SAPE  C31816687   0.860   3.041   8.416  0.7708  0.2569  0.3497
  150SAPE  H18X16688   0.938   3.118   8.437 -0.6796  1.4983  1.3413
  150SAPE  H18Y16689   0.864   3.016   8.308 -0.3043 -0.8436  0.5601
  150SAPE  H18Z16690   0.878   2.954   8.482  0.9685  0.5958  0.7521
  151SAPE     N16691   4.896   6.517  10.602  0.6009 -0.3071  0.4333
  151SAPE   HN116692   4.796   6.527  10.629  1.0733 -1.2102  2.6023
  151SAPE   HN216693   4.929   6.444  10.668  0.7122  1.4878  2.4203
  151SAPE   HN316694   4.951   6.604  10.617  0.6304 -0.0534 -0.9975
  151SAPE   C1216695   4.914   6.479  10.459 -0.7892 -0.5743  0.5328
  151SAPE  H12A16696   4.879   6.374  10.445  0.5508 -0.9540 -0.1400
  151SAPE  H12B16697   5.021   6.484  10.430 -0.9768  1.1682  0.0966
  151SAPE   C1116698   4.833   6.574  10.369 -0.0072 -0.5550  0.4812
  151SAPE  H11A16699   4.736   6.586  10.421  1.2271 -1.4666  3.1313
  151SAPE  H11B16700   4.822   6.524  10.271 -0.4776 -1.7736  1.1383
  151SAPE     P16701   4.792   6.834  10.369  0.5409 -0.5075 -0.5472
  151SAPE   O1316702   4.731   6.836  10.503  0.2071 -0.3835  0.1892
  151SAPE   O1416703   4.854   6.960  10.320  0.0197 -0.3515 -0.6479
  151SAPE   O1216704   4.891   6.708  10.367 -0.2479  0.2790  0.2459
  151SAPE   O1116705   4.682   6.785  10.271  0.2633  0.3673 -0.4357
  151SAPE    C116706   4.557   6.846  10.269  0.4736 -0.5732 -0.7004
  151SAPE    HA16707   4.489   6.798  10.343  0.1640  1.1822  0.1826
  151SAPE    HB16708   4.570   6.953  10.299 -2.2095  0.5087 -3.0855
  151SAPE    C216709   4.505   6.850  10.121  0.1441  0.0515 -0.1377
  151SAPE    HS16710   4.588   6.887  10.058  0.9957  1.1801  1.5983
  151SAPE   O2116711   4.389   6.935  10.095  0.7145  0.2561  0.3697
  151SAPE   C2116712   4.428   7.067  10.075  0.2855  0.8100  0.6844
  151SAPE   O2216713   4.542   7.103  10.058 -0.2847  0.3331 -0.1760
  151SAPE   C2216714   4.302   7.149  10.089  0.2584  0.9554  0.0564
  151SAPE   H2R16715   4.227   7.122  10.012  0.6280  0.8422 -0.2639
  151SAPE   H2S16716   4.269   7.123  10.191 -0.1015 -1.2006 -0.5945
  151SAPE    C316717   4.474   6.709  10.072  0.8796 -0.3211 -0.8036
  151SAPE    HX16718   4.371   6.683  10.105  0.3964 -1.2491 -3.0089
  151SAPE    HY16719   4.551   6.642  10.117  1.0043  0.9208  0.8940
  151SAPE   O3116720   4.459   6.703   9.928  0.6335  0.4033  0.2644
  151SAPE   C3116721   4.545   6.630   9.858  0.7263  0.4282  0.6187
  151SAPE   O3216722   4.637   6.565   9.901  0.0874  0.2099 -0.4607
  151SAPE   C3216723   4.511   6.639   9.708 -0.4162  0.2108 -0.8577
  151SAPE   H2X16724   4.478   6.742   9.680 -0.6286 -0.0809 -1.7237
  151SAPE   H2Y16725   4.429   6.568   9.684 -0.9258  0.4182  0.2525
  151SAPE   C2316726   4.332   7.301  10.070 -0.4242  0.2560  0.4774
  151SAPE   H3R16727   4.426   7.330  10.122 -0.5636 -2.4823  2.4076
  151SAPE   H3S16728   4.245   7.361  10.103 -0.8032  0.3441 -0.6450
  151SAPE   C2416729   4.348   7.327   9.918  0.2248  0.2591 -0.1995
  151SAPE   H4R16730   4.264   7.277   9.865 -0.7804 -0.4830  2.0522
  151SAPE   H4S16731   4.448   7.297   9.881  0.5163  0.5191  0.3765
  151SAPE   C2516732   4.324   7.481   9.896  0.1402  0.2101  0.7035
  151SAPE   H5R16733   4.347   7.550   9.979 -0.1864  1.2999 -0.1108
  151SAPE   C2616734   4.269   7.537   9.787  0.5147 -0.3526  0.4253
  151SAPE   H6R16735   4.245   7.644   9.787 -0.1677 -0.4645  3.3812
  151SAPE   C2716736   4.240   7.460   9.661  0.0904 -0.0487  0.0859
  151SAPE   H7R16737   4.145   7.499   9.620  1.8627  1.6348 -2.5955
  151SAPE   H7S16738   4.225   7.352   9.679  1.3765 -0.2816 -0.1717
  151SAPE   C2816739   4.361   7.472   9.570 -0.3224  0.4955  0.4931
  151SAPE   H8R16740   4.457   7.467   9.623  0.1169  1.0521 -0.2441
  151SAPE   C2916741   4.353   7.497   9.436  0.1971 -0.4232  0.1664
  151SAPE   H9R16742   4.447   7.494   9.378 -0.1304  0.8010 -0.4477
  151SAPE  C21016743   4.221   7.526   9.363  0.5861 -0.2457  0.3679
  151SAPE  H10R16744   4.213   7.634   9.336 -0.2588 -0.7162 -1.3401
  151SAPE  H10S16745   4.136   7.494   9.427  1.4812 -2.4568  0.4761
  151SAPE  C21116746   4.220   7.444   9.240 -0.4891  0.1598  0.2498
  151SAPE  H11R16747   4.245   7.337   9.254  3.0139  0.7901 -0.6620
  151SAPE  C21216748   4.193   7.471   9.109  0.4139  0.1463  0.9869
  151SAPE  H12R16749   4.181   7.388   9.039  0.6301 -0.2534  1.4234
  151SAPE  C21316750   4.154   7.605   9.055 -0.6955 -0.2535 -0.2319
  151SAPE  H13R16751   4.183   7.617   8.948 -3.4231  2.3250 -0.7624
  151SAPE  H13S16752   4.216   7.679   9.108 -1.3364 -1.2935  2.0107
  151SAPE  C21416753   4.010   7.652   9.083 -0.4953  0.1506 -0.5542
  151SAPE  H14R16754   3.993   7.696   9.182 -3.0071  0.2197 -0.9718
  151SAPE  C21516755   3.910   7.658   8.999 -0.3141  0.9739 -1.0735
  151SAPE  H15R16756   3.811   7.685   9.039  0.2999 -0.1711  1.2735
  151SAPE  C21616757   3.921   7.605   8.860 -0.4124  0.0599  0.2769
  151SAPE  H16R16758   3.835   7.538   8.840 -0.3161  0.2562 -0.8586
  151SAPE  H16S16759   4.017   7.552   8.844 -0.8411 -0.2659 -1.3166
  151SAPE  C21716760   3.923   7.730   8.764  0.4423 -1.0590  0.1633
  151SAPE  H17R16761   4.012   7.787   8.800  0.3364 -2.5222  2.8765
  151SAPE  H17S16762   3.827   7.780   8.787 -0.1631 -1.7242 -0.8534
  151SAPE  C21816763   3.938   7.689   8.617 -0.0385  0.3349  0.3978
  151SAPE  H18R16764   3.853   7.626   8.583  0.5111  1.1504 -2.7295
  151SAPE  H18S16765   4.028   7.624   8.614 -0.1544  0.1569  0.7917
  151SAPE  C21916766   3.953   7.816   8.521  0.5926  0.2882 -0.3229
  151SAPE  H19R16767   3.963   7.785   8.415  3.5371  1.1996 -0.3512
  151SAPE  H19S16768   4.046   7.872   8.544  0.1444 -0.1335  2.7249
  151SAPE  C22016769   3.832   7.914   8.528  0.6788  0.5559  1.2380
  151SAPE  H20R16770   3.846   8.007   8.469 -0.8834 -1.3310 -2.1950
  151SAPE  H20S16771   3.793   7.951   8.625 -1.7146 -0.2122  0.5983
  151SAPE  H20T16772   3.752   7.853   8.481  0.0084  0.6119  2.2847
  151SAPE   C3316773   4.633   6.605   9.619 -0.7818 -0.5271 -0.8315
  151SAPE   H3X16774   4.633   6.495   9.639  3.0672 -0.2963  0.7974
  151SAPE   H3Y16775   4.727   6.649   9.656 -1.6602  0.5745  0.1283
  151SAPE   C3416776   4.607   6.624   9.468  0.0851 -0.2711 -0.8282
  151SAPE   H4X16777   4.582   6.731   9.450  0.2547  0.2194  1.6748
  151SAPE   H4Y16778   4.517   6.571   9.431 -0.7441  0.6279 -0.1371
  151SAPE   C3516779   4.734   6.583   9.386  0.3891 -0.3884  0.4761
  151SAPE   H5X16780   4.763   6.479   9.415  1.3302 -0.3309 -0.2640
  151SAPE   H5Y16781   4.819   6.645   9.421 -0.1823 -0.2060  1.5885
  151SAPE   C3616782   4.718   6.596   9.227  0.4085 -0.0733  0.9667
  151SAPE   H6X16783   4.657   6.687   9.208 -0.0142 -0.1591  1.8929
  151SAPE   H6Y16784   4.653   6.513   9.192  0.0442  0.5876  0.0532
  151SAPE   C3716785   4.851   6.582   9.145  0.2917 -0.1840  0.2919
  151SAPE   H7X16786   4.874   6.483   9.101  0.6471 -0.1207  0.3363
  151SAPE   H7Y16787   4.935   6.618   9.207 -1.1059  0.9811  1.5553
  151SAPE   C3816788   4.853   6.681   9.032 -0.1014 -0.2911  0.6930
  151SAPE   H8X16789   4.953   6.705   8.990 -0.1386 -0.0485  0.7427
  151SAPE   H8Y16790   4.820   6.776   9.080  1.8737  1.1815 -0.7692
  151SAPE   C3916791   4.754   6.656   8.916 -0.6297  0.1084 -0.1481
  151SAPE   H9X16792   4.651   6.654   8.959 -0.4216 -1.3733  0.3196
  151SAPE   H9Y16793   4.775   6.558   8.867 -0.9024  0.0093 -0.0699
  151SAPE  C31016794   4.768   6.757   8.810 -0.4079 -0.2287 -0.3028
  151SAPE  H10X16795   4.873   6.788   8.795 -0.7225 -0.0168 -2.1018
  151SAPE  H10Y16796   4.716   6.852   8.835 -2.0846 -0.8123 -1.4773
  151SAPE  C31116797   4.710   6.715   8.673 -0.2356  0.6388  0.3646
  151SAPE  H11X16798   4.614   6.663   8.695  0.3367  0.1279  1.7352
  151SAPE  H11Y16799   4.769   6.638   8.618  0.0604  0.6228  0.7021
  151SAPE  C31216800   4.695   6.841   8.581 -0.0299 -0.0826 -0.1137
  151SAPE  H12X16801   4.797   6.885   8.573  0.4652 -0.8363  1.6974
  151SAPE  H12Y16802   4.625   6.912   8.630 -0.8267 -1.8541  1.4035
  151SAPE  C31316803   4.646   6.819   8.432 -0.2669  0.3698  0.2921
  151SAPE  H13X16804   4.639   6.920   8.388  0.2956  0.2899  0.0087
  151SAPE  H13Y16805   4.545   6.773   8.424  0.0741 -0.3927  0.2425
  151SAPE  C31416806   4.752   6.734   8.356 -0.4530 -0.2928  0.4050
  151SAPE  H14X16807   4.769   6.635   8.403  0.7818 -0.7166 -0.9189
  151SAPE  H14Y16808   4.851   6.785   8.361 -2.6001  4.2900 -0.6466
  151SAPE  C31516809   4.725   6.723   8.206 -0.1733 -0.2866  0.1224
  151SAPE  H15X16810   4.716   6.825   8.163  1.6458  0.6718  1.9328
  151SAPE  H15Y16811   4.621   6.690   8.183 -1.4794  2.7644  1.4039
  151SAPE  C31616812   4.815   6.621   8.142  0.0461 -0.3306 -0.3667
  151SAPE  H16X16813   4.774   6.532   8.194 -1.3168 -1.1730 -2.8057
  151SAPE  H16Y16814   4.925   6.630   8.155 -0.2503  0.6670  1.6415
  151SAPE  C31716815   4.790   6.600   7.987  0.6121 -0.4896 -0.6129
  151SAPE  H17X16816   4.883   6.551   7.952  1.6947  0.9799  0.1517
  151SAPE  H17Y16817   4.777   6.705   7.953 -3.3118 -1.3121 -1.9240
  151SAPE  C31816818   4.671   6.521   7.945  0.3487  0.0243 -0.0639
  151SAPE  H18X16819   4.658   6.430   8.007 -1.4015 -0.9819 -1.8497
  151SAPE  H18Y16820   4.665   6.492   7.838 -1.2456 -0.4805  0.1543
  151SAPE  H18Z16821   4.581   6.585   7.957 -1.2478 -2.1782 -0.0631
  152SAPE     N16822   5.975   0.295  10.682  0.1633 -0.3209  0.4665
  152SAPE   HN116823   5.908   0.368  10.714  0.7166  0.7894 -0.8911
  152SAPE   HN216824   5.995   0.230  10.761 -0.5814 -2.3240 -0.9403
  152SAPE   HN316825   6.064   0.337  10.649 -0.4691  0.1385 -0.6622
  152SAPE   C1216826   5.911   0.217  10.569  0.0401 -0.0734  0.2303
  152SAPE  H12A16827   5.897   0.288  10.485 -1.0299  0.3010  0.7179
  152SAPE  H12B16828   5.811   0.187  10.607  1.2978 -1.2780  2.6810
  152SAPE   C1116829   5.998   0.099  10.519  0.7689 -0.0266 -0.2055
  152SAPE  H11A16830   6.087   0.153  10.479 -1.3640  3.7005 -0.1779
  152SAPE  H11B16831   5.951   0.035  10.441  0.7872 -0.5228  0.1857
  152SAPE     P16832   6.027  -0.131  10.645 -0.1942  0.1419  0.1206
  152SAPE   O1316833   6.136  -0.183  10.729 -0.6568 -0.1879  0.2948
  152SAPE   O1416834   5.884  -0.156  10.686  0.5108  0.6529 -0.2300
  152SAPE   O1216835   6.055   0.026  10.621  0.8291  0.7700 -0.5618
  152SAPE   O1116836   6.050  -0.182  10.498 -0.5818 -0.1327  0.7747
  152SAPE    C116837   6.180  -0.160  10.439 -0.2981 -0.0935  0.3775
  152SAPE    HA16838   6.241  -0.081  10.489  0.4502 -0.0275 -0.6089
  152SAPE    HB16839   6.229  -0.259  10.444  0.7201  0.2946 -1.3704
  152SAPE    C216840   6.163  -0.125  10.289  0.4023  0.5854 -0.6044
  152SAPE    HS16841   6.234  -0.192  10.236 -0.3679 -0.9154  0.2238
  152SAPE   O2116842   6.196   0.010  10.269 -0.9837 -0.1290  0.0031
  152SAPE   C2116843   6.325   0.047  10.288  0.5585  0.6593 -0.4998
  152SAPE   O2216844   6.416  -0.031  10.324 -0.3456 -0.9718  0.2868
  152SAPE   C2216845   6.338   0.201  10.271  0.0656 -0.2410 -0.4326
  152SAPE   H2R16846   6.266   0.226  10.190  0.5001  1.7943 -0.2023
  152SAPE   H2S16847   6.307   0.249  10.366 -0.2040  2.3936 -1.8104
  152SAPE    C316848   6.021  -0.164  10.229 -0.2147  0.5842 -0.5036
  152SAPE    HX16849   5.936  -0.121  10.285 -1.3405 -1.2222 -0.7845
  152SAPE    HY16850   6.011  -0.274  10.245 -0.8468  0.4563 -1.7530
  152SAPE   O3116851   6.004  -0.120  10.089  0.0069  0.1397 -0.4454
  152SAPE   C3116852   6.017  -0.217   9.991 -0.3471 -0.8229 -0.2604
  152SAPE   O3216853   6.066  -0.325  10.009  0.0245 -0.0370  0.7409
  152SAPE   C3216854   5.953  -0.172   9.859 -0.4340  0.1280 -0.3278
  152SAPE   H2X16855   5.984  -0.065   9.849  0.9238  0.0980  2.6501
  152SAPE   H2Y16856   5.843  -0.170   9.872 -0.1714  0.5354  2.2999
  152SAPE   C2316857   6.483   0.245  10.240 -0.4724 -0.1954  0.8399
  152SAPE   H3R16858   6.552   0.181  10.299 -0.6243  0.4062  1.6984
  152SAPE   H3S16859   6.484   0.351  10.275 -1.4264  0.0897  0.0237
  152SAPE   C2416860   6.498   0.244  10.089 -0.5371  0.2059  0.4886
  152SAPE   H4R16861   6.583   0.311  10.061  1.1509 -1.9427  0.3770
  152SAPE   H4S16862   6.410   0.292  10.041 -0.0895  0.2544 -0.2842
  152SAPE   C2516863   6.514   0.108  10.020 -0.1270  0.1434  0.3503
  152SAPE   H5R16864   6.556   0.028  10.082 -0.5864  0.1878  0.7164
  152SAPE   C2616865   6.479   0.083   9.898  0.0294 -0.1782  0.0398
  152SAPE   H6R16866   6.500  -0.015   9.853 -1.0682 -0.1770 -0.4881
  152SAPE   C2716867   6.438   0.190   9.807 -0.0205 -0.0281  0.7652
  152SAPE   H7R16868   6.521   0.262   9.796 -1.9421  2.1128 -0.1439
  152SAPE   H7S16869   6.358   0.248   9.860  0.9512  0.3167  1.8714
  152SAPE   C2816870   6.388   0.150   9.677  0.2148 -0.1487 -0.0048
  152SAPE   H8R16871   6.315   0.067   9.678 -0.7267  0.6736  1.3527
  152SAPE   C2916872   6.412   0.202   9.555 -0.4450 -0.4510  0.2945
  152SAPE   H9R16873   6.367   0.149   9.470  0.9684 -0.2002 -0.6420
  152SAPE  C21016874   6.496   0.318   9.518  0.4525  0.3059  0.0370
  152SAPE  H10R16875   6.512   0.383   9.606 -3.4492  0.6384  0.5932
  152SAPE  H10S16876   6.434   0.376   9.446 -1.3145 -1.3551  0.1930
  152SAPE  C21116877   6.625   0.273   9.460 -0.2483  0.1835 -0.3711
  152SAPE  H11R16878   6.672   0.201   9.529 -2.2674  0.7014  1.5976
  152SAPE  C21216879   6.687   0.311   9.349  0.1841 -0.5112 -0.5281
  152SAPE  H12R16880   6.780   0.261   9.320  1.2262 -0.1304  2.0409
  152SAPE  C21316881   6.638   0.421   9.254 -0.0000  0.4248 -0.0945
  152SAPE  H13R16882   6.558   0.481   9.302  0.6985  1.4062 -0.1642
  152SAPE  H13S16883   6.592   0.364   9.170  2.2801 -1.3587 -0.1929
  152SAPE  C21416884   6.746   0.520   9.212  0.2606 -0.2257  0.5210
  152SAPE  H14R16885   6.790   0.585   9.289  0.6900  0.0579  0.0375
  152SAPE  C21516886   6.800   0.521   9.084 -0.0777 -0.4422 -0.9940
  152SAPE  H15R16887   6.878   0.593   9.054 -1.7323  1.0901 -1.7232
  152SAPE  C21616888   6.764   0.422   8.970  0.3382 -0.6339 -0.1006
  152SAPE  H16R16889   6.657   0.394   8.965 -0.1493  0.7283  2.0736
  152SAPE  H16S16890   6.822   0.327   8.980  0.4233 -0.5355  0.3510
  152SAPE  C21716891   6.791   0.494   8.838  0.0182  0.4937 -0.4970
  152SAPE  H17R16892   6.730   0.587   8.829 -2.0939 -0.6709  1.1189
  152SAPE  H17S16893   6.749   0.437   8.753 -0.7168  1.2777 -0.6741
  152SAPE  C21816894   6.937   0.531   8.802 -0.5888 -0.4164 -0.4505
  152SAPE  H18R16895   6.985   0.431   8.805 -0.7398 -0.5313 -1.8093
  152SAPE  H18S16896   6.977   0.605   8.874  1.6460 -0.8623 -1.2097
  152SAPE  C21916897   6.951   0.598   8.665  0.2958  0.2993 -0.2240
  152SAPE  H19R16898   7.050   0.647   8.654  0.9813 -0.0481  3.7935
  152SAPE  H19S16899   6.866   0.669   8.660  0.8470  1.0561  1.0068
  152SAPE  C22016900   6.942   0.493   8.556  0.5967 -0.2815 -0.7403
  152SAPE  H20R16901   6.971   0.533   8.457 -0.6489  0.9321 -0.6314
  152SAPE  H20S16902   6.837   0.457   8.545 -0.2725  1.3912  1.5844
  152SAPE  H20T16903   7.017   0.413   8.570 -1.2901 -2.0671 -0.5770
  152SAPE   C3316904   6.014  -0.240   9.735 -0.3710  0.3161  0.5043
  152SAPE   H3X16905   6.007  -0.349   9.755 -0.0331  0.0561 -0.7499
  152SAPE   H3Y16906   6.122  -0.214   9.730  0.0745 -1.3035  1.2469
  152SAPE   C3416907   5.962  -0.195   9.599 -0.2543 -0.1013  0.5813
  152SAPE   H4X16908   5.973  -0.085   9.606  0.7764 -0.2019  0.6916
  152SAPE   H4Y16909   5.856  -0.227   9.586  0.3065 -0.5573 -3.6062
  152SAPE   C3516910   6.054  -0.244   9.487  0.0592 -0.3523  0.2462
  152SAPE   H5X16911   6.027  -0.348   9.459 -3.1583  0.0554  1.5988
  152SAPE   H5Y16912   6.159  -0.242   9.522 -0.7193 -0.4887  2.6458
  152SAPE   C3616913   6.045  -0.156   9.365  0.8156 -0.0312  0.8925
  152SAPE   H6X16914   6.080  -0.054   9.391  0.8486  0.3878 -0.7048
  152SAPE   H6Y16915   5.937  -0.154   9.339  0.7634  0.5176  1.1326
  152SAPE   C3716916   6.124  -0.212   9.242 -0.0753 -0.3084 -0.0563
  152SAPE   H7X16917   6.090  -0.312   9.207  0.1374 -0.4528  0.1533
  152SAPE   H7Y16918   6.230  -0.235   9.265 -0.3009 -2.4847 -1.0376
  152SAPE   C3816919   6.119  -0.118   9.120  0.0033  0.4849 -0.0119
  152SAPE   H8X16920   6.172  -0.024   9.147  0.4635  0.6069 -1.2988
  152SAPE   H8Y16921   6.012  -0.092   9.105 -0.0831  0.0648 -0.1145
  152SAPE   C3916922   6.186  -0.172   8.992  0.3515 -0.2707  0.6155
  152SAPE   H9X16923   6.153  -0.277   8.977  0.0943  0.0558 -1.1807
  152SAPE   H9Y16924   6.296  -0.176   9.009  0.2940  0.3873  1.1992
  152SAPE  C31016925   6.140  -0.104   8.864  0.2526  0.2612 -0.5777
  152SAPE  H10X16926   6.152   0.005   8.882  1.2116 -0.1171  1.2353
  152SAPE  H10Y16927   6.029  -0.109   8.862  0.2506 -0.3060  0.5826
  152SAPE  C31116928   6.200  -0.161   8.737  0.1263 -0.5887 -0.1971
  152SAPE  H11X16929   6.185  -0.271   8.735  0.1825 -0.6569  1.7449
  152SAPE  H11Y16930   6.311  -0.154   8.748  0.2089 -0.5932 -1.0476
  152SAPE  C31216931   6.157  -0.102   8.606  0.3072  0.4907  0.0740
  152SAPE  H12X16932   6.190   0.003   8.589  0.4549  0.2492 -1.1806
  152SAPE  H12Y16933   6.048  -0.120   8.598  0.7580 -2.3995 -0.1015
  152SAPE  C31316934   6.228  -0.181   8.496  0.2518  0.1229 -0.4263
  152SAPE  H13X16935   6.333  -0.208   8.519 -0.5740 -3.6608 -0.7724
  152SAPE  H13Y16936   6.221  -0.129   8.398  0.3233  0.1020 -0.4422
  152SAPE  C31416937   6.159  -0.319   8.460 -0.4700  1.2428  0.1362
  152SAPE  H14X16938   6.057  -0.317   8.417 -1.3737  1.8976  2.2410
  152SAPE  H14Y16939   6.157  -0.384   8.550  1.7874  1.3577  0.2944
  152SAPE  C31516940   6.254  -0.404   8.367 -0.2495  0.5837  0.3854
  152SAPE  H15X16941   6.362  -0.394   8.392 -0.4897  1.3800  1.1600
  152SAPE  H15Y16942   6.249  -0.369   8.262 -0.6132 -1.1176 -0.1749
  152SAPE  C31616943   6.204  -0.546   8.367  0.6829  0.1691 -0.6598
  152SAPE  H16X16944   6.159  -0.566   8.466  0.7277 -0.1312 -0.7002
  152SAPE  H16Y16945   6.286  -0.619   8.349  2.9597  2.8073 -1.1620
  152SAPE  C31716946   6.100  -0.579   8.256  0.1512 -0.2046 -0.4876
  152SAPE  H17X16947   6.130  -0.565   8.150 -2.5427  1.4132 -1.0803
  152SAPE  H17Y16948   6.023  -0.503   8.279 -0.8225 -1.5854  0.9821
  152SAPE  C31816949   6.043  -0.723   8.262 -0.7791 -1.1534 -0.5594
  152SAPE  H18X16950   6.130  -0.789   8.245 -0.8925 -1.3603 -0.3458
  152SAPE  H18Y16951   5.967  -0.726   8.181 -3.4951  1.2914  1.7381
  152SAPE  H18Z16952   6.007  -0.732   8.367 -1.2219 -0.5259 -0.6509
  153SAPE     N16953   5.240   0.884  10.568 -0.8846 -0.8542  0.8258
  153SAPE   HN116954   5.300   0.808  10.530  1.4674 -0.2503  3.2502
  153SAPE   HN216955   5.141   0.851  10.562 -1.3578  0.3070  2.0259
  153SAPE   HN316956   5.256   0.964  10.505  0.7082 -0.0693  2.1889
  153SAPE   C1216957   5.258   0.918  10.714  0.1900 -0.7884 -0.0729
  153SAPE  H12A16958   5.226   0.826  10.766 -1.0092  0.5900  1.6989
  153SAPE  H12B16959   5.192   1.005  10.733 -0.5502 -1.0982 -1.1440
  153SAPE   C1116960   5.407   0.946  10.743 -0.1181 -0.3057 -0.1382
  153SAPE  H11A16961   5.459   0.856  10.705  1.2327  0.8862 -1.1756
  153SAPE  H11B16962   5.421   0.962  10.852 -1.2860  0.8239 -0.1437
  153SAPE     P16963   5.597   1.098  10.660  0.0045  0.0992 -0.1062
  153SAPE   O1316964   5.624   1.202  10.561  0.5374  0.5190 -0.1100
  153SAPE   O1416965   5.657   1.111  10.793 -0.7533 -0.3370  0.6978
  153SAPE   O1216966   5.446   1.064  10.669 -0.2403  0.4057  0.3112
  153SAPE   O1116967   5.655   0.966  10.587 -0.7946 -0.2353  0.0674
  153SAPE    C116968   5.605   0.935  10.459 -0.1031 -0.0095  0.0520
  153SAPE    HA16969   5.561   0.832  10.452  1.3763 -0.7344  1.2181
  153SAPE    HB16970   5.521   1.001  10.428 -1.7711 -0.7542  2.8389
  153SAPE    C216971   5.713   0.962  10.355 -0.8994  0.3142  0.0676
  153SAPE    HS16972   5.775   1.047  10.391  1.7713 -1.7269  0.4397
  153SAPE   O2116973   5.654   0.982  10.221  0.5375 -0.3598  0.3456
  153SAPE   C2116974   5.723   1.073  10.153 -0.9735 -0.1419 -0.0325
  153SAPE   O2216975   5.821   1.142  10.195 -0.2602  0.2951 -0.5464
  153SAPE   C2216976   5.665   1.091  10.010  0.6904 -0.7115 -0.0726
  153SAPE   H2R16977   5.687   0.994   9.960 -0.3578  0.0638 -2.1014
  153SAPE   H2S16978   5.558   1.117   9.999  0.9272  0.5560  0.6156
  153SAPE    C316979   5.801   0.835  10.369 -0.1279 -0.2760  0.0784
  153SAPE    HX16980   5.740   0.744  10.352  0.0353 -0.3202 -0.2932
  153SAPE    HY16981   5.845   0.821  10.470  0.2057 -2.3913 -0.3302
  153SAPE   O3116982   5.903   0.836  10.262 -0.0555  0.0055  0.4118
  153SAPE   C3116983   6.012   0.905  10.280 -0.4679 -0.1319  0.4425
  153SAPE   O3216984   6.048   0.951  10.390 -0.0310  0.3935  0.0389
  153SAPE   C3216985   6.088   0.895  10.153  0.2971  0.2075 -0.0951
  153SAPE   H2X16986   6.148   0.801  10.153 -0.3653 -0.2176  0.0349
  153SAPE   H2Y16987   6.169   0.971  10.147  1.9659 -1.3656  1.6702
  153SAPE   C2316988   5.751   1.192   9.932  0.1165 -0.7926 -0.0455
  153SAPE   H3R16989   5.861   1.177   9.935  0.5316  1.5909 -1.6712
  153SAPE   H3S16990   5.735   1.294   9.974  1.6268  0.0399 -1.4171
  153SAPE   C2416991   5.715   1.186   9.783  1.6063  0.0393 -0.4176
  153SAPE   H4R16992   5.607   1.200   9.763  2.2474  3.3637 -2.0226
  153SAPE   H4S16993   5.745   1.086   9.746  0.2632 -0.5818  0.1562
  153SAPE   C2516994   5.780   1.296   9.698  0.5693 -0.0637  0.3632
  153SAPE   H5R16995   5.831   1.383   9.743  0.5685  0.7108 -1.0882
  153SAPE   C2616996   5.766   1.309   9.563 -0.2506  0.1822 -0.4542
  153SAPE   H6R16997   5.835   1.382   9.519 -2.9063  2.5563 -0.8053
  153SAPE   C2716998   5.708   1.208   9.475 -0.5166 -0.5609  0.0329
  153SAPE   H7R16999   5.608   1.180   9.514 -0.2070 -2.2562 -0.3583
  153SAPE   H7S17000   5.764   1.112   9.479  0.0623 -0.2030  0.6292
  153SAPE   C2817001   5.712   1.247   9.329  0.1293  0.3070 -0.4905
  153SAPE   H8R17002   5.615   1.290   9.299  0.7391  2.1483  0.1080
  153SAPE   C2917003   5.801   1.230   9.236 -0.6499  0.0996 -0.1889
  153SAPE   H9R17004   5.773   1.264   9.135  0.7636 -0.4431 -0.7866
  153SAPE  C21017005   5.929   1.158   9.255 -0.8025  0.1742  0.8618
  153SAPE  H10R17006   5.934   1.076   9.180  0.2757  0.0355  1.0760
  153SAPE  H10S17007   5.941   1.110   9.355 -0.8600 -1.0851  0.2687
  153SAPE  C21117008   6.054   1.250   9.250  0.6977  0.2549  0.0885
  153SAPE  H11R17009   6.066   1.308   9.342  2.9403 -0.6223  0.3713
  153SAPE  C21217010   6.139   1.264   9.147  0.4606  0.4300 -0.1720
  153SAPE  H12R17011   6.210   1.347   9.153 -0.0170  0.8759 -0.7183
  153SAPE  C21317012   6.126   1.195   9.013  0.7539  0.5120 -0.4539
  153SAPE  H13R17013   6.063   1.105   9.030  0.4405  0.4013 -2.1158
  153SAPE  H13S17014   6.225   1.157   8.980 -0.8750 -3.4791 -1.0076
  153SAPE  C21417015   6.071   1.282   8.911  0.1661 -0.0956  0.7041
  153SAPE  H14R17016   6.116   1.382   8.906  0.1716 -0.0859  0.9248
  153SAPE  C21517017   5.970   1.248   8.819 -0.0416 -0.0886  1.0628
  153SAPE  H15R17018   5.942   1.321   8.742  0.8331  0.1889  1.0000
  153SAPE  C21617019   5.894   1.120   8.820 -0.9671  0.3480  0.0151
  153SAPE  H16R17020   5.899   1.061   8.914  1.0479 -0.7777 -0.7733
  153SAPE  H16S17021   5.938   1.049   8.747 -1.8363 -0.8428  0.6395
  153SAPE  C21717022   5.746   1.138   8.780  0.4011 -0.0981  0.0029
  153SAPE  H17R17023   5.706   1.053   8.721 -0.5238  1.7947 -2.2079
  153SAPE  H17S17024   5.738   1.209   8.694  0.8100 -1.2618 -1.0079
  153SAPE  C21817025   5.652   1.170   8.896  0.3375 -0.5257  0.5304
  153SAPE  H18R17026   5.685   1.263   8.948  0.7756 -0.3535 -0.0529
  153SAPE  H18S17027   5.651   1.092   8.975 -0.6541  2.1699  3.3289
  153SAPE  C21917028   5.502   1.191   8.859 -0.1238  0.0379 -0.4256
  153SAPE  H19R17029   5.457   1.099   8.817 -1.0113  0.1506  0.2707
  153SAPE  H19S17030   5.509   1.278   8.790 -0.0892 -0.1793 -0.6978
  153SAPE  C22017031   5.425   1.234   8.983 -0.3554 -0.0431 -0.3571
  153SAPE  H20R17032   5.316   1.234   8.959  0.0088  1.0232 -2.1240
  153SAPE  H20S17033   5.464   1.330   9.024  0.7750 -0.0972 -1.2854
  153SAPE  H20T17034   5.432   1.154   9.059  2.0981  3.3668  3.1887
  153SAPE   C3317035   6.011   0.868  10.022  0.7165 -0.0486  0.2023
  153SAPE   H3X17036   5.943   0.948   9.987  2.4816  0.1633 -2.9223
  153SAPE   H3Y17037   5.952   0.774  10.033  0.1501 -0.1884 -3.4924
  153SAPE   C3417038   6.100   0.862   9.897  0.1123  0.2186  0.4258
  153SAPE   H4X17039   6.167   0.777   9.920  0.9129  1.3375  2.3839
  153SAPE   H4Y17040   6.177   0.940   9.876  0.2932 -0.4843 -1.6281
  153SAPE   C3517041   6.010   0.824   9.774  0.2891 -0.5981 -0.6520
  153SAPE   H5X17042   5.935   0.905   9.774  3.2509  2.2665  1.5119
  153SAPE   H5Y17043   5.967   0.724   9.799  1.4201 -0.9885 -0.2149
  153SAPE   C3617044   6.094   0.826   9.640  0.6097 -0.1104 -0.2741
  153SAPE   H6X17045   6.164   0.740   9.636  2.3940  1.3846 -2.3494
  153SAPE   H6Y17046   6.147   0.923   9.629  3.0169 -1.2326  1.0665
  153SAPE   C3717047   5.995   0.822   9.530 -0.1549 -0.3844  0.4303
  153SAPE   H7X17048   5.916   0.900   9.541  1.2105  1.0368  0.4357
  153SAPE   H7Y17049   5.938   0.728   9.540 -2.4307  1.1296  2.1923
  153SAPE   C3817050   6.069   0.843   9.394  0.3099 -0.7262 -0.4090
  153SAPE   H8X17051   6.125   0.939   9.399 -2.7978  1.1119  0.6237
  153SAPE   H8Y17052   5.995   0.853   9.312 -1.8135  0.8522  1.6529
  153SAPE   C3917053   6.170   0.727   9.370  0.5232 -0.0129  0.4366
  153SAPE   H9X17054   6.257   0.726   9.439  1.7613  2.2010 -1.0210
  153SAPE   H9Y17055   6.211   0.744   9.269 -1.7561  1.1502 -0.3340
  153SAPE  C31017056   6.127   0.584   9.379 -0.0874  0.6008 -0.4059
  153SAPE  H10X17057   6.017   0.568   9.377 -0.1523  1.0985 -1.0854
  153SAPE  H10Y17058   6.159   0.540   9.477  1.0729  0.1740 -0.9660
  153SAPE  C31117059   6.199   0.491   9.279  0.4899 -0.4594 -0.0008
  153SAPE  H11X17060   6.308   0.497   9.300  0.8689  2.0731 -2.3615
  153SAPE  H11Y17061   6.174   0.518   9.174 -0.2837 -1.5122 -0.0922
  153SAPE  C31217062   6.164   0.344   9.287  0.8326  0.0491 -0.1794
  153SAPE  H12X17063   6.061   0.317   9.254 -0.0585  0.6593  1.9783
  153SAPE  H12Y17064   6.172   0.315   9.394 -0.0919 -0.0222 -0.1247
  153SAPE  C31317065   6.252   0.253   9.199  0.3868 -0.7590  0.2513
  153SAPE  H13X17066   6.257   0.147   9.232 -0.2176 -1.1712 -0.9861
  153SAPE  H13Y17067   6.356   0.284   9.224  0.5304  2.4324 -3.7921
  153SAPE  C31417068   6.233   0.266   9.047 -0.2477  0.2627 -0.1499
  153SAPE  H14X17069   6.220   0.375   9.026  0.3027  0.2095 -0.7953
  153SAPE  H14Y17070   6.139   0.213   9.021 -1.5161  2.9797 -1.2851
  153SAPE  C31517071   6.340   0.215   8.952 -0.9980  1.0393  0.5056
  153SAPE  H15X17072   6.351   0.105   8.941 -1.8447  1.0705 -0.6722
  153SAPE  H15Y17073   6.432   0.257   8.999 -0.3309  1.8539 -1.4854
  153SAPE  C31617074   6.344   0.277   8.808  0.4330 -0.1017 -0.1287
  153SAPE  H16X17075   6.333   0.387   8.818 -2.5255 -0.4548  1.1407
  153SAPE  H16Y17076   6.251   0.241   8.759  1.2953  0.9639 -2.6088
  153SAPE  C31717077   6.465   0.232   8.724  0.2768  0.2672  0.3554
  153SAPE  H17X17078   6.548   0.253   8.796  2.2405 -0.6050 -1.6039
  153SAPE  H17Y17079   6.478   0.294   8.633  0.7627 -1.9194 -1.1103
  153SAPE  C31817080   6.463   0.091   8.688 -0.3068  0.3840 -0.8144
  153SAPE  H18X17081   6.566   0.068   8.652  0.3257  0.4591  0.8992
  153SAPE  H18Y17082   6.384   0.066   8.614 -1.4140 -0.2494  0.5619
  153SAPE  H18Z17083   6.445   0.030   8.779  2.8842 -0.4286 -0.6346
  154SAPE     N17084   5.768   1.434  10.687 -1.2246 -0.4928  0.3253
  154SAPE   HN117085   5.761   1.535  10.712 -0.0590  0.3651 -2.5503
  154SAPE   HN217086   5.679   1.403  10.643 -2.9412  1.5363  2.2157
  154SAPE   HN317087   5.776   1.387  10.779  0.7727 -1.5498 -0.3499
  154SAPE   C1217088   5.885   1.406  10.591  0.2944 -0.2111 -0.3751
  154SAPE  H12A17089   5.848   1.458  10.500 -0.4846  2.3984  1.3883
  154SAPE  H12B17090   5.902   1.296  10.581 -1.1406 -0.5473  0.8405
  154SAPE   C1117091   6.011   1.485  10.648  0.3449  0.3362  0.5062
  154SAPE  H11A17092   5.979   1.590  10.663  0.1259  0.3148  0.2089
  154SAPE  H11B17093   6.083   1.491  10.563  1.2604 -0.4493  1.2174
  154SAPE     P17094   6.207   1.365  10.784  0.3069 -0.1513  0.0693
  154SAPE   O1317095   6.314   1.468  10.784  0.7383 -0.2043  0.5433
  154SAPE   O1417096   6.192   1.273  10.899 -0.3452  0.5591  0.2895
  154SAPE   O1217097   6.065   1.430  10.771 -0.6526 -0.4053  0.4949
  154SAPE   O1117098   6.199   1.274  10.652  0.0309 -0.4275 -0.0706
  154SAPE    C117099   6.327   1.255  10.584 -0.0413  0.2451  0.5384
  154SAPE    HA17100   6.379   1.353  10.584 -0.5149  0.5023  0.1716
  154SAPE    HB17101   6.400   1.192  10.640  1.1408  1.7217  0.6823
  154SAPE    C217102   6.308   1.206  10.440  0.5123  0.0966  0.0325
  154SAPE    HS17103   6.307   1.095  10.440 -0.0123  0.1024  0.6066
  154SAPE   O2117104   6.403   1.250  10.346  0.1495 -0.2284  0.7252
  154SAPE   C2117105   6.529   1.201  10.373 -0.2368 -0.5944  0.1846
  154SAPE   O2217106   6.560   1.127  10.464  0.5995  0.0740 -0.1051
  154SAPE   C2217107   6.632   1.266  10.278 -0.2172  0.1288  0.1818
  154SAPE   H2R17108   6.587   1.335  10.204 -0.6612 -0.4978 -0.1404
  154SAPE   H2S17109   6.694   1.330  10.344 -0.4486  0.1991  0.3341
  154SAPE    C317110   6.171   1.253  10.393 -0.3808 -0.0965 -0.1345
  154SAPE    HX17111   6.167   1.363  10.408  2.1040 -0.1458  1.2731
  154SAPE    HY17112   6.097   1.202  10.457 -0.5565 -0.7104 -0.8222
  154SAPE   O3117113   6.162   1.201  10.258  0.0714  0.1607  0.0011
  154SAPE   C3117114   6.104   1.275  10.163 -0.6227  0.1351 -0.7531
  154SAPE   O3217115   6.032   1.369  10.196  0.8234 -0.0123  0.2055
  154SAPE   C3217116   6.159   1.250  10.019  0.2742 -0.1211  0.0007
  154SAPE   H2X17117   6.136   1.150   9.978 -0.4609 -0.8769  2.1767
  154SAPE   H2Y17118   6.269   1.264  10.025  0.7041 -1.0425 -4.1781
  154SAPE   C2317119   6.709   1.161  10.200  0.5196 -0.2988 -0.2999
  154SAPE   H3R17120   6.753   1.086  10.270  0.8324  0.0325 -0.1393
  154SAPE   H3S17121   6.792   1.205  10.141  1.1930 -0.2920  0.6445
  154SAPE   C2417122   6.615   1.082  10.101 -0.2544 -0.9376 -0.1344
  154SAPE   H4R17123   6.537   1.033  10.164  0.4590 -0.8889  0.8027
  154SAPE   H4S17124   6.683   1.005  10.059  2.1487  1.0191  0.0759
  154SAPE   C2517125   6.553   1.166   9.997  0.3847  0.6897 -0.0132
  154SAPE   H5R17126   6.473   1.228  10.041  0.9089  1.1594  0.2940
  154SAPE   C2617127   6.594   1.165   9.869 -0.0223  0.2640 -0.2961
  154SAPE   H6R17128   6.528   1.216   9.797 -0.2880 -0.5342 -0.6186
  154SAPE   C2717129   6.700   1.085   9.801 -0.1822 -0.0055  0.1210
  154SAPE   H7R17130   6.668   1.075   9.695  0.3892 -1.5379  0.0786
  154SAPE   H7S17131   6.700   0.980   9.837  1.6907 -1.1089 -2.8881
  154SAPE   C2817132   6.836   1.134   9.814  0.5405  0.2959  0.2916
  154SAPE   H8R17133   6.865   1.188   9.905  0.8982  2.5299 -1.1050
  154SAPE   C2917134   6.932   1.107   9.720 -0.5117  0.2013 -0.1293
  154SAPE   H9R17135   7.038   1.132   9.738 -0.1127 -0.8915 -0.9514
  154SAPE  C21017136   6.908   1.029   9.592  0.8316 -0.0795 -0.3407
  154SAPE  H10R17137   6.840   1.093   9.531 -1.1380 -2.1821 -0.4408
  154SAPE  H10S17138   6.858   0.933   9.617  1.3128 -0.2643 -0.0790
  154SAPE  C21117139   7.036   1.006   9.516  0.1371 -0.4768 -0.7448
  154SAPE  H11R17140   7.114   0.956   9.576 -1.5045 -2.6021 -0.3307
  154SAPE  C21217141   7.060   1.036   9.386  0.0426  0.7833  0.5195
  154SAPE  H12R17142   7.155   1.000   9.343 -1.7704 -0.4673 -2.5878
  154SAPE  C21317143   6.965   1.108   9.289  0.3161  0.3984 -1.2319
  154SAPE  H13R17144   7.035   1.182   9.246  1.5503  0.1685  0.3351
  154SAPE  H13S17145   6.892   1.172   9.344  0.3972 -0.8765  0.4149
  154SAPE  C21417146   6.882   1.027   9.191  0.7115  0.3994  0.0943
  154SAPE  H14R17147   6.847   0.932   9.234  1.9023  0.9138  2.3197
  154SAPE  C21517148   6.858   1.074   9.060  0.0716 -0.6614  0.2462
  154SAPE  H15R17149   6.819   1.007   8.983  0.4659  0.0561 -0.5935
  154SAPE  C21617150   6.915   1.200   8.992  0.1332  0.1790 -0.2441
  154SAPE  H16R17151   7.000   1.154   8.937  1.7592 -0.7092  2.9091
  154SAPE  H16S17152   6.965   1.267   9.064 -2.4230 -1.1866  2.9578
  154SAPE  C21717153   6.819   1.269   8.889  0.6646  0.0030  0.2510
  154SAPE  H17R17154   6.773   1.198   8.817 -0.3749  1.7242 -0.8020
  154SAPE  H17S17155   6.885   1.336   8.830  1.4970  0.3645  1.5820
  154SAPE  C21817156   6.711   1.350   8.965 -0.0751 -0.1342 -1.3745
  154SAPE  H18R17157   6.784   1.413   9.019  1.8655 -2.1436 -1.5775
  154SAPE  H18S17158   6.654   1.288   9.038  1.1248  0.7297  0.3361
  154SAPE  C21917159   6.615   1.432   8.883  0.8270 -0.4405  0.4365
  154SAPE  H19R17160   6.652   1.438   8.778  0.6277 -1.8139  0.2804
  154SAPE  H19S17161   6.609   1.535   8.924 -2.4065  0.4886 -2.1815
  154SAPE  C22017162   6.477   1.367   8.879 -0.2252  0.3939 -0.7874
  154SAPE  H20R17163   6.463   1.308   8.787 -1.2809  2.4407 -1.9774
  154SAPE  H20S17164   6.396   1.442   8.866 -1.4899 -0.9266 -0.6654
  154SAPE  H20T17165   6.457   1.310   8.972  0.2316 -0.4605 -1.2089
  154SAPE   C3317166   6.087   1.333   9.911 -0.1454 -0.3252 -0.0550
  154SAPE   H3X17167   6.126   1.436   9.925 -0.1484 -0.6622  2.7114
  154SAPE   H3Y17168   5.979   1.348   9.930 -0.0795  1.0273 -0.7250
  154SAPE   C3417169   6.104   1.275   9.771  0.2633  0.0280 -0.0359
  154SAPE   H4X17170   6.036   1.330   9.703  1.2526  0.4508 -0.6980
  154SAPE   H4Y17171   6.073   1.168   9.767  2.6173 -0.6597 -0.7623
  154SAPE   C3517172   6.246   1.274   9.716  0.1485  0.5113 -0.1129
  154SAPE   H5X17173   6.313   1.202   9.767  0.1485  0.1025 -0.6823
  154SAPE   H5Y17174   6.290   1.375   9.726 -0.3447  0.6779  0.4016
  154SAPE   C3617175   6.237   1.232   9.564 -0.0205  0.2162  0.6120
  154SAPE   H6X17176   6.201   1.316   9.501 -0.8884  0.3542  1.2715
  154SAPE   H6Y17177   6.162   1.151   9.547 -0.2161  1.1429 -3.1828
  154SAPE   C3717178   6.372   1.192   9.501  0.3118  0.3142 -0.0426
  154SAPE   H7X17179   6.360   1.163   9.394  0.4104 -1.7074  0.4653
  154SAPE   H7Y17180   6.405   1.104   9.560  0.8869 -0.5965 -1.6658
  154SAPE   C3817181   6.480   1.310   9.497 -0.1736  0.1724  0.1046
  154SAPE   H8X17182   6.517   1.330   9.600  1.4501 -0.8816 -0.2473
  154SAPE   H8Y17183   6.426   1.401   9.465  0.2583  0.9577  1.5409
  154SAPE   C3917184   6.594   1.288   9.405  0.5436  0.2479 -0.4337
  154SAPE   H9X17185   6.548   1.277   9.304 -2.2812  0.5915  0.7779
  154SAPE   H9Y17186   6.635   1.191   9.440 -1.7137 -0.0242  1.5411
  154SAPE  C31017187   6.703   1.398   9.399 -1.1879  0.3092 -0.3621
  154SAPE  H10X17188   6.773   1.368   9.318  0.8784  1.7694  0.8454
  154SAPE  H10Y17189   6.754   1.411   9.496 -2.1159 -3.5729  0.7659
  154SAPE  C31117190   6.647   1.517   9.334 -0.3802  0.1449 -0.9709
  154SAPE  H11X17191   6.546   1.541   9.373 -0.4558  0.1245 -1.1577
  154SAPE  H11Y17192   6.630   1.496   9.227 -2.8618  0.5220 -0.6869
  154SAPE  C31217193   6.731   1.644   9.334  0.2188  0.0448 -0.0293
  154SAPE  H12X17194   6.829   1.634   9.281  1.0836  1.7125  1.2088
  154SAPE  H12Y17195   6.759   1.670   9.438  0.0757  1.2460 -0.2900
  154SAPE  C31317196   6.657   1.771   9.281  0.2295 -0.2360 -0.6692
  154SAPE  H13X17197   6.715   1.854   9.327 -1.9189  0.8140  0.2043
  154SAPE  H13Y17198   6.557   1.772   9.330  0.1343  1.9643 -0.8435
  154SAPE  C31417199   6.641   1.789   9.130  0.4240  0.0825 -0.0850
  154SAPE  H14X17200   6.592   1.698   9.090  1.6308 -2.3365  3.6273
  154SAPE  H14Y17201   6.745   1.787   9.090  1.1368 -1.5033  1.7816
  154SAPE  C31517202   6.568   1.918   9.093  0.0859 -0.2013  0.0402
  154SAPE  H15X17203   6.620   1.994   9.155 -0.0123 -0.6429  0.6640
  154SAPE  H15Y17204   6.466   1.902   9.133  0.0713  0.1157  0.1312
  154SAPE  C31617205   6.563   1.962   8.952  0.6342  0.9173 -0.1555
  154SAPE  H16X17206   6.670   1.987   8.932  1.7724 -2.0687  1.8719
  154SAPE  H16Y17207   6.505   2.057   8.941 -0.2430  0.3998 -0.0041
  154SAPE  C31717208   6.520   1.850   8.858 -0.2647  0.3153  0.4015
  154SAPE  H17X17209   6.418   1.818   8.887 -0.9091 -1.2669 -3.2260
  154SAPE  H17Y17210   6.579   1.756   8.861  0.1330  0.5795  0.9050
  154SAPE  C31817211   6.514   1.891   8.709 -0.4336  0.1131 -0.2680
  154SAPE  H18X17212   6.498   1.802   8.644  0.3636 -0.6381  0.5538
  154SAPE  H18Y17213   6.617   1.920   8.680 -0.4765  0.0642 -0.4670
  154SAPE  H18Z17214   6.450   1.981   8.696  0.8627  1.5814  2.9143
  155SAPE     N17215   0.801   1.879  10.910 -0.3495  0.2986  0.0574
  155SAPE   HN117216   0.903   1.861  10.915 -0.0153  2.2205  0.4006
  155SAPE   HN217217   0.759   1.899  11.004 -1.7508 -2.2826  0.0252
  155SAPE   HN317218   0.756   1.796  10.867 -0.4863  0.1577  0.4729
  155SAPE   C1217219   0.769   1.995  10.825  0.2435  1.0651  0.4434
  155SAPE  H12A17220   0.717   1.964  10.732  0.5288  2.8625 -0.3290
  155SAPE  H12B17221   0.863   2.036  10.785  0.2959 -0.1427 -0.7349
  155SAPE   C1117222   0.679   2.084  10.902 -0.7073  0.2998  0.2898
  155SAPE  H11A17223   0.667   2.174  10.839  1.5533  1.6383  1.6594
  155SAPE  H11B17224   0.736   2.103  10.996 -0.7667 -1.7132  0.7448
  155SAPE     P17225   0.434   2.106  10.973 -0.3599 -0.0944  0.2982
  155SAPE   O1317226   0.336   2.010  11.037  0.5305 -0.3875  0.3819
  155SAPE   O1417227   0.475   2.222  11.056 -0.4034 -0.0330 -0.6096
  155SAPE   O1217228   0.558   2.014  10.931 -0.4397  0.1476 -0.2750
  155SAPE   O1117229   0.374   2.161  10.842  0.0430  0.3745  0.6014
  155SAPE    C117230   0.434   2.274  10.775  0.0379 -0.5310 -0.2013
  155SAPE    HA17231   0.361   2.357  10.760  3.5403  2.1938 -3.0054
  155SAPE    HB17232   0.521   2.310  10.835 -0.2551  0.3289 -0.2769
  155SAPE    C217233   0.492   2.236  10.639 -0.3838 -0.6652 -0.1369
  155SAPE    HS17234   0.549   2.142  10.653  0.9186  0.2887  1.0481
  155SAPE   O2117235   0.577   2.344  10.584 -0.0189 -0.1124  0.4849
  155SAPE   C2117236   0.712   2.336  10.593  0.0774 -0.4676  0.2181
  155SAPE   O2217237   0.769   2.258  10.661 -0.6855  0.1199 -0.7759
  155SAPE   C2217238   0.778   2.435  10.506  0.0810  0.2778  1.1585
  155SAPE   H2R17239   0.742   2.538  10.528  0.5654  0.9454 -1.0412
  155SAPE   H2S17240   0.887   2.445  10.528  0.3747 -0.7879  0.2301
  155SAPE    C317241   0.379   2.207  10.541  1.1670 -0.6135  0.2706
  155SAPE    HX17242   0.307   2.290  10.529  1.2554 -0.5151  0.4149
  155SAPE    HY17243   0.304   2.133  10.576  0.5227 -1.4248 -2.6993
  155SAPE   O3117244   0.438   2.156  10.412  0.1765 -0.4669 -0.6753
  155SAPE   C3117245   0.444   2.248  10.313 -0.3178  0.1047  0.4340
  155SAPE   O3217246   0.412   2.365  10.324  0.0267 -0.3879  0.0746
  155SAPE   C3217247   0.494   2.177  10.187  0.5440  0.1003 -0.6171
  155SAPE   H2X17248   0.412   2.106  10.162  0.0476  0.5250 -0.2060
  155SAPE   H2Y17249   0.583   2.115  10.212  0.7173  0.8039  0.5170
  155SAPE   C2317250   0.766   2.392  10.354  0.3343 -0.4740  0.1154
  155SAPE   H3R17251   0.667   2.398  10.304  1.2280  2.2998 -1.4156
  155SAPE   H3S17252   0.788   2.284  10.346 -1.2720 -0.5451 -4.5698
  155SAPE   C2417253   0.872   2.452  10.257 -0.4796  0.7776  0.9396
  155SAPE   H4R17254   0.875   2.410  10.154  1.6270  4.3899 -0.5776
  155SAPE   H4S17255   0.967   2.413  10.299 -1.4760 -0.3437  2.2261
  155SAPE   C2517256   0.879   2.599  10.247  0.1471  0.8826 -0.5323
  155SAPE   H5R17257   0.899   2.637  10.348 -1.0771 -2.5335  1.0878
  155SAPE   C2617258   0.865   2.679  10.142 -0.9974  0.2454  0.2629
  155SAPE   H6R17259   0.881   2.786  10.155  1.6228 -0.0020 -0.6953
  155SAPE   C2717260   0.854   2.644   9.994  0.0414 -0.5112 -0.1537
  155SAPE   H7R17261   0.784   2.722   9.956  0.0191 -0.2575  0.3992
  155SAPE   H7S17262   0.807   2.544   9.992 -0.9610 -0.0413 -0.2699
  155SAPE   C2817263   0.991   2.636   9.927  0.3764 -0.2874  0.9138
  155SAPE   H8R17264   1.062   2.578   9.989 -0.1524 -0.0561  1.7524
  155SAPE   C2917265   1.040   2.701   9.822  0.0080  0.1076  0.2241
  155SAPE   H9R17266   1.145   2.679   9.796 -0.7190 -2.5479 -0.6948
  155SAPE  C21017267   0.971   2.797   9.730 -0.1210 -0.1940 -0.3668
  155SAPE  H10R17268   0.865   2.777   9.703 -0.1301 -0.9627  0.2275
  155SAPE  H10S17269   1.032   2.781   9.639 -0.4421  3.2010 -1.2442
  155SAPE  C21117270   0.966   2.935   9.793  0.6520  0.1661  0.1400
  155SAPE  H11R17271   0.925   2.936   9.895  0.9619 -1.1472  0.2957
  155SAPE  C21217272   1.002   3.043   9.723 -0.0401  0.1312 -0.4100
  155SAPE  H12R17273   1.005   3.139   9.777 -2.0810  1.0512 -1.8563
  155SAPE  C21317274   1.052   3.062   9.584  0.0212  0.4320  0.1727
  155SAPE  H13R17275   0.986   3.141   9.543  2.8535  1.2279 -2.9643
  155SAPE  H13S17276   1.025   2.971   9.526 -3.1357  1.3924  0.0338
  155SAPE  C21417277   1.200   3.081   9.549 -0.3292 -0.2228  0.1787
  155SAPE  H14R17278   1.232   3.001   9.480  0.5567  0.7081 -0.4917
  155SAPE  C21517279   1.280   3.183   9.585  0.1734 -0.0149 -0.7465
  155SAPE  H15R17280   1.387   3.185   9.557  0.0661  1.9500 -1.0871
  155SAPE  C21617281   1.236   3.298   9.678  0.0164  0.4565  0.6265
  155SAPE  H16R17282   1.127   3.314   9.668 -0.4285 -2.3333  0.5099
  155SAPE  H16S17283   1.280   3.396   9.648 -0.4469  1.3516  2.7888
  155SAPE  C21717284   1.271   3.291   9.829  1.3102 -0.3258 -0.1273
  155SAPE  H17R17285   1.379   3.307   9.846  1.3797 -2.0488  1.1876
  155SAPE  H17S17286   1.247   3.189   9.866 -1.1788 -0.2197 -1.3482
  155SAPE  C21817287   1.203   3.390   9.927  0.6171 -0.0641 -0.4592
  155SAPE  H18R17288   1.208   3.494   9.889 -0.9108 -0.7003 -2.4727
  155SAPE  H18S17289   1.252   3.394  10.027  1.4287 -2.2512 -0.7381
  155SAPE  C21917290   1.059   3.342   9.965 -0.4747 -0.1135  0.0190
  155SAPE  H19R17291   1.065   3.243  10.014  2.4626 -0.7852 -1.5672
  155SAPE  H19S17292   1.002   3.332   9.870  0.2821  0.1356 -0.4664
  155SAPE  C22017293   0.990   3.451  10.054 -0.1022  0.2464  0.5834
  155SAPE  H20R17294   0.883   3.427  10.038  0.1673  0.6045 -2.0125
  155SAPE  H20S17295   1.001   3.556  10.020  1.5265 -0.2575 -0.5373
  155SAPE  H20T17296   1.025   3.436  10.158  0.7855 -0.1497  0.2339
  155SAPE   C3317297   0.528   2.277  10.073 -0.6898  0.8326  0.4981
  155SAPE   H3X17298   0.636   2.300  10.088 -0.8255  2.0787 -0.3343
  155SAPE   H3Y17299   0.466   2.368  10.086 -3.5870 -1.1484  1.1646
  155SAPE   C3417300   0.489   2.218   9.934  0.0585 -0.0609  0.5729
  155SAPE   H4X17301   0.523   2.279   9.847 -1.6836 -0.5920 -0.5082
  155SAPE   H4Y17302   0.379   2.206   9.921 -0.2018  1.6624  1.0116
  155SAPE   C3517303   0.551   2.082   9.917 -0.2349 -0.4486 -0.7766
  155SAPE   H5X17304   0.506   2.043   9.823 -2.0876  0.2229 -0.2019
  155SAPE   H5Y17305   0.524   2.008   9.995  2.1251 -0.9427 -0.3989
  155SAPE   C3617306   0.712   2.092   9.913  0.0172  0.1918 -0.0805
  155SAPE   H6X17307   0.749   1.989   9.934 -2.2752 -0.7192 -0.4496
  155SAPE   H6Y17308   0.748   2.133  10.010  0.4638 -3.1442  1.2297
  155SAPE   C3717309   0.780   2.149   9.789  0.5242  0.4513 -0.7435
  155SAPE   H7X17310   0.887   2.156   9.819  0.0869  1.6128  0.6135
  155SAPE   H7Y17311   0.745   2.253   9.772  1.5046  0.3053 -3.8552
  155SAPE   C3817312   0.766   2.069   9.649  0.1435 -0.7410 -0.3542
  155SAPE   H8X17313   0.660   2.041   9.631 -0.5434  1.9932 -0.9224
  155SAPE   H8Y17314   0.827   1.977   9.656  2.1426  0.4252 -1.8870
  155SAPE   C3917315   0.818   2.145   9.523  0.4325  0.5327  0.4808
  155SAPE   H9X17316   0.918   2.190   9.539  0.8248 -0.1431 -0.1221
  155SAPE   H9Y17317   0.747   2.230   9.509  0.7453  0.7853  0.4276
  155SAPE  C31017318   0.807   2.062   9.397 -0.3344 -0.5641 -0.0165
  155SAPE  H10X17319   0.708   2.011   9.390 -0.0367 -1.1854  0.2774
  155SAPE  H10Y17320   0.875   1.975   9.404 -0.3919 -0.8150 -2.2525
  155SAPE  C31117321   0.830   2.143   9.273  0.4138  0.3625 -0.0369
  155SAPE  H11X17322   0.928   2.194   9.259  1.0887 -0.9540 -0.2027
  155SAPE  H11Y17323   0.753   2.223   9.276  0.0359  0.0337 -0.8057
  155SAPE  C31217324   0.807   2.057   9.145  0.8139 -0.1640 -0.7300
  155SAPE  H12X17325   0.703   2.017   9.138  0.0369  1.3790  1.2718
  155SAPE  H12Y17326   0.881   1.975   9.154  3.4850  2.5104  3.3495
  155SAPE  C31317327   0.833   2.123   9.010  0.3161 -0.3776  0.5272
  155SAPE  H13X17328   0.941   2.149   9.005  0.3650 -0.8291 -0.9150
  155SAPE  H13Y17329   0.763   2.209   9.000  1.4664  0.7270  1.8181
  155SAPE  C31417330   0.811   2.021   8.893 -0.1396  0.5507  0.5031
  155SAPE  H14X17331   0.891   1.944   8.901 -1.6598 -1.2075 -0.8760
  155SAPE  H14Y17332   0.841   2.080   8.804 -0.1677  0.8135  0.6671
  155SAPE  C31517333   0.669   1.970   8.892  0.5760  0.2865 -0.0538
  155SAPE  H15X17334   0.599   2.055   8.906  2.9204  2.2549 -0.0065
  155SAPE  H15Y17335   0.644   1.886   8.961 -1.2017  2.2034  1.7130
  155SAPE  C31617336   0.644   1.903   8.758 -1.1403 -0.7943  0.1597
  155SAPE  H16X17337   0.538   1.870   8.748 -1.4131  0.5765 -1.6778
  155SAPE  H16Y17338   0.707   1.811   8.753 -2.1779 -1.4869 -0.4333
  155SAPE  C31717339   0.663   2.001   8.637 -0.0543 -0.2231  0.0756
  155SAPE  H17X17340   0.772   2.013   8.619  0.0459  1.9724  1.9304
  155SAPE  H17Y17341   0.626   2.100   8.672  0.8609 -0.7957  2.7941
  155SAPE  C31817342   0.592   1.948   8.511 -0.0353  0.2115 -0.4763
  155SAPE  H18X17343   0.599   2.014   8.422 -1.2485  0.8203 -0.1371
  155SAPE  H18Y17344   0.483   1.939   8.533  0.2067 -0.8913  0.3067
  155SAPE  H18Z17345   0.640   1.855   8.476 -0.6823 -0.0247 -0.7464
  156SAPE     N17346   5.098   0.211  10.249 -0.9304  0.4261 -0.4937
  156SAPE   HN117347   4.994   0.206  10.255 -0.9598  3.2043  2.7386
  156SAPE   HN217348   5.114   0.258  10.158 -0.0222 -2.3184 -1.7872
  156SAPE   HN317349   5.140   0.117  10.266  0.1728  1.3108  1.9083
  156SAPE   C1217350   5.161   0.290  10.357 -0.0776 -0.3205  0.4416
  156SAPE  H12A17351   5.130   0.396  10.346  0.8066 -0.0590  0.4503
  156SAPE  H12B17352   5.271   0.284  10.341  0.2535 -1.1801  2.8158
  156SAPE   C1117353   5.138   0.231  10.501  0.0313  0.1338  0.8010
  156SAPE  H11A17354   5.028   0.218  10.513 -0.2603  2.1484  0.5495
  156SAPE  H11B17355   5.178   0.315  10.560  0.2377  0.0112  0.8368
  156SAPE     P17356   5.164   0.008  10.634  0.4351 -0.1500  0.1531
  156SAPE   O1317357   5.224   0.055  10.762  0.2270  0.0846 -0.6406
  156SAPE   O1417358   5.015   0.001  10.631 -0.0399 -0.6689 -0.4326
  156SAPE   O1217359   5.210   0.115  10.520 -0.0821 -0.5660 -0.2458
  156SAPE   O1117360   5.229  -0.127  10.578 -0.0736  0.0036 -0.0931
  156SAPE    C117361   5.376  -0.140  10.579 -0.1620 -0.0002  0.6567
  156SAPE    HA17362   5.428  -0.075  10.652 -2.9344  0.9023  1.8891
  156SAPE    HB17363   5.397  -0.244  10.613  0.8791 -0.6631 -1.8703
  156SAPE    C217364   5.430  -0.122  10.436 -1.2204  0.1341 -0.0928
  156SAPE    HS17365   5.414  -0.015  10.409 -1.1205  0.8852  2.6189
  156SAPE   O2117366   5.357  -0.211  10.344 -0.0185 -0.4763 -0.1740
  156SAPE   C2117367   5.265  -0.155  10.270  0.2049 -0.3600 -0.1255
  156SAPE   O2217368   5.226  -0.041  10.258  0.3177  0.1988  0.0144
  156SAPE   C2217369   5.219  -0.260  10.168  0.1907  0.4189  0.2852
  156SAPE   H2R17370   5.297  -0.274  10.090 -1.8916  1.4707 -2.0452
  156SAPE   H2S17371   5.191  -0.359  10.210  0.7089 -0.6098 -1.7267
  156SAPE    C317372   5.582  -0.161  10.431  0.0300 -0.4170  1.0138
  156SAPE    HX17373   5.595  -0.269  10.453 -0.2919 -0.3156  1.7278
  156SAPE    HY17374   5.638  -0.100  10.505  0.7264 -0.0411  0.1835
  156SAPE   O3117375   5.631  -0.133  10.298  0.6266 -0.5826  0.6368
  156SAPE   C3117376   5.668  -0.003  10.277 -0.2836 -0.4061  0.5133
  156SAPE   O3217377   5.672   0.079  10.368  0.0455  0.5047  0.2441
  156SAPE   C3217378   5.698   0.030  10.134 -0.4808 -0.0805 -0.1555
  156SAPE   H2X17379   5.727  -0.069  10.093 -0.6237 -0.6466  1.0638
  156SAPE   H2Y17380   5.786   0.095  10.116 -0.5290  0.2840  0.8862
  156SAPE   C2317381   5.089  -0.209  10.093 -0.2687  0.5823  1.2972
  156SAPE   H3R17382   5.015  -0.166  10.164 -0.6182  4.3521 -1.1712
  156SAPE   H3S17383   5.044  -0.305  10.062  3.0694 -0.8710  0.6725
  156SAPE   C2417384   5.109  -0.102   9.981  1.3442 -0.3611 -0.7762
  156SAPE   H4R17385   5.160  -0.141   9.890 -1.2931 -0.0556 -2.4393
  156SAPE   H4S17386   5.171  -0.022  10.027  0.1976 -1.3933  2.7754
  156SAPE   C2517387   4.972  -0.038   9.948 -0.1834 -0.1973  0.0195
  156SAPE   H5R17388   4.899  -0.023  10.029  0.2147  1.3855  0.1037
  156SAPE   C2617389   4.931  -0.000   9.826  0.0933  0.8238 -0.3458
  156SAPE   H6R17390   4.831   0.042   9.813 -1.4888 -2.4972  0.6097
  156SAPE   C2717391   5.014  -0.000   9.703  0.5422  0.7725 -0.0159
  156SAPE   H7R17392   4.956  -0.021   9.611  1.4217 -3.1873  0.2350
  156SAPE   H7S17393   5.087  -0.084   9.704  2.0650  1.9296 -4.2905
  156SAPE   C2817394   5.090   0.131   9.693  0.3618 -0.1406  0.0156
  156SAPE   H8R17395   5.109   0.192   9.783  0.4403  0.7539 -0.6129
  156SAPE   C2917396   5.163   0.153   9.584  0.2054 -0.2454  0.0538
  156SAPE   H9R17397   5.226   0.243   9.572 -0.5765  0.2867 -0.1674
  156SAPE  C21017398   5.171   0.069   9.456  0.3049  0.0522 -0.3221
  156SAPE  H10R17399   5.168  -0.040   9.476 -0.7811  0.2869  0.8275
  156SAPE  H10S17400   5.270   0.089   9.409  0.2391  1.7176  0.1901
  156SAPE  C21117401   5.069   0.099   9.350  0.4336 -0.3123  0.4768
  156SAPE  H11R17402   4.963   0.094   9.381 -0.0189  2.4777 -0.4269
  156SAPE  C21217403   5.099   0.112   9.220  0.4165 -0.1599 -0.3671
  156SAPE  H12R17404   5.016   0.155   9.162  0.6635  1.9858  0.8383
  156SAPE  C21317405   5.235   0.112   9.154 -0.4482  0.8563  0.4077
  156SAPE  H13R17406   5.283   0.017   9.186 -0.5334 -0.6284 -3.5981
  156SAPE  H13S17407   5.310   0.182   9.197 -0.1980  0.4652  0.6115
  156SAPE  C21417408   5.235   0.121   9.004 -0.5201 -0.2334  0.4970
  156SAPE  H14R17409   5.179   0.208   8.967 -0.0396  0.1059  0.5739
  156SAPE  C21517410   5.280   0.030   8.916  0.3889 -0.4518 -0.1376
  156SAPE  H15R17411   5.286   0.066   8.812  0.1312  1.7183  0.5805
  156SAPE  C21617412   5.340  -0.108   8.947  0.4451  0.4093 -0.2065
  156SAPE  H16R17413   5.376  -0.114   9.052 -2.1925  1.6473  0.8189
  156SAPE  H16S17414   5.422  -0.123   8.874 -0.5473  0.0813 -1.2610
  156SAPE  C21717415   5.234  -0.218   8.934  0.3541 -0.0560  0.1542
  156SAPE  H17R17416   5.165  -0.215   9.021 -0.6834  0.6768 -0.6875
  156SAPE  H17S17417   5.281  -0.318   8.942 -0.3394 -0.2700  1.9131
  156SAPE  C21817418   5.165  -0.220   8.795  0.0397 -0.1596 -0.1200
  156SAPE  H18R17419   5.082  -0.146   8.793 -2.1042 -2.5119 -1.7776
  156SAPE  H18S17420   5.124  -0.322   8.776  0.4465 -0.2636 -0.4514
  156SAPE  C21917421   5.251  -0.201   8.672  0.0055  0.0013  0.3103
  156SAPE  H19R17422   5.341  -0.265   8.686 -0.5016 -1.1840 -1.6553
  156SAPE  H19S17423   5.289  -0.097   8.666 -0.5012  0.1549 -0.3594
  156SAPE  C22017424   5.182  -0.234   8.544  0.2079 -0.4954  0.3085
  156SAPE  H20R17425   5.077  -0.197   8.545  0.0100 -1.0427 -0.2381
  156SAPE  H20S17426   5.178  -0.345   8.541 -0.6883 -0.4743  0.5938
  156SAPE  H20T17427   5.243  -0.182   8.468  1.3376  0.0419  1.5525
  156SAPE   C3317428   5.572   0.090  10.064 -0.4788 -0.4525  0.3940
  156SAPE   H3X17429   5.594   0.176   9.998 -1.0909 -1.6670 -1.4482
  156SAPE   H3Y17430   5.514   0.136  10.147 -0.1409 -0.5078  0.6606
  156SAPE   C3417431   5.497  -0.022   9.987 -0.2418  0.5186 -0.0354
  156SAPE   H4X17432   5.401   0.028   9.960 -1.0728 -0.8684  0.3316
  156SAPE   H4Y17433   5.477  -0.104  10.059 -1.9382  0.8813 -0.0747
  156SAPE   C3517434   5.578  -0.050   9.861 -0.3722 -0.0069  0.5224
  156SAPE   H5X17435   5.595  -0.160   9.868  0.0936  0.0250 -0.0297
  156SAPE   H5Y17436   5.676   0.001   9.856 -0.0369 -0.7859 -1.8831
  156SAPE   C3617437   5.503  -0.030   9.730  0.5566 -0.2825  0.8799
  156SAPE   H6X17438   5.504   0.073   9.689  1.8483 -0.6224  0.0347
  156SAPE   H6Y17439   5.401  -0.061   9.760 -0.7859  0.6185 -2.4817
  156SAPE   C3717440   5.557  -0.117   9.626 -0.5063  0.1881 -0.1743
  156SAPE   H7X17441   5.568  -0.217   9.674  2.1997  0.5993  0.1571
  156SAPE   H7Y17442   5.658  -0.084   9.595 -0.3946  0.4050  0.4087
  156SAPE   C3817443   5.455  -0.157   9.513  0.4783  0.1095 -0.0967
  156SAPE   H8X17444   5.428  -0.061   9.463  1.6814  1.5649  1.9701
  156SAPE   H8Y17445   5.365  -0.191   9.567  1.9828 -1.3018  1.6023
  156SAPE   C3917446   5.491  -0.260   9.405  0.5724 -0.1040  0.6987
  156SAPE   H9X17447   5.393  -0.291   9.362  0.8729  0.5522 -0.5019
  156SAPE   H9Y17448   5.540  -0.343   9.460  1.3370  1.0806  1.8457
  156SAPE  C31017449   5.592  -0.200   9.306 -0.1862 -0.8416  0.9349
  156SAPE  H10X17450   5.668  -0.144   9.364 -1.7844  1.0427  1.2941
  156SAPE  H10Y17451   5.540  -0.115   9.256 -0.3572 -0.6634  1.4115
  156SAPE  C31117452   5.637  -0.305   9.206 -0.1722 -0.5184  0.3944
  156SAPE  H11X17453   5.576  -0.279   9.117  2.3574  0.8097 -1.0147
  156SAPE  H11Y17454   5.621  -0.414   9.222 -3.0196 -0.0522  1.0492
  156SAPE  C31217455   5.785  -0.297   9.178 -0.4148  0.2805  0.0247
  156SAPE  H12X17456   5.849  -0.324   9.265  2.7768 -2.4678 -3.0269
  156SAPE  H12Y17457   5.817  -0.193   9.156  1.2489 -0.2570 -0.2196
  156SAPE  C31317458   5.833  -0.393   9.073 -0.3356 -0.1258 -0.3366
  156SAPE  H13X17459   5.768  -0.482   9.081 -1.6908  0.7667 -1.1071
  156SAPE  H13Y17460   5.939  -0.416   9.096 -0.7562 -0.8134  0.9519
  156SAPE  C31417461   5.803  -0.333   8.939 -0.2616 -0.3863  0.1810
  156SAPE  H14X17462   5.833  -0.227   8.929 -0.5098 -0.5369 -2.4579
  156SAPE  H14Y17463   5.696  -0.311   8.917 -0.5365 -1.0690  0.8128
  156SAPE  C31517464   5.849  -0.423   8.818  0.5133 -0.7334  0.5429
  156SAPE  H15X17465   5.805  -0.522   8.844 -0.8343 -0.3421 -0.2316
  156SAPE  H15Y17466   5.960  -0.417   8.822  0.4655  0.6842 -0.0388
  156SAPE  C31617467   5.797  -0.384   8.685 -0.3447  0.1562  0.2801
  156SAPE  H16X17468   5.808  -0.275   8.663 -0.2136  0.7409  3.0505
  156SAPE  H16Y17469   5.692  -0.415   8.668 -0.1899  0.2737 -1.0044
  156SAPE  C31717470   5.860  -0.462   8.572  0.7816 -0.4875 -0.0207
  156SAPE  H17X17471   5.892  -0.559   8.615 -0.2250 -1.2777 -1.0508
  156SAPE  H17Y17472   5.952  -0.409   8.538  0.9316 -0.6105  0.1908
  156SAPE  C31817473   5.775  -0.478   8.443  0.1137 -0.7142  0.5716
  156SAPE  H18X17474   5.708  -0.565   8.458 -2.4254  0.6613 -2.2635
  156SAPE  H18Y17475   5.832  -0.503   8.351  0.1851  0.6380  0.2381
  156SAPE  H18Z17476   5.728  -0.380   8.418  0.3239 -0.3138  1.6984
  157SAPE     N17477   4.430   6.226  10.950  0.1540 -0.4057 -0.4177
  157SAPE   HN117478   4.374   6.313  10.941 -0.5385 -1.0021 -2.1928
  157SAPE   HN217479   4.378   6.149  10.997  0.7257 -1.0547 -0.8350
  157SAPE   HN317480   4.516   6.242  11.006 -1.8388  1.0598  2.3637
  157SAPE   C1217481   4.460   6.190  10.808  0.5607  0.4403 -0.4135
  157SAPE  H12A17482   4.361   6.181  10.757  0.8941  2.4330 -1.4588
  157SAPE  H12B17483   4.514   6.093  10.815  0.7359  0.6261  1.1320
  157SAPE   C1117484   4.539   6.294  10.732  0.3460 -0.1739  1.3403
  157SAPE  H11A17485   4.555   6.258  10.628 -1.9419 -0.6360  1.1320
  157SAPE  H11B17486   4.634   6.308  10.789  0.8095  1.9522  0.1272
  157SAPE     P17487   4.520   6.550  10.663  0.0128  0.0087  0.3137
  157SAPE   O1317488   4.433   6.667  10.689  0.4741 -0.0602  0.0819
  157SAPE   O1417489   4.665   6.565  10.695 -0.0264 -0.2612 -0.4094
  157SAPE   O1217490   4.467   6.420  10.739 -0.2841 -0.3914  0.7320
  157SAPE   O1117491   4.515   6.497  10.509 -0.6801 -0.4317  0.1908
  157SAPE    C117492   4.395   6.481  10.436 -0.3730 -0.3850  0.1924
  157SAPE    HA17493   4.309   6.438  10.492  0.5385 -1.0047  1.1235
  157SAPE    HB17494   4.358   6.579  10.398  4.1835  0.7373 -1.6507
  157SAPE    C217495   4.416   6.383  10.313 -0.9847  0.0870  0.2400
  157SAPE    HS17496   4.493   6.436  10.252 -4.2380  2.1857 -2.2295
  157SAPE   O2117497   4.295   6.353  10.236  0.7313  0.6874 -0.6799
  157SAPE   C2117498   4.299   6.352  10.103  0.6799 -0.3234  0.2304
  157SAPE   O2217499   4.405   6.361  10.043  0.4728 -0.3592  0.3244
  157SAPE   C2217500   4.157   6.344  10.047 -0.0474  0.0616  0.5284
  157SAPE   H2R17501   4.109   6.253  10.090 -0.6550  0.0337 -0.1916
  157SAPE   H2S17502   4.103   6.420  10.106  1.2716  0.7665  0.8425
  157SAPE    C317503   4.476   6.246  10.355  0.7471  0.7844  0.6297
  157SAPE    HX17504   4.402   6.210  10.430  0.1582  0.9678  0.1434
  157SAPE    HY17505   4.572   6.261  10.409 -0.1713  1.2400  2.1790
  157SAPE   O3117506   4.496   6.145  10.246  0.1233 -0.0287 -0.2742
  157SAPE   C3117507   4.563   6.044  10.286  0.5371  1.2936  0.0431
  157SAPE   O3217508   4.610   6.028  10.399 -0.1726 -0.0802  0.4357
  157SAPE   C3217509   4.571   5.940  10.170 -0.1337  0.1709  0.3919
  157SAPE   H2X17510   4.480   5.877  10.175  1.3687 -2.1032 -0.0305
  157SAPE   H2Y17511   4.670   5.889  10.172 -0.9375 -1.4717 -1.0760
  157SAPE   C2317512   4.147   6.346   9.899 -0.2283 -0.3487  0.0174
  157SAPE   H3R17513   4.039   6.338   9.871  0.2449 -0.9562 -1.6573
  157SAPE   H3S17514   4.212   6.267   9.858 -0.3631 -1.0958  1.2263
  157SAPE   C2417515   4.169   6.485   9.846 -0.1820  0.3181 -0.0079
  157SAPE   H4R17516   4.269   6.519   9.882 -0.6484 -0.2085  1.8701
  157SAPE   H4S17517   4.098   6.553   9.898  0.5480  0.7993  0.3827
  157SAPE   C2517518   4.143   6.517   9.697  0.1042 -0.2141 -0.1758
  157SAPE   H5R17519   4.152   6.432   9.627  3.2073 -1.5076  1.6496
  157SAPE   C2617520   4.105   6.633   9.643 -0.5423 -0.3077 -0.0731
  157SAPE   H6R17521   4.081   6.637   9.536 -1.0107 -0.5011  0.0237
  157SAPE   C2717522   4.087   6.763   9.712  0.4337  0.0248 -0.2914
  157SAPE   H7R17523   4.029   6.734   9.803 -0.9529  1.4691 -0.6879
  157SAPE   H7S17524   4.009   6.824   9.662 -1.2298 -1.8127  0.0436
  157SAPE   C2817525   4.218   6.838   9.733 -0.0620  0.5527 -0.0591
  157SAPE   H8R17526   4.288   6.772   9.786 -0.8559  0.2991  0.6859
  157SAPE   C2917527   4.262   6.952   9.675 -0.2269  0.2640 -0.3198
  157SAPE   H9R17528   4.352   7.004   9.708 -1.6070  2.6344 -0.2122
  157SAPE  C21017529   4.177   7.043   9.579 -1.0696  0.2977  0.6791
  157SAPE  H10R17530   4.165   7.134   9.643 -0.2732  1.0014 -0.1505
  157SAPE  H10S17531   4.077   7.006   9.548 -1.5950  2.0369  0.2503
  157SAPE  C21117532   4.251   7.082   9.458 -0.6892 -0.1628 -0.2474
  157SAPE  H11R17533   4.274   7.190   9.456  1.0045 -0.5293 -1.1168
  157SAPE  C21217534   4.267   7.008   9.350  0.2028  0.5103  0.5175
  157SAPE  H12R17535   4.334   7.052   9.275  0.0912 -1.9926 -1.1101
  157SAPE  C21317536   4.228   6.861   9.332  0.0718  0.7924 -0.0870
  157SAPE  H13R17537   4.141   6.855   9.264 -0.2202  0.2794  0.3264
  157SAPE  H13S17538   4.187   6.828   9.431  1.8318  0.1249  0.4307
  157SAPE  C21417539   4.352   6.793   9.280  0.6781  0.2256 -0.2220
  157SAPE  H14R17540   4.412   6.755   9.363 -0.8520  1.5094  1.5085
  157SAPE  C21517541   4.387   6.773   9.151  0.1575 -0.6411 -0.0291
  157SAPE  H15R17542   4.489   6.733   9.139 -0.2673 -0.7386 -3.7973
  157SAPE  C21617543   4.301   6.816   9.033 -0.3316  0.3170 -0.5584
  157SAPE  H16R17544   4.198   6.821   9.074 -0.0057  1.2819  0.1593
  157SAPE  H16S17545   4.303   6.748   8.946 -3.2186  1.0001 -1.2264
  157SAPE  C21717546   4.325   6.961   8.981 -0.1723 -0.0014 -0.4377
  157SAPE  H17R17547   4.425   6.971   8.933  0.3827 -1.3622  0.4036
  157SAPE  H17S17548   4.321   7.033   9.066 -0.6941 -1.2639  0.6311
  157SAPE  C21817549   4.217   7.001   8.888  0.1093 -1.0056 -0.8774
  157SAPE  H18R17550   4.239   7.109   8.875  1.2091 -0.7137  2.7618
  157SAPE  H18S17551   4.118   6.997   8.938 -0.4296 -1.3945 -1.9608
  157SAPE  C21917552   4.205   6.923   8.764  0.1556  0.9248 -0.7095
  157SAPE  H19R17553   4.186   6.819   8.798  0.4745  1.2436  0.4632
  157SAPE  H19S17554   4.299   6.912   8.706 -0.2808  3.0752 -1.8869
  157SAPE  C22017555   4.094   6.977   8.673 -0.2864  0.1427  0.4502
  157SAPE  H20R17556   4.098   6.936   8.570  1.1137 -0.1741  0.6218
  157SAPE  H20S17557   4.087   7.087   8.662 -1.7617 -0.0536 -0.5849
  157SAPE  H20T17558   3.994   6.953   8.714 -1.0026 -0.3587 -1.5581
  157SAPE   C3317559   4.558   6.006  10.024 -0.2079  0.2952 -0.2078
  157SAPE   H3X17560   4.655   6.059  10.012  0.1581  0.1030  1.6495
  157SAPE   H3Y17561   4.466   6.068  10.022 -0.1267  0.4106 -0.3409
  157SAPE   C3417562   4.546   5.902   9.911 -0.3650  0.2539 -0.0042
  157SAPE   H4X17563   4.451   5.845   9.907  0.1232 -0.4422 -1.9842
  157SAPE   H4Y17564   4.628   5.828   9.925 -1.3060 -0.9015 -0.5012
  157SAPE   C3517565   4.562   5.973   9.783 -0.1723 -0.5133 -0.2021
  157SAPE   H5X17566   4.544   5.891   9.710 -0.5802 -1.4109  0.8877
  157SAPE   H5Y17567   4.667   6.008   9.774 -0.8194  1.0246 -2.2455
  157SAPE   C3617568   4.469   6.090   9.755 -0.3616 -0.2750 -0.2368
  157SAPE   H6X17569   4.472   6.168   9.834  0.8380  0.5863 -1.1209
  157SAPE   H6Y17570   4.366   6.047   9.758 -0.7113  0.5213 -0.5360
  157SAPE   C3717571   4.502   6.144   9.613  0.1386 -0.1964 -0.2845
  157SAPE   H7X17572   4.514   6.058   9.544  0.1689 -1.6577  1.5010
  157SAPE   H7Y17573   4.605   6.186   9.611  0.2511 -0.4788 -0.3354
  157SAPE   C3817574   4.397   6.237   9.557 -0.2227 -0.3091  0.1276
  157SAPE   H8X17575   4.389   6.329   9.618  1.1444  0.1759 -0.4203
  157SAPE   H8Y17576   4.295   6.194   9.568 -1.9027  4.0981  3.0343
  157SAPE   C3917577   4.424   6.276   9.414 -0.3442  0.1930  0.1033
  157SAPE   H9X17578   4.425   6.188   9.346  1.7586  0.5585 -0.3720
  157SAPE   H9Y17579   4.531   6.304   9.401 -0.0131 -1.1231 -0.1061
  157SAPE  C31017580   4.320   6.375   9.363  0.2019 -0.4136 -0.2874
  157SAPE  H10X17581   4.298   6.461   9.429 -0.6525  0.0559 -1.1828
  157SAPE  H10Y17582   4.228   6.313   9.354 -0.7294  0.7146  1.4072
  157SAPE  C31117583   4.357   6.433   9.227  0.1480 -0.4716 -0.9772
  157SAPE  H11X17584   4.422   6.523   9.233 -1.6891  0.9328 -1.6579
  157SAPE  H11Y17585   4.259   6.472   9.191  0.0278 -1.1181 -1.3599
  157SAPE  C31217586   4.414   6.332   9.129 -0.2042  0.0726 -0.4092
  157SAPE  H12X17587   4.351   6.241   9.117  0.0503 -0.3927  1.6667
  157SAPE  H12Y17588   4.517   6.294   9.145  0.7029  2.4361 -0.4489
  157SAPE  C31317589   4.437   6.412   8.996  0.1571 -0.3163 -0.5811
  157SAPE  H13X17590   4.521   6.485   8.995 -0.8194  0.8262 -1.0641
  157SAPE  H13Y17591   4.347   6.474   8.975  2.0837  2.1981 -1.7026
  157SAPE  C31417592   4.457   6.312   8.875  0.7759  0.1172 -0.4769
  157SAPE  H14X17593   4.362   6.256   8.862  1.5503 -1.0821 -1.1018
  157SAPE  H14Y17594   4.528   6.230   8.899  0.5013 -0.7713 -2.6173
  157SAPE  C31517595   4.505   6.376   8.741 -0.1117 -0.0555  0.0441
  157SAPE  H15X17596   4.514   6.292   8.669 -1.0589  1.0937 -1.4321
  157SAPE  H15Y17597   4.596   6.437   8.762 -0.7122  0.9521 -0.2836
  157SAPE  C31617598   4.395   6.469   8.690 -0.2582  0.1654  0.2191
  157SAPE  H16X17599   4.396   6.565   8.745 -1.9327  0.9280 -1.0413
  157SAPE  H16Y17600   4.304   6.411   8.713 -0.2119 -0.1490 -0.3690
  157SAPE  C31717601   4.398   6.492   8.536  0.0909 -0.2698  0.4002
  157SAPE  H17X17602   4.396   6.397   8.478 -0.1107 -0.2618  0.3924
  157SAPE  H17Y17603   4.493   6.542   8.509 -0.8377  1.6046  0.5120
  157SAPE  C31817604   4.282   6.577   8.486 -0.6384 -1.0788  0.6826
  157SAPE  H18X17605   4.183   6.548   8.528 -1.9061  4.0305  1.5599
  157SAPE  H18Y17606   4.271   6.569   8.376 -0.3471 -1.1782  0.6596
  157SAPE  H18Z17607   4.301   6.686   8.498 -1.4619 -0.3522 -3.7097
  158SAPE     N17608   5.351   0.292  10.811  0.4733  0.3998 -0.1455
  158SAPE   HN117609   5.359   0.273  10.912 -1.7910  1.1762  0.2120
  158SAPE   HN217610   5.284   0.371  10.798  0.4357  0.5988  1.2533
  158SAPE   HN317611   5.292   0.215  10.773  0.1577  0.5589  0.0142
  158SAPE   C1217612   5.488   0.288  10.750  0.0939 -0.4100  0.3108
  158SAPE  H12A17613   5.527   0.188  10.778 -0.0786 -0.9802 -1.4754
  158SAPE  H12B17614   5.537   0.375  10.798  1.7681  0.0533 -2.1542
  158SAPE   C1117615   5.495   0.316  10.597 -0.0782  0.8305  0.6661
  158SAPE  H11A17616   5.439   0.238  10.541 -2.7261  2.9497  0.2687
  158SAPE  H11B17617   5.600   0.315  10.560  0.3439 -1.8723  1.7822
  158SAPE     P17618   5.481   0.567  10.533  0.1625  0.6577 -0.0254
  158SAPE   O1317619   5.367   0.651  10.485  0.1079  0.1335  0.6654
  158SAPE   O1417620   5.551   0.602  10.657 -0.1826 -0.4092 -0.2622
  158SAPE   O1217621   5.419   0.429  10.555  0.2187 -0.3752 -0.0608
  158SAPE   O1117622   5.580   0.547  10.414  0.0451  0.4412  0.1166
  158SAPE    C117623   5.527   0.481  10.299 -0.1825 -0.0798 -0.2414
  158SAPE    HA17624   5.497   0.375  10.308 -0.1056  0.0244  1.2548
  158SAPE    HB17625   5.437   0.532  10.257  0.2949 -0.1622 -1.3981
  158SAPE    C217626   5.636   0.474  10.192 -0.1725 -0.1502  0.2981
  158SAPE    HS17627   5.681   0.575  10.182 -0.8900  0.1400  0.0019
  158SAPE   O2117628   5.577   0.426  10.068  0.2664 -0.2130 -0.5321
  158SAPE   C2117629   5.629   0.465   9.961  0.1501  0.4703  0.1380
  158SAPE   O2217630   5.733   0.522   9.942 -0.0660  0.4251  0.0933
  158SAPE   C2217631   5.538   0.418   9.843 -0.2962  0.3443 -0.4315
  158SAPE   H2R17632   5.567   0.313   9.823  2.1093  1.0858 -0.9169
  158SAPE   H2S17633   5.431   0.421   9.873 -0.4651  2.8351 -1.1641
  158SAPE    C317634   5.746   0.385  10.240  0.0746 -0.1045 -0.1587
  158SAPE    HX17635   5.709   0.281  10.231  1.5671 -0.6014 -0.7533
  158SAPE    HY17636   5.770   0.420  10.343 -0.6765 -1.0683  0.3511
  158SAPE   O3117637   5.863   0.381  10.148  0.6092  0.3039 -0.3124
  158SAPE   C3117638   5.956   0.462  10.157  0.4218  0.3785  0.4341
  158SAPE   O3217639   5.950   0.562  10.223  0.0733 -0.3656  0.1257
  158SAPE   C3217640   6.082   0.416  10.077  0.1801  0.1373  0.5420
  158SAPE   H2X17641   6.113   0.315  10.109 -1.3789 -0.4697  0.1718
  158SAPE   H2Y17642   6.164   0.478  10.118  0.7292  1.3615 -2.2595
  158SAPE   C2317643   5.541   0.511   9.717  0.7984 -0.5925  0.7809
  158SAPE   H3R17644   5.644   0.505   9.675  0.2452  0.2230 -0.7449
  158SAPE   H3S17645   5.527   0.611   9.764 -0.4452 -1.3129  1.9547
  158SAPE   C2417646   5.437   0.485   9.612  0.5005  0.1162 -0.3137
  158SAPE   H4R17647   5.436   0.378   9.580 -1.1967 -0.4140  1.4183
  158SAPE   H4S17648   5.455   0.540   9.517  0.8639  0.0823 -0.2660
  158SAPE   C2517649   5.303   0.522   9.673  0.7610 -0.9875  0.1651
  158SAPE   H5R17650   5.296   0.543   9.781 -1.0770 -2.5263  0.3601
  158SAPE   C2617651   5.189   0.536   9.604  0.1299  0.6839  0.1453
  158SAPE   H6R17652   5.096   0.567   9.654  0.7679 -0.8714  2.3797
  158SAPE   C2717653   5.182   0.515   9.453 -0.0069  0.2072  0.1488
  158SAPE   H7R17654   5.086   0.464   9.428 -0.2412  0.3301  0.7843
  158SAPE   H7S17655   5.262   0.447   9.417 -2.0656 -1.6398 -1.0420
  158SAPE   C2817656   5.194   0.643   9.373  0.1154 -0.0291 -0.0256
  158SAPE   H8R17657   5.237   0.731   9.423 -2.0622  1.3901 -0.6200
  158SAPE   C2917658   5.152   0.648   9.243  0.6255  0.3649  0.1310
  158SAPE   H9R17659   5.185   0.733   9.182 -0.3105  1.7768  1.5480
  158SAPE  C21017660   5.096   0.534   9.165  0.4970  0.2823  0.4771
  158SAPE  H10R17661   4.990   0.552   9.137  0.0800 -2.2293  0.3272
  158SAPE  H10S17662   5.101   0.442   9.227  0.5137  0.7540  1.1891
  158SAPE  C21117663   5.183   0.506   9.042  0.4707  0.5264 -0.1829
  158SAPE  H11R17664   5.292   0.493   9.056  0.4783  0.2212 -0.5517
  158SAPE  C21217665   5.148   0.493   8.914 -0.1664  0.2187 -0.1277
  158SAPE  H12R17666   5.233   0.489   8.844 -0.8316 -1.3244 -0.8913
  158SAPE  C21317667   5.017   0.511   8.843 -0.3588  0.5234  0.5244
  158SAPE  H13R17668   5.028   0.552   8.740  0.0877  0.6724  0.6289
  158SAPE  H13S17669   4.949   0.580   8.897 -1.0558 -1.4866  2.2719
  158SAPE  C21417670   4.937   0.379   8.839  0.0021  0.2426 -0.1931
  158SAPE  H14R17671   4.874   0.355   8.926 -0.5343  2.6765  0.1321
  158SAPE  C21517672   4.938   0.303   8.734 -0.6261  0.5347 -0.2009
  158SAPE  H15R17673   4.884   0.207   8.725  2.8379 -1.6655  1.1206
  158SAPE  C21617674   5.013   0.325   8.604  0.1369  0.0489  0.5043
  158SAPE  H16R17675   5.004   0.232   8.543  3.7427  0.5353 -0.8979
  158SAPE  H16S17676   5.121   0.346   8.614  0.2494  0.7932 -1.7988
  158SAPE  C21717677   4.961   0.432   8.499 -0.4207  0.0365  0.9077
  158SAPE  H17R17678   5.048   0.450   8.431 -0.3859 -0.4305  0.8245
  158SAPE  H17S17679   4.938   0.528   8.548  0.5833 -0.1994  1.8752
  158SAPE  C21817680   4.837   0.386   8.418  0.1736  0.2463 -0.3181
  158SAPE  H18R17681   4.754   0.406   8.490 -0.9124 -2.3349 -0.7820
  158SAPE  H18S17682   4.841   0.277   8.398  1.2686  0.0244  1.0142
  158SAPE  C21917683   4.812   0.473   8.294 -0.0927  0.1727 -0.6588
  158SAPE  H19R17684   4.881   0.446   8.211 -1.2551  1.4933 -2.0950
  158SAPE  H19S17685   4.841   0.575   8.327 -1.9386  0.5028  0.0304
  158SAPE  C22017686   4.663   0.479   8.238 -0.3768  0.0674 -0.1582
  158SAPE  H20R17687   4.604   0.532   8.316  1.1436  0.2447  0.8840
  158SAPE  H20S17688   4.610   0.381   8.235  1.8957 -1.2631  1.7051
  158SAPE  H20T17689   4.647   0.540   8.146 -1.8419  0.5119  0.3805
  158SAPE   C3317690   6.070   0.446   9.937  0.1535 -0.2649  0.5041
  158SAPE   H3X17691   6.170   0.460   9.889 -1.1913  0.7418 -2.0999
  158SAPE   H3Y17692   6.028   0.547   9.918  1.4052 -0.1346 -1.8719
  158SAPE   C3417693   5.990   0.355   9.849  1.3779  0.7169  0.1032
  158SAPE   H4X17694   5.888   0.347   9.892  1.0229 -1.6811 -1.1210
  158SAPE   H4Y17695   6.023   0.251   9.833 -0.1364  0.2899 -0.3245
  158SAPE   C3517696   5.966   0.407   9.704 -0.4139 -0.3843 -0.0628
  158SAPE   H5X17697   6.067   0.404   9.657 -0.0780 -2.0745  0.7151
  158SAPE   H5Y17698   5.908   0.502   9.707  0.3090  0.1375 -1.8916
  158SAPE   C3617699   5.873   0.315   9.628 -0.5259  0.7121 -0.2590
  158SAPE   H6X17700   5.780   0.302   9.688  0.1275  0.0136  0.6194
  158SAPE   H6Y17701   5.906   0.209   9.628  0.4490  1.0118 -0.4554
  158SAPE   C3717702   5.836   0.361   9.493 -0.9626  0.0703  0.5216
  158SAPE   H7X17703   5.926   0.355   9.429 -0.6571 -0.5570  1.0112
  158SAPE   H7Y17704   5.821   0.471   9.491 -2.7864 -0.1671  0.4899
  158SAPE   C3817705   5.721   0.288   9.420 -0.1313 -0.1768  0.0977
  158SAPE   H8X17706   5.642   0.265   9.495 -0.8328 -0.4310 -0.7029
  158SAPE   H8Y17707   5.770   0.191   9.395 -0.0920 -0.5209  1.4645
  158SAPE   C3917708   5.677   0.350   9.289 -0.1037  0.1537 -0.4129
  158SAPE   H9X17709   5.746   0.426   9.247 -0.7104  0.4264 -0.9228
  158SAPE   H9Y17710   5.595   0.418   9.321 -0.7804 -0.0869 -1.6154
  158SAPE  C31017711   5.620   0.254   9.183 -0.0247  0.8127 -0.2438
  158SAPE  H10X17712   5.557   0.311   9.111 -3.0521 -0.8688  0.9835
  158SAPE  H10Y17713   5.551   0.191   9.244  0.5551 -0.1426 -0.5651
  158SAPE  C31117714   5.729   0.173   9.112  0.2734  0.7816 -0.3769
  158SAPE  H11X17715   5.767   0.110   9.196 -0.3360  0.9374  0.0187
  158SAPE  H11Y17716   5.814   0.232   9.071  0.6964 -1.0115 -2.1176
  158SAPE  C31217717   5.670   0.069   9.016  0.3786  0.3814 -0.1983
  158SAPE  H12X17718   5.563   0.058   9.046 -0.2425 -1.4997 -2.8504
  158SAPE  H12Y17719   5.716  -0.030   9.038 -1.4917 -0.2082  1.2069
  158SAPE  C31317720   5.666   0.099   8.864  0.1000  0.0008  0.2495
  158SAPE  H13X17721   5.643   0.008   8.806  0.2040  0.5034 -0.5780
  158SAPE  H13Y17722   5.771   0.126   8.837 -0.4930  0.7400 -1.3376
  158SAPE  C31417723   5.569   0.209   8.834 -0.0811  0.1732 -0.5480
  158SAPE  H14X17724   5.596   0.300   8.892 -0.1232  1.0330 -1.8578
  158SAPE  H14Y17725   5.465   0.192   8.868 -0.9618 -0.7610 -3.5182
  158SAPE  C31517726   5.567   0.246   8.683 -0.0345  0.0224  0.2300
  158SAPE  H15X17727   5.501   0.170   8.635  0.5988 -0.6638  0.4365
  158SAPE  H15Y17728   5.662   0.245   8.626 -0.4638 -2.3615 -0.4840
  158SAPE  C31617729   5.502   0.382   8.658 -0.0580 -0.3372  0.6427
  158SAPE  H16X17730   5.557   0.468   8.704 -0.4283  0.1202  0.2340
  158SAPE  H16Y17731   5.407   0.379   8.716  0.7053 -0.7201  1.9092
  158SAPE  C31717732   5.474   0.426   8.516 -0.2650 -0.4110 -0.0048
  158SAPE  H17X17733   5.434   0.339   8.458  2.1645 -0.2855 -1.9587
  158SAPE  H17Y17734   5.574   0.454   8.475  0.1873 -0.2934  1.1719
  158SAPE  C31817735   5.377   0.546   8.506  0.0610 -0.0593  0.5558
  158SAPE  H18X17736   5.414   0.622   8.578  1.8391 -1.1772  0.8515
  158SAPE  H18Y17737   5.271   0.522   8.532  0.0588  1.5722  2.1743
  158SAPE  H18Z17738   5.376   0.596   8.408 -2.3829  1.4936  1.3221
  159SAPE     N17739   4.782   4.342   6.193  0.4821  0.3868  0.1212
  159SAPE   HN117740   4.728   4.285   6.124 -1.8490  1.2698  1.1777
  159SAPE   HN217741   4.882   4.318   6.207  0.1687 -0.2459  1.3357
  159SAPE   HN317742   4.743   4.308   6.283 -2.9479  1.0237 -1.0376
  159SAPE   C1217743   4.761   4.489   6.173 -0.1438  0.3826 -0.7504
  159SAPE  H12A17744   4.693   4.514   6.089 -0.3001  0.7329 -0.5244
  159SAPE  H12B17745   4.861   4.530   6.148  0.0624 -0.9322 -2.1488
  159SAPE   C1117746   4.705   4.554   6.299 -0.1878 -0.7844  0.8770
  159SAPE  H11A17747   4.688   4.663   6.283  1.2870 -0.7245 -0.4461
  159SAPE  H11B17748   4.795   4.556   6.365  0.3579  0.0962  0.1161
  159SAPE     P17749   4.605   4.420   6.498 -0.1996  0.2560 -0.2337
  159SAPE   O1317750   4.639   4.509   6.612  0.2899 -0.9459 -0.2802
  159SAPE   O1417751   4.480   4.337   6.511 -0.0079  0.3012  0.5994
  159SAPE   O1217752   4.593   4.499   6.362 -0.1821 -0.0151 -0.7783
  159SAPE   O1117753   4.726   4.329   6.460  0.0864 -0.3105 -0.8434
  159SAPE    C117754   4.734   4.196   6.504 -0.2420 -0.6148  0.4192
  159SAPE    HA17755   4.647   4.133   6.475  1.8155 -3.3102  0.0328
  159SAPE    HB17756   4.819   4.140   6.461 -0.0024 -0.3320  0.5247
  159SAPE    C217757   4.761   4.187   6.662  0.2473  0.2985 -0.3704
  159SAPE    HS17758   4.783   4.080   6.682  0.0516  0.3494  0.1166
  159SAPE   O2117759   4.645   4.226   6.738 -0.1643  0.1720  0.5254
  159SAPE   C2117760   4.561   4.137   6.773 -0.0809 -0.4880 -0.5339
  159SAPE   O2217761   4.570   4.020   6.761  0.5778  0.2472 -0.1095
  159SAPE   C2217762   4.451   4.205   6.862  0.4603 -0.5736  0.6301
  159SAPE   H2R17763   4.508   4.263   6.937 -1.9554  1.7625  0.7265
  159SAPE   H2S17764   4.401   4.279   6.795 -0.8122 -4.9229 -3.4630
  159SAPE    C317765   4.884   4.260   6.702  0.9267  0.9297  0.2217
  159SAPE    HX17766   4.877   4.363   6.659  0.0670  0.3192 -1.1413
  159SAPE    HY17767   4.970   4.212   6.650  0.7103  1.1784 -0.3760
  159SAPE   O3117768   4.893   4.261   6.849  0.3452 -0.4457 -0.0375
  159SAPE   C3117769   4.962   4.361   6.902  0.1058 -0.1781  0.2177
  159SAPE   O3217770   5.030   4.449   6.850 -0.2541 -0.1210  0.0532
  159SAPE   C3217771   4.924   4.346   7.049  0.6738  0.2280 -0.2551
  159SAPE   H2X17772   4.921   4.238   7.075 -0.1933  0.2645 -0.1779
  159SAPE   H2Y17773   4.821   4.385   7.064  0.2233 -0.1973 -2.0951
  159SAPE   C2317774   4.350   4.102   6.927 -0.1350 -0.1252 -0.4479
  159SAPE   H3R17775   4.322   4.027   6.849  0.4219  0.2141 -0.9845
  159SAPE   H3S17776   4.258   4.156   6.958 -0.4105 -2.1130  2.3634
  159SAPE   C2417777   4.404   4.017   7.040 -0.4500 -0.1621  0.1164
  159SAPE   H4R17778   4.511   3.988   7.029 -0.4294 -1.3511  3.1337
  159SAPE   H4S17779   4.332   3.933   7.041 -2.0791  1.1739 -1.7715
  159SAPE   C2517780   4.387   4.099   7.163  0.5805  0.6035  0.1017
  159SAPE   H5R17781   4.283   4.111   7.195  1.5219  3.1501  2.4438
  159SAPE   C2617782   4.480   4.168   7.237 -0.3590 -0.3662 -0.1975
  159SAPE   H6R17783   4.445   4.222   7.326  4.4437  1.9513  0.4359
  159SAPE   C2717784   4.633   4.163   7.213  0.0180  0.6705  0.2173
  159SAPE   H7R17785   4.658   4.268   7.186  1.4294  0.3852  0.4113
  159SAPE   H7S17786   4.661   4.102   7.125  2.1877  0.7797  0.8134
  159SAPE   C2817787   4.712   4.124   7.337 -0.0515 -0.8694 -0.2320
  159SAPE   H8R17788   4.741   4.019   7.346  1.6551 -0.3225  0.7954
  159SAPE   C2917789   4.730   4.206   7.442 -0.4138  0.9659  0.2373
  159SAPE   H9R17790   4.797   4.172   7.522  0.5997  1.6484 -0.3194
  159SAPE  C21017791   4.679   4.350   7.459 -0.7726 -0.6502 -0.5363
  159SAPE  H10R17792   4.657   4.396   7.360 -0.7066 -3.2365 -1.8132
  159SAPE  H10S17793   4.761   4.409   7.506 -2.5941  0.4683  1.3085
  159SAPE  C21117794   4.558   4.352   7.544 -0.4167 -0.0031 -0.4445
  159SAPE  H11R17795   4.478   4.282   7.514  0.3246 -0.3059 -1.8122
  159SAPE  C21217796   4.539   4.425   7.653 -0.4360 -0.3365  0.0857
  159SAPE  H12R17797   4.441   4.428   7.704  0.9425 -2.8249  3.0371
  159SAPE  C21317798   4.636   4.528   7.706  0.3522  0.2868 -0.0562
  159SAPE  H13R17799   4.573   4.613   7.741 -0.4200 -1.3174  2.6197
  159SAPE  H13S17800   4.693   4.576   7.624 -1.1900  1.6984 -0.3089
  159SAPE  C21417801   4.725   4.462   7.812 -0.6924 -0.3117  0.3063
  159SAPE  H14R17802   4.830   4.455   7.781 -0.1526  1.0795  1.7866
  159SAPE  C21517803   4.690   4.433   7.937  0.2435  0.3996  0.3996
  159SAPE  H15R17804   4.756   4.378   8.006 -1.9228 -1.8670  0.7632
  159SAPE  C21617805   4.551   4.456   7.988  0.4488 -0.0427  0.9608
  159SAPE  H16R17806   4.487   4.369   7.961 -2.4533  1.7547  1.8038
  159SAPE  H16S17807   4.504   4.540   7.933 -1.2880 -2.1549 -0.8857
  159SAPE  C21717808   4.555   4.475   8.140  0.1369  0.7503  0.3722
  159SAPE  H17R17809   4.450   4.492   8.172 -0.1451  0.9776 -0.6705
  159SAPE  H17S17810   4.605   4.570   8.171 -0.7598  1.0031  1.0653
  159SAPE  C21817811   4.606   4.355   8.223 -0.1623  0.3868 -0.6423
  159SAPE  H18R17812   4.713   4.378   8.243 -0.2667  0.2956  0.0589
  159SAPE  H18S17813   4.601   4.257   8.172 -2.2469 -0.1906  0.6022
  159SAPE  C21917814   4.535   4.344   8.357  0.6759  0.3745 -0.0355
  159SAPE  H19R17815   4.429   4.314   8.341  0.8615 -0.5088  0.3500
  159SAPE  H19S17816   4.533   4.431   8.425 -1.0188 -0.6653  1.2910
  159SAPE  C22017817   4.598   4.231   8.436 -0.1872 -0.1172  0.2248
  159SAPE  H20R17818   4.550   4.200   8.532 -3.8166 -0.5415 -1.6606
  159SAPE  H20S17819   4.697   4.272   8.468 -0.9053  0.8891  1.1906
  159SAPE  H20T17820   4.612   4.150   8.362 -2.0182 -0.7611  0.5527
  159SAPE   C3317821   5.038   4.414   7.133 -0.1152  0.0886 -0.2323
  159SAPE   H3X17822   5.045   4.524   7.116  1.2846 -0.0443 -0.5883
  159SAPE   H3Y17823   5.138   4.377   7.102  1.4413  1.4580  2.9538
  159SAPE   C3417824   5.011   4.389   7.286 -0.4571 -0.3149  0.0970
  159SAPE   H4X17825   5.025   4.280   7.302 -0.0802 -0.1755  0.7607
  159SAPE   H4Y17826   4.904   4.402   7.313 -0.0856  1.5405  0.7718
  159SAPE   C3517827   5.106   4.472   7.371 -0.0534  0.5802 -0.0211
  159SAPE   H5X17828   5.097   4.578   7.339 -1.1667  1.1837  2.1595
  159SAPE   H5Y17829   5.206   4.426   7.358  0.9922  2.8556 -0.2648
  159SAPE   C3617830   5.057   4.452   7.520 -0.3024 -0.2754  0.1169
  159SAPE   H6X17831   5.065   4.345   7.548  0.4463 -0.8250 -2.1178
  159SAPE   H6Y17832   4.951   4.485   7.527 -1.0811 -2.3268 -1.4599
  159SAPE   C3717833   5.159   4.522   7.608 -0.3510 -0.2991 -0.5382
  159SAPE   H7X17834   5.184   4.627   7.582 -1.3052  0.2303  0.6250
  159SAPE   H7Y17835   5.255   4.470   7.589 -0.6742 -0.6585 -1.1770
  159SAPE   C3817836   5.131   4.502   7.763 -0.2807 -1.4701  0.1309
  159SAPE   H8X17837   5.115   4.393   7.776  0.0622 -1.3592  1.6665
  159SAPE   H8Y17838   5.027   4.536   7.785 -0.0536 -0.2931 -0.5841
  159SAPE   C3917839   5.225   4.579   7.851  0.7050 -0.4471 -0.3017
  159SAPE   H9X17840   5.206   4.685   7.826  0.2746 -0.2495  0.8437
  159SAPE   H9Y17841   5.333   4.556   7.840  1.2530  2.3232 -0.9643
  159SAPE  C31017842   5.200   4.549   8.003  0.8004 -0.4346  0.5039
  159SAPE  H10X17843   5.259   4.622   8.062  0.5872  0.1364  0.0101
  159SAPE  H10Y17844   5.242   4.449   8.029 -0.2259 -0.4914  2.0578
  159SAPE  C31117845   5.062   4.578   8.050 -0.2688 -0.3408 -0.0932
  159SAPE  H11X17846   4.986   4.517   7.997 -1.1133 -0.1159  0.8452
  159SAPE  H11Y17847   5.046   4.685   8.024 -1.5989 -0.5465 -0.1273
  159SAPE  C31217848   5.048   4.562   8.206 -0.1612  0.1454 -0.2998
  159SAPE  H12X17849   5.133   4.614   8.256 -0.4802  2.0162 -1.6276
  159SAPE  H12Y17850   5.043   4.455   8.235 -1.2241  0.2149 -0.1856
  159SAPE  C31317851   4.912   4.625   8.249 -0.0014 -0.3225 -0.5711
  159SAPE  H13X17852   4.834   4.600   8.175  1.0818 -1.0169 -1.5126
  159SAPE  H13Y17853   4.924   4.735   8.250 -0.3338 -0.2846  1.7054
  159SAPE  C31417854   4.876   4.583   8.391 -0.0408  0.4588  0.3304
  159SAPE  H14X17855   4.964   4.608   8.454  0.7004  3.6804 -1.8826
  159SAPE  H14Y17856   4.855   4.474   8.389 -0.8969  0.6070  0.6383
  159SAPE  C31517857   4.760   4.669   8.448 -1.0523  0.3341  0.2108
  159SAPE  H15X17858   4.679   4.650   8.376 -0.4080 -2.7344  0.2433
  159SAPE  H15Y17859   4.799   4.773   8.450  0.6554 -0.3024  1.5996
  159SAPE  C31617860   4.718   4.621   8.585 -0.3202  0.0460 -0.4946
  159SAPE  H16X17861   4.809   4.619   8.647 -1.1273 -1.3238  0.6953
  159SAPE  H16Y17862   4.698   4.511   8.587 -0.2579  0.0535  1.5845
  159SAPE  C31717863   4.605   4.704   8.647 -0.1560 -0.2141  0.3825
  159SAPE  H17X17864   4.512   4.707   8.586  0.0988 -1.0786 -0.0430
  159SAPE  H17Y17865   4.641   4.809   8.649  0.9883 -0.6100  1.0312
  159SAPE  C31817866   4.568   4.658   8.789 -0.7612  1.1888 -0.5190
  159SAPE  H18X17867   4.654   4.674   8.858 -0.3286  0.7829 -0.9594
  159SAPE  H18Y17868   4.554   4.548   8.786  1.6770  0.7124  3.0370
  159SAPE  H18Z17869   4.471   4.702   8.819 -1.0580  0.7943 -0.8984
  160SAPE     N17870   3.638   5.061   6.567  0.6527 -0.1964 -0.6900
  160SAPE   HN117871   3.689   5.103   6.647  0.7252  0.9370 -1.3180
  160SAPE   HN217872   3.653   4.959   6.556  0.2062 -0.1645 -1.6350
  160SAPE   HN317873   3.677   5.101   6.479  0.2655  0.1536 -0.7065
  160SAPE   C1217874   3.491   5.067   6.566 -0.2727 -0.3851  0.2967
  160SAPE  H12A17875   3.459   4.996   6.644 -0.5881 -1.7717 -1.0718
  160SAPE  H12B17876   3.454   5.027   6.469  0.9554  0.5504 -0.5866
  160SAPE   C1117877   3.446   5.215   6.576 -0.8280 -0.0828 -0.0630
  160SAPE  H11A17878   3.486   5.252   6.673 -0.0377  1.1917 -0.8667
  160SAPE  H11B17879   3.335   5.212   6.579 -0.8208 -2.1041 -0.8314
  160SAPE     P17880   3.534   5.441   6.479 -0.3511  0.3159 -0.4043
  160SAPE   O1317881   3.616   5.493   6.370 -0.7066  0.1783  0.0857
  160SAPE   O1417882   3.407   5.519   6.496 -0.2068  0.2230 -0.0015
  160SAPE   O1217883   3.498   5.287   6.456 -0.3932  0.2775  0.2596
  160SAPE   O1117884   3.611   5.451   6.611  0.0635  0.1708 -0.3460
  160SAPE    C117885   3.722   5.542   6.614  0.3402 -0.4112 -0.3852
  160SAPE    HA17886   3.801   5.515   6.541  1.1585 -0.1522  0.3934
  160SAPE    HB17887   3.690   5.643   6.580 -1.3696 -0.7806  0.0665
  160SAPE    C217888   3.772   5.535   6.755  0.3193 -0.2939  0.6050
  160SAPE    HS17889   3.757   5.429   6.785 -0.3762 -0.8101 -1.4678
  160SAPE   O2117890   3.686   5.627   6.830  0.2243 -0.0178  0.0040
  160SAPE   C2117891   3.648   5.579   6.948  0.1525  0.0631  0.0009
  160SAPE   O2217892   3.669   5.468   6.997 -0.4812  0.7057 -0.1713
  160SAPE   C2217893   3.561   5.678   7.017 -0.3238  0.0064  0.1377
  160SAPE   H2R17894   3.563   5.776   6.963  2.1909 -0.0237  0.0837
  160SAPE   H2S17895   3.457   5.640   7.012 -0.9503  1.2452  2.7875
  160SAPE    C317896   3.926   5.566   6.780  0.1058  0.2094  0.2692
  160SAPE    HX17897   3.952   5.663   6.734  1.0272 -0.3644 -0.4594
  160SAPE    HY17898   3.994   5.492   6.731  0.8944 -0.2963  2.0618
  160SAPE   O3117899   3.961   5.574   6.923 -0.8537 -0.2080  0.4771
  160SAPE   C3117900   4.057   5.664   6.966 -0.5667 -0.5876  1.2453
  160SAPE   O3217901   4.120   5.746   6.901  0.1037 -0.3813 -0.1923
  160SAPE   C3217902   4.089   5.649   7.111 -0.1558 -0.3890 -0.2111
  160SAPE   H2X17903   4.146   5.555   7.131  1.0250  0.1374 -1.0461
  160SAPE   H2Y17904   3.993   5.622   7.160 -0.2491 -5.4399 -2.8239
  160SAPE   C2317905   3.596   5.709   7.167  0.3387  0.5816  0.0832
  160SAPE   H3R17906   3.705   5.726   7.179  0.3888 -0.1653  0.6645
  160SAPE   H3S17907   3.574   5.619   7.229 -2.4803  1.6839  0.7628
  160SAPE   C2417908   3.520   5.831   7.226  0.5506  0.6549 -0.0646
  160SAPE   H4R17909   3.524   5.904   7.142 -1.5927 -0.2898 -1.0275
  160SAPE   H4S17910   3.591   5.869   7.303  0.1065  0.7380  0.3087
  160SAPE   C2517911   3.383   5.801   7.274  0.3251  0.0552 -0.5485
  160SAPE   H5R17912   3.312   5.765   7.198 -0.1502  1.4967 -0.7917
  160SAPE   C2617913   3.337   5.810   7.398 -0.3184 -0.7598 -0.1730
  160SAPE   H6R17914   3.227   5.820   7.399 -0.0554  2.8328  0.0017
  160SAPE   C2717915   3.417   5.854   7.519  0.1692 -0.6269 -0.5946
  160SAPE   H7R17916   3.357   5.904   7.598  0.2479  0.0049 -0.9272
  160SAPE   H7S17917   3.481   5.937   7.481 -2.4583  0.9033 -1.8865
  160SAPE   C2817918   3.509   5.751   7.582 -0.3399  0.0460  0.1608
  160SAPE   H8R17919   3.544   5.675   7.510  3.4616  1.5304  0.3074
  160SAPE   C2917920   3.547   5.743   7.712  1.0203  0.0902  0.1971
  160SAPE   H9R17921   3.623   5.668   7.740  3.3004  2.2922  0.0364
  160SAPE  C21017922   3.495   5.839   7.825  0.6786  0.1299  0.3465
  160SAPE  H10R17923   3.554   5.815   7.916 -0.2162  1.0956  1.1797
  160SAPE  H10S17924   3.389   5.821   7.853  0.2321 -0.3081 -1.5709
  160SAPE  C21117925   3.512   5.991   7.800 -1.0033 -0.1747 -0.0370
  160SAPE  H11R17926   3.575   6.020   7.715  0.0452 -0.8969  0.4958
  160SAPE  C21217927   3.475   6.094   7.884 -0.0360 -0.4134 -0.1662
  160SAPE  H12R17928   3.497   6.198   7.854 -0.8778 -0.1264  0.2000
  160SAPE  C21317929   3.416   6.071   8.021 -0.1717 -0.4435  0.1264
  160SAPE  H13R17930   3.504   6.043   8.082 -0.0592  0.4013  0.3663
  160SAPE  H13S17931   3.345   5.986   8.027 -0.5580 -0.0825  0.8105
  160SAPE  C21417932   3.353   6.195   8.080  0.5995 -0.8591 -0.1153
  160SAPE  H14R17933   3.316   6.273   8.011  2.1928  0.0451  0.0377
  160SAPE  C21517934   3.325   6.211   8.210  0.2998  0.1349 -0.0913
  160SAPE  H15R17935   3.264   6.296   8.241 -0.0159 -0.4720  0.9678
  160SAPE  C21617936   3.354   6.116   8.324 -1.0274  0.0693 -0.4551
  160SAPE  H16R17937   3.389   6.014   8.295  0.4049  0.5960 -0.6063
  160SAPE  H16S17938   3.259   6.104   8.381 -0.1266 -0.8770  0.8792
  160SAPE  C21717939   3.454   6.160   8.422 -0.3571  0.0009  0.0835
  160SAPE  H17R17940   3.529   6.227   8.375 -0.4889  0.4139  0.4565
  160SAPE  H17S17941   3.497   6.070   8.472 -0.0752  0.1624  0.1328
  160SAPE  C21817942   3.398   6.245   8.532  0.0676  0.0236 -0.0994
  160SAPE  H18R17943   3.446   6.211   8.626  0.0775  0.2734 -0.0143
  160SAPE  H18S17944   3.291   6.224   8.554  0.3651 -0.8464  0.5515
  160SAPE  C21917945   3.414   6.397   8.509 -0.3705 -0.5991 -0.7497
  160SAPE  H19R17946   3.359   6.427   8.417 -0.2802 -0.1413 -0.6565
  160SAPE  H19S17947   3.521   6.418   8.485  0.0504 -2.1037 -0.2263
  160SAPE  C22017948   3.360   6.476   8.625  0.4570  0.2371 -0.0647
  160SAPE  H20R17949   3.424   6.458   8.714  0.0540  0.3339  0.2446
  160SAPE  H20S17950   3.254   6.450   8.644  0.7358 -2.2707 -1.7132
  160SAPE  H20T17951   3.378   6.583   8.599 -0.8332  1.1236  2.4530
  160SAPE   C3317952   4.150   5.772   7.180  0.2421 -0.4365  0.2320
  160SAPE   H3X17953   4.152   5.861   7.114 -2.1495  1.1869  2.2480
  160SAPE   H3Y17954   4.257   5.761   7.209  0.1184 -0.5605  0.6515
  160SAPE   C3417955   4.067   5.810   7.305 -0.0819  0.1362  0.5160
  160SAPE   H4X17956   3.965   5.824   7.264  0.5538 -1.0961 -1.5698
  160SAPE   H4Y17957   4.098   5.908   7.349 -0.1091 -0.4694  1.8996
  160SAPE   C3517958   4.068   5.705   7.413  0.5792 -0.1090  0.3606
  160SAPE   H5X17959   4.166   5.652   7.414  0.4515 -0.3793 -0.4155
  160SAPE   H5Y17960   3.992   5.627   7.392  2.1426 -1.6139  0.1055
  160SAPE   C3617961   4.035   5.765   7.552 -0.0668  0.5203  0.1790
  160SAPE   H6X17962   4.108   5.849   7.554  1.2329 -0.5798 -0.4540
  160SAPE   H6Y17963   4.068   5.691   7.628 -0.3449 -0.4062 -0.5939
  160SAPE   C3717964   3.889   5.814   7.588  0.4202  0.4794  0.3453
  160SAPE   H7X17965   3.836   5.717   7.581  0.9682  0.1821  0.2418
  160SAPE   H7Y17966   3.853   5.878   7.505  0.4801  0.1998  0.1031
  160SAPE   C3817967   3.866   5.884   7.722 -0.0481  0.0233  0.8754
  160SAPE   H8X17968   3.909   5.832   7.810  2.3183  0.0281 -0.2524
  160SAPE   H8Y17969   3.758   5.882   7.749  0.2240 -0.2123  1.9462
  160SAPE   C3917970   3.926   6.023   7.717  1.0396 -1.2299 -0.3660
  160SAPE   H9X17971   3.874   6.064   7.628 -2.9431 -0.2158  2.3038
  160SAPE   H9Y17972   4.037   6.021   7.710  0.9930 -0.8244 -1.2318
  160SAPE  C31017973   3.882   6.112   7.833  0.4496 -0.1830  0.3370
  160SAPE  H10X17974   3.771   6.109   7.830  0.4819 -0.1491 -1.7653
  160SAPE  H10Y17975   3.917   6.218   7.832  0.3790 -0.1584 -2.3507
  160SAPE  C31117976   3.934   6.057   7.976  0.2871  0.1684 -0.2979
  160SAPE  H11X17977   4.045   6.049   7.971  0.1874 -1.2117 -0.6506
  160SAPE  H11Y17978   3.893   5.957   8.004  0.8150  0.1556  0.4590
  160SAPE  C31217979   3.872   6.149   8.084  0.0206 -0.4132 -1.0101
  160SAPE  H12X17980   3.763   6.160   8.065 -1.1045 -4.9532  2.0236
  160SAPE  H12Y17981   3.922   6.248   8.086 -2.3259  0.7952 -0.7817
  160SAPE  C31317982   3.880   6.087   8.224 -0.6988 -0.5535 -1.0208
  160SAPE  H13X17983   3.984   6.055   8.246 -1.3613 -2.1486 -0.1225
  160SAPE  H13Y17984   3.818   5.995   8.229 -1.1621 -0.1545  1.0860
  160SAPE  C31417985   3.819   6.175   8.336 -0.1940 -0.0883  0.7103
  160SAPE  H14X17986   3.786   6.116   8.424  1.0613 -0.5878  0.8570
  160SAPE  H14Y17987   3.732   6.235   8.301  2.1463  3.2632  0.3647
  160SAPE  C31517988   3.908   6.286   8.389 -0.2656 -0.1964  0.0270
  160SAPE  H15X17989   3.956   6.340   8.305  0.6942  1.2362  1.4529
  160SAPE  H15Y17990   3.992   6.239   8.445 -0.4262 -2.5047 -1.6440
  160SAPE  C31617991   3.825   6.382   8.469 -0.3981 -0.4841  0.5395
  160SAPE  H16X17992   3.770   6.328   8.549  0.0625 -0.4538  0.8792
  160SAPE  H16Y17993   3.751   6.427   8.400 -2.1014 -0.6941  2.1981
  160SAPE  C31717994   3.908   6.494   8.529  1.1480  0.6270  0.5029
  160SAPE  H17X17995   3.976   6.544   8.457 -0.9977  1.6906 -0.8462
  160SAPE  H17Y17996   3.975   6.465   8.612 -1.3717  1.1797  2.7965
  160SAPE  C31817997   3.815   6.599   8.592 -0.4794  0.2981  0.4897
  160SAPE  H18X17998   3.875   6.687   8.624  1.6049 -1.2035  0.8083
  160SAPE  H18Y17999   3.769   6.555   8.683 -0.2676  0.6124  0.7514
  160SAPE  H18Z18000   3.744   6.628   8.512  0.6971  3.5443  0.5589
  161SAPE     N18001   5.602   3.086   6.059 -0.4362 -0.2691  0.3700
  161SAPE   HN118002   5.529   3.030   6.010  0.5727 -0.5725 -0.8086
  161SAPE   HN218003   5.587   3.185   6.033 -1.5381 -0.8569 -1.2957
  161SAPE   HN318004   5.697   3.068   6.020 -1.2075  1.4074 -2.3800
  161SAPE   C1218005   5.605   3.055   6.205 -0.0392 -0.5032  0.0563
  161SAPE  H12A18006   5.591   2.948   6.232  1.2276 -0.1424  2.2456
  161SAPE  H12B18007   5.516   3.106   6.248 -0.7269  0.2283 -2.1468
  161SAPE   C1118008   5.727   3.108   6.282 -0.0442 -0.3987 -0.3569
  161SAPE  H11A18009   5.820   3.060   6.246  2.3503  2.7246  1.5023
  161SAPE  H11B18010   5.718   3.089   6.391  0.6899 -0.7897 -0.3602
  161SAPE     P18011   5.695   3.370   6.327  0.4853  0.1247  0.2890
  161SAPE   O1318012   5.766   3.494   6.286  0.0694 -0.4074 -0.0847
  161SAPE   O1418013   5.546   3.370   6.310 -0.5963  0.4055 -0.0190
  161SAPE   O1218014   5.745   3.248   6.246 -0.1104  0.1422 -0.6677
  161SAPE   O1118015   5.737   3.331   6.476  0.8992 -0.3188  0.4072
  161SAPE    C118016   5.872   3.344   6.525 -0.4607 -0.6217 -0.1399
  161SAPE    HA18017   5.897   3.246   6.570 -3.5401 -0.9044  1.0575
  161SAPE    HB18018   5.951   3.350   6.447  0.7040 -0.5250  1.0172
  161SAPE    C218019   5.896   3.457   6.633 -0.2273  0.2038 -0.4089
  161SAPE    HS18020   5.995   3.440   6.679  0.4313  1.1011 -1.4689
  161SAPE   O2118021   5.787   3.476   6.722  0.3964  0.5004  0.5522
  161SAPE   C2118022   5.782   3.385   6.817 -0.0364 -0.4982  0.1365
  161SAPE   O2218023   5.864   3.300   6.846 -0.1805  0.0638 -0.0531
  161SAPE   C2218024   5.647   3.394   6.885 -0.0833 -0.2520  0.4292
  161SAPE   H2R18025   5.650   3.473   6.963  0.2745 -0.2477  0.4130
  161SAPE   H2S18026   5.574   3.418   6.805 -0.5689 -0.1903  0.8884
  161SAPE    C318027   5.923   3.593   6.562 -0.0116 -0.5296  0.3123
  161SAPE    HX18028   5.825   3.628   6.521  1.0558  0.9489 -1.0626
  161SAPE    HY18029   5.992   3.584   6.475 -0.4325  0.0217 -0.0913
  161SAPE   O3118030   5.978   3.695   6.657 -0.6158  0.5472  0.2982
  161SAPE   C3118031   6.108   3.669   6.686 -0.1443 -0.2413  0.3067
  161SAPE   O3218032   6.173   3.588   6.625  0.2205 -0.2872 -0.5261
  161SAPE   C3218033   6.154   3.750   6.804 -0.6025 -0.5976  0.8813
  161SAPE   H2X18034   6.138   3.859   6.791 -2.1375 -0.7634  1.3606
  161SAPE   H2Y18035   6.266   3.746   6.803 -0.6240 -1.3613 -1.0177
  161SAPE   C2318036   5.615   3.257   6.952 -0.5442  0.0589 -0.8923
  161SAPE   H3R18037   5.687   3.237   7.034  0.8261  1.8308 -1.6284
  161SAPE   H3S18038   5.608   3.175   6.877 -1.5862 -1.7862  1.1420
  161SAPE   C2418039   5.481   3.262   7.023  0.5508  0.3357  0.1815
  161SAPE   H4R18040   5.457   3.163   7.066  1.5236 -0.2623 -0.6073
  161SAPE   H4S18041   5.403   3.269   6.945  0.7782 -2.8131 -0.3917
  161SAPE   C2518042   5.461   3.367   7.126 -0.0811  0.2799 -0.4865
  161SAPE   H5R18043   5.431   3.467   7.092 -1.3981  0.4249  1.0805
  161SAPE   C2618044   5.479   3.354   7.259 -0.3482  0.3437  1.2840
  161SAPE   H6R18045   5.475   3.449   7.314 -0.3854  0.0363  1.8286
  161SAPE   C2718046   5.514   3.231   7.342  0.7717 -0.2053 -0.1142
  161SAPE   H7R18047   5.476   3.139   7.293  1.8954 -1.2091  0.8785
  161SAPE   H7S18048   5.458   3.251   7.436  2.2377  1.0293  0.5154
  161SAPE   C2818049   5.665   3.222   7.364 -0.5265 -0.5329 -0.3986
  161SAPE   H8R18050   5.718   3.245   7.271 -0.8041 -0.9505 -0.6649
  161SAPE   C2918051   5.728   3.199   7.477  0.0268 -0.6642 -0.7923
  161SAPE   H9R18052   5.830   3.158   7.463  0.6221  1.5093 -3.1686
  161SAPE  C21018053   5.658   3.177   7.610  0.2488 -0.0028  1.0663
  161SAPE  H10R18054   5.583   3.096   7.596  0.7910 -0.1577 -1.2026
  161SAPE  H10S18055   5.590   3.262   7.633 -0.6576 -0.7582  1.2359
  161SAPE  C21118056   5.758   3.150   7.721 -0.4181  0.1476 -0.0826
  161SAPE  H11R18057   5.861   3.128   7.690 -0.3067 -0.9013  0.9933
  161SAPE  C21218058   5.729   3.159   7.855  0.7055 -0.1268  0.2784
  161SAPE  H12R18059   5.802   3.128   7.932  0.5577 -1.6276 -0.1727
  161SAPE  C21318060   5.594   3.213   7.908 -0.1109  0.0382 -0.0961
  161SAPE  H13R18061   5.548   3.141   7.979  0.9128 -0.9829 -0.4368
  161SAPE  H13S18062   5.523   3.237   7.826  1.8670  0.2964 -1.7622
  161SAPE  C21418063   5.624   3.354   7.967 -0.0726  0.1271 -0.5359
  161SAPE  H14R18064   5.627   3.444   7.905  2.2592  0.7759  0.4549
  161SAPE  C21518065   5.673   3.372   8.090 -0.8614  0.0785 -0.4754
  161SAPE  H15R18066   5.687   3.478   8.118  0.1163 -0.2499  0.2856
  161SAPE  C21618067   5.712   3.269   8.193 -0.4590 -0.9780  0.2674
  161SAPE  H16R18068   5.821   3.278   8.212 -0.3864 -2.6287  0.6701
  161SAPE  H16S18069   5.700   3.164   8.161  1.4106 -1.0557 -0.2312
  161SAPE  C21718070   5.629   3.296   8.321  0.0168 -0.6888 -0.3473
  161SAPE  H17R18071   5.523   3.269   8.298 -1.1082  0.3345  3.3758
  161SAPE  H17S18072   5.632   3.405   8.342  0.9015 -0.6401 -0.7221
  161SAPE  C21818073   5.685   3.215   8.442  0.2872 -0.4487  0.1205
  161SAPE  H18R18074   5.648   3.265   8.535 -3.8007  0.4016 -1.8497
  161SAPE  H18S18075   5.796   3.209   8.449  0.4484  1.8713 -0.1456
  161SAPE  C21918076   5.623   3.071   8.444 -0.0274 -0.0171  0.0913
  161SAPE  H19R18077   5.641   3.005   8.357 -0.4746 -0.0691  0.0417
  161SAPE  H19S18078   5.513   3.082   8.440  0.0602  0.8354 -0.1556
  161SAPE  C22018079   5.666   2.992   8.572  0.1419  0.7206  0.1255
  161SAPE  H20R18080   5.618   2.893   8.579  1.0770  0.2178 -0.4244
  161SAPE  H20S18081   5.632   3.043   8.664 -2.7639  0.5663 -0.8108
  161SAPE  H20T18082   5.777   2.983   8.580  0.1880  1.4915  0.3860
  161SAPE   C3318083   6.074   3.716   6.929  0.8292 -0.6264  0.2277
  161SAPE   H3X18084   5.968   3.746   6.915  0.5678 -2.7877 -2.7802
  161SAPE   H3Y18085   6.097   3.768   7.025 -1.8944 -2.2068  1.8121
  161SAPE   C3418086   6.090   3.569   6.978 -0.3415 -0.2968  0.3668
  161SAPE   H4X18087   6.199   3.572   7.003 -0.5446 -0.6903  1.3088
  161SAPE   H4Y18088   6.073   3.496   6.896 -0.3681  0.1651 -0.0438
  161SAPE   C3518089   6.012   3.529   7.097 -0.7329  0.4986 -0.2662
  161SAPE   H5X18090   5.975   3.424   7.096  0.6294  0.0101 -1.0141
  161SAPE   H5Y18091   5.931   3.601   7.120 -0.3246  0.1486  2.4700
  161SAPE   C3618092   6.100   3.553   7.227 -0.0837  1.0325 -0.1491
  161SAPE   H6X18093   6.134   3.659   7.231  1.0327  0.6960 -0.4093
  161SAPE   H6Y18094   6.181   3.477   7.225 -0.1289  0.9138  1.6105
  161SAPE   C3718095   6.015   3.522   7.352  0.5265 -0.3047  0.0993
  161SAPE   H7X18096   5.979   3.417   7.346 -1.7838  0.4493  0.2944
  161SAPE   H7Y18097   5.931   3.591   7.372  0.9797 -0.2114  1.7696
  161SAPE   C3818098   6.098   3.535   7.480 -0.0158 -0.3063  0.3659
  161SAPE   H8X18099   6.126   3.642   7.491  2.9587 -0.8758 -1.1464
  161SAPE   H8Y18100   6.192   3.479   7.461 -0.1547 -0.2229 -0.5499
  161SAPE   C3918101   6.019   3.482   7.604 -0.1479 -0.2378  0.4220
  161SAPE   H9X18102   5.997   3.374   7.594  1.4979 -0.7016  1.5657
  161SAPE   H9Y18103   5.919   3.527   7.590  0.0251  0.9505  2.7308
  161SAPE  C31018104   6.094   3.513   7.734  0.0746 -1.1263  0.3693
  161SAPE  H10X18105   6.086   3.622   7.752 -1.1079 -0.9125 -1.2839
  161SAPE  H10Y18106   6.199   3.486   7.711  0.5688  0.9347  0.1918
  161SAPE  C31118107   6.024   3.442   7.850 -0.2193  0.1177 -0.2086
  161SAPE  H11X18108   6.000   3.334   7.839 -0.4243 -0.0773  2.1013
  161SAPE  H11Y18109   5.929   3.496   7.869 -0.3584  0.2088 -1.1302
  161SAPE  C31218110   6.117   3.435   7.973 -0.0766  0.1811 -0.0537
  161SAPE  H12X18111   6.137   3.539   8.007  1.2804 -0.9476  2.7655
  161SAPE  H12Y18112   6.216   3.394   7.946  0.2582  0.2634  1.0207
  161SAPE  C31318113   6.055   3.356   8.087  0.9389  0.2850  0.5865
  161SAPE  H13X18114   6.058   3.248   8.064 -4.5439  0.1540 -0.0240
  161SAPE  H13Y18115   5.952   3.397   8.099  0.5995 -0.0642 -1.0366
  161SAPE  C31418116   6.138   3.367   8.216 -0.6926 -0.4540 -0.2027
  161SAPE  H14X18117   6.151   3.474   8.243 -0.1949 -0.4681 -0.3670
  161SAPE  H14Y18118   6.238   3.321   8.200 -0.3929  0.1873 -0.1559
  161SAPE  C31518119   6.069   3.296   8.329  0.2599 -0.3523  0.1848
  161SAPE  H15X18120   6.057   3.187   8.310 -0.8437 -0.1465 -0.3107
  161SAPE  H15Y18121   5.972   3.348   8.334 -0.5408 -1.2189 -4.2928
  161SAPE  C31618122   6.141   3.314   8.461  0.3697 -0.1526 -0.2422
  161SAPE  H16X18123   6.178   3.419   8.468  2.4189 -0.8099 -0.8261
  161SAPE  H16Y18124   6.230   3.252   8.438  0.6853  0.2468 -0.1045
  161SAPE  C31718125   6.064   3.266   8.584 -0.3827 -0.5375  0.0137
  161SAPE  H17X18126   6.132   3.213   8.655 -0.4872 -0.4479  0.1800
  161SAPE  H17Y18127   5.993   3.189   8.547  0.6777 -1.8398  0.6047
  161SAPE  C31818128   5.981   3.377   8.655 -0.2684 -0.2762 -0.2563
  161SAPE  H18X18129   5.901   3.420   8.590 -0.5962  0.7495  0.8185
  161SAPE  H18Y18130   6.028   3.474   8.683  0.7397 -1.2442  1.4942
  161SAPE  H18Z18131   5.935   3.345   8.751 -0.3025  0.9715  0.1478
  162SAPE     N18132   5.415   5.904   6.345 -0.1089 -0.1484 -0.3948
  162SAPE   HN118133   5.456   5.937   6.255  0.8418 -0.9550 -0.2699
  162SAPE   HN218134   5.446   5.807   6.369  0.3964 -0.2667 -1.4792
  162SAPE   HN318135   5.312   5.905   6.332 -0.3607 -1.7297  1.2109
  162SAPE   C1218136   5.442   5.999   6.450  0.3797  0.6978 -0.2996
  162SAPE  H12A18137   5.548   6.029   6.439  1.2648 -2.1117  0.0406
  162SAPE  H12B18138   5.427   5.948   6.548  0.2403 -1.0002 -1.1860
  162SAPE   C1118139   5.348   6.129   6.426  0.5297 -1.1400  0.6236
  162SAPE  H11A18140   5.393   6.200   6.498  1.4083 -0.3363 -0.6946
  162SAPE  H11B18141   5.244   6.096   6.448 -0.9016  3.6077  1.4464
  162SAPE     P18142   5.246   6.283   6.253  0.2248  0.1832 -0.1623
  162SAPE   O1318143   5.301   6.376   6.150  0.1033  0.4419  0.2944
  162SAPE   O1418144   5.122   6.207   6.228  0.5369 -0.4669 -0.3394
  162SAPE   O1218145   5.357   6.178   6.289  0.0025 -0.0972 -0.1741
  162SAPE   O1118146   5.239   6.366   6.386 -0.5130 -0.0877 -0.0730
  162SAPE    C118147   5.159   6.486   6.391 -0.3703 -0.1098 -0.3805
  162SAPE    HA18148   5.224   6.559   6.446  0.7696 -0.5572 -1.1165
  162SAPE    HB18149   5.142   6.535   6.293  1.0401 -0.1052 -0.6320
  162SAPE    C218150   5.039   6.451   6.470 -0.0486 -0.7642  0.8550
  162SAPE    HS18151   4.966   6.398   6.405 -0.9448 -0.8317  1.8873
  162SAPE   O2118152   4.992   6.574   6.528 -0.2345  0.0634  0.2470
  162SAPE   C2118153   4.901   6.640   6.466  0.7323  0.2840 -0.0972
  162SAPE   O2218154   4.855   6.616   6.352 -0.0609  0.1836 -0.9050
  162SAPE   C2218155   4.836   6.741   6.558  0.1806  0.1819 -0.4548
  162SAPE   H2R18156   4.926   6.790   6.601  0.2253  1.1173 -1.5772
  162SAPE   H2S18157   4.781   6.817   6.498  0.7410  0.6683 -0.3566
  162SAPE    C318158   5.081   6.351   6.585 -0.2060 -0.3116  0.0364
  162SAPE    HX18159   5.174   6.390   6.630  0.0089 -1.4272  0.5765
  162SAPE    HY18160   5.095   6.250   6.541  1.5332 -0.3484  0.6437
  162SAPE   O3118161   4.969   6.337   6.682 -0.0086  0.3041  0.6251
  162SAPE   C3118162   5.005   6.359   6.815  0.3692 -0.0320  0.8224
  162SAPE   O3218163   5.122   6.372   6.851 -0.1232 -0.2646  0.1931
  162SAPE   C3218164   4.881   6.362   6.905  0.8998  0.3035 -0.2583
  162SAPE   H2X18165   4.793   6.357   6.837  0.2305 -1.0622  0.7089
  162SAPE   H2Y18166   4.887   6.462   6.953 -0.7870  0.7889 -1.0277
  162SAPE   C2318167   4.743   6.683   6.663 -0.4524  0.0701 -0.0325
  162SAPE   H3R18168   4.808   6.609   6.713 -1.3762 -0.2270  0.7300
  162SAPE   H3S18169   4.667   6.612   6.623 -0.1345 -0.6205  0.5884
  162SAPE   C2418170   4.675   6.787   6.749 -0.0234 -0.5077 -0.2118
  162SAPE   H4R18171   4.649   6.870   6.679 -1.2865 -0.0911  0.7365
  162SAPE   H4S18172   4.760   6.824   6.809  0.5613  1.1094 -1.9857
  162SAPE   C2518173   4.564   6.754   6.840 -0.0810  0.7151  0.7608
  162SAPE   H5R18174   4.466   6.769   6.792  0.0459 -0.3931  0.1400
  162SAPE   C2618175   4.566   6.702   6.964  0.1679 -0.2736 -0.8101
  162SAPE   H6R18176   4.473   6.655   7.002 -0.0058 -0.7874 -1.8513
  162SAPE   C2718177   4.688   6.667   7.043  0.7403  0.0014  0.2215
  162SAPE   H7R18178   4.768   6.650   6.968  1.1517  1.2439  0.3720
  162SAPE   H7S18179   4.670   6.572   7.097 -1.0507 -0.3510 -0.9665
  162SAPE   C2818180   4.722   6.775   7.144 -0.2170 -0.2935 -0.4502
  162SAPE   H8R18181   4.743   6.873   7.097  2.0517 -0.3102  0.4999
  162SAPE   C2918182   4.699   6.774   7.272 -0.1218  0.5345 -0.5816
  162SAPE   H9R18183   4.702   6.868   7.330 -0.1848 -1.1508  2.2529
  162SAPE  C21018184   4.638   6.654   7.347 -0.0485 -0.2724  0.4353
  162SAPE  H10R18185   4.689   6.565   7.304 -2.2769 -1.1199 -0.5316
  162SAPE  H10S18186   4.532   6.652   7.314 -0.1542  1.3674  0.6481
  162SAPE  C21118187   4.650   6.659   7.497  0.2461  0.1541  0.4681
  162SAPE  H11R18188   4.749   6.642   7.543  1.0736 -2.9081 -2.1918
  162SAPE  C21218189   4.551   6.696   7.578 -0.6416 -0.7528  0.6526
  162SAPE  H12R18190   4.576   6.696   7.686  0.8407  1.8314  0.3515
  162SAPE  C21318191   4.408   6.730   7.534  0.0252  0.2052 -0.7996
  162SAPE  H13R18192   4.375   6.641   7.476  0.5032 -0.3347 -0.2495
  162SAPE  H13S18193   4.401   6.828   7.481 -2.1916  1.3428  1.4800
  162SAPE  C21418194   4.291   6.730   7.633  0.4707 -0.5312  0.0092
  162SAPE  H14R18195   4.308   6.691   7.734 -0.6435 -1.3823 -0.1145
  162SAPE  C21518196   4.165   6.763   7.600  0.7529  0.2172 -0.7047
  162SAPE  H15R18197   4.090   6.768   7.680  1.1175  1.8119 -0.4448
  162SAPE  C21618198   4.116   6.808   7.457 -0.1809 -0.3140  0.4182
  162SAPE  H16R18199   4.201   6.833   7.391 -1.3326 -0.2654 -1.0787
  162SAPE  H16S18200   4.035   6.884   7.451  0.6165  0.6487  1.6500
  162SAPE  C21718201   4.039   6.684   7.400 -0.3205  0.0807 -0.4511
  162SAPE  H17R18202   3.945   6.659   7.455  1.1303 -1.7593  1.2628
  162SAPE  H17S18203   4.103   6.595   7.420 -1.8758 -0.6717  1.3525
  162SAPE  C21818204   4.015   6.688   7.249 -0.3933  0.3544  0.2854
  162SAPE  H18R18205   4.111   6.709   7.197  0.3767 -2.5350  0.4603
  162SAPE  H18S18206   3.943   6.762   7.209  0.5758  0.1181 -2.0080
  162SAPE  C21918207   3.973   6.555   7.189  0.4431 -0.3382  0.2428
  162SAPE  H19R18208   3.877   6.524   7.235 -1.2590  1.8867 -1.6433
  162SAPE  H19S18209   4.059   6.489   7.211 -0.5335 -2.0252 -0.8284
  162SAPE  C22018210   3.943   6.558   7.043 -0.1976 -0.1237  0.2433
  162SAPE  H20R18211   3.866   6.624   6.998 -0.2205  0.0149  0.4872
  162SAPE  H20S18212   3.917   6.455   7.010  1.9887 -1.2392  1.8582
  162SAPE  H20T18213   4.042   6.577   6.996 -0.3786  0.7867  0.2257
  162SAPE   C3318214   4.891   6.249   7.009  0.4332  0.5116 -0.5661
  162SAPE   H3X18215   4.978   6.273   7.074 -0.4803 -0.5911  1.1025
  162SAPE   H3Y18216   4.913   6.151   6.962 -1.8641  0.6936 -2.0654
  162SAPE   C3418217   4.762   6.246   7.094  0.3936  0.3947 -0.8796
  162SAPE   H4X18218   4.686   6.187   7.038  2.2663 -0.1108 -2.9585
  162SAPE   H4Y18219   4.721   6.348   7.113 -1.9523 -0.1789 -2.5723
  162SAPE   C3518220   4.763   6.186   7.239  0.2697  0.5123  0.3956
  162SAPE   H5X18221   4.777   6.076   7.231 -1.5890  0.2057  1.0878
  162SAPE   H5Y18222   4.656   6.191   7.270  0.1905 -0.6142  0.3303
  162SAPE   C3618223   4.856   6.264   7.329 -0.6512 -0.3743  0.1467
  162SAPE   H6X18224   4.851   6.373   7.345  0.7102 -0.2122 -0.5180
  162SAPE   H6Y18225   4.962   6.238   7.307 -1.0385 -2.9448  1.0384
  162SAPE   C3718226   4.821   6.219   7.473 -0.2351 -0.2441 -0.0112
  162SAPE   H7X18227   4.815   6.108   7.465 -0.7343 -0.1892 -0.4264
  162SAPE   H7Y18228   4.720   6.262   7.486 -0.0769 -0.3312  1.5662
  162SAPE   C3818229   4.913   6.241   7.597  0.3675 -0.0178 -0.2029
  162SAPE   H8X18230   4.947   6.346   7.600  1.5347 -0.2973 -2.6223
  162SAPE   H8Y18231   5.001   6.173   7.588  0.0188 -0.5990  0.7006
  162SAPE   C3918232   4.846   6.213   7.732 -0.1224  0.9395  0.1463
  162SAPE   H9X18233   4.791   6.117   7.725 -0.5731  1.2375 -0.3826
  162SAPE   H9Y18234   4.773   6.294   7.752 -0.1400  1.1654 -0.7937
  162SAPE  C31018235   4.945   6.202   7.848  0.7247  0.0919 -0.1030
  162SAPE  H10X18236   4.993   6.302   7.858 -0.3533  0.6187 -0.0827
  162SAPE  H10Y18237   5.018   6.128   7.811  0.2273 -0.0553 -0.8018
  162SAPE  C31118238   4.873   6.152   7.974  0.9230  0.0831  0.0013
  162SAPE  H11X18239   4.846   6.045   7.958 -1.0037  0.6705 -0.9025
  162SAPE  H11Y18240   4.782   6.212   7.995  0.4980 -0.3187 -0.6606
  162SAPE  C31218241   4.963   6.161   8.095 -0.2394  0.0409 -0.0166
  162SAPE  H12X18242   4.968   6.268   8.123  2.2138 -0.2192  0.6903
  162SAPE  H12Y18243   5.068   6.135   8.068 -0.0427 -2.0786  2.6474
  162SAPE  C31318244   4.924   6.068   8.212 -0.2964 -0.0888 -0.0420
  162SAPE  H13X18245   4.997   6.083   8.293 -1.1805  1.5545  0.4757
  162SAPE  H13Y18246   4.953   5.973   8.160  0.8660  1.5095 -2.4302
  162SAPE  C31418247   4.781   6.086   8.269  0.3498  0.3416 -0.1980
  162SAPE  H14X18248   4.777   6.000   8.338  1.1644  0.1576 -0.3691
  162SAPE  H14Y18249   4.704   6.084   8.188 -1.3180  2.4729  1.2816
  162SAPE  C31518250   4.753   6.214   8.360  0.2527  0.0998  0.3123
  162SAPE  H15X18251   4.645   6.234   8.378  0.7159  1.5090  1.6209
  162SAPE  H15Y18252   4.800   6.293   8.297  1.0567 -1.0221 -0.5172
  162SAPE  C31618253   4.826   6.193   8.491 -0.1343 -0.3751  0.0768
  162SAPE  H16X18254   4.924   6.143   8.477 -0.2642 -0.5742 -0.1237
  162SAPE  H16Y18255   4.773   6.121   8.557 -1.2443 -1.2863 -1.7608
  162SAPE  C31718256   4.855   6.335   8.555  0.1625  0.5098 -0.2690
  162SAPE  H17X18257   4.755   6.381   8.567  0.2542  0.4304  0.8508
  162SAPE  H17Y18258   4.911   6.411   8.495  0.8601 -0.6066 -1.0589
  162SAPE  C31818259   4.920   6.323   8.689 -0.4375  0.3614 -0.7271
  162SAPE  H18X18260   5.024   6.286   8.677  0.5277  1.9286  2.3798
  162SAPE  H18Y18261   4.862   6.255   8.755 -1.4570  1.9947  0.0941
  162SAPE  H18Z18262   4.916   6.423   8.737 -1.2166  1.0582 -2.2119
  163SAPE     N18263   3.680   4.211   6.640 -0.1176  0.0922  0.8548
  163SAPE   HN118264   3.612   4.140   6.672  0.4167 -0.5598  0.5441
  163SAPE   HN218265   3.624   4.264   6.569  2.8997  0.5236 -1.3090
  163SAPE   HN318266   3.766   4.165   6.604  0.0430  0.2339  1.0598
  163SAPE   C1218267   3.734   4.295   6.751  0.3011  0.3297 -0.4036
  163SAPE  H12A18268   3.838   4.323   6.725  0.9362 -0.7168  0.9835
  163SAPE  H12B18269   3.734   4.240   6.847  0.7896  1.2457  0.1244
  163SAPE   C1118270   3.643   4.422   6.772  0.1153 -0.4024 -0.6934
  163SAPE  H11A18271   3.644   4.481   6.678 -0.5410  1.4411  0.4498
  163SAPE  H11B18272   3.696   4.493   6.838  1.1826 -1.1456 -0.7288
  163SAPE     P18273   3.384   4.447   6.791 -0.2732  0.0312  0.0349
  163SAPE   O1318274   3.395   4.479   6.647 -0.0651 -0.1412 -0.3142
  163SAPE   O1418275   3.271   4.363   6.834 -0.6804 -0.2307 -0.3571
  163SAPE   O1218276   3.518   4.379   6.830 -0.4930  0.0616 -0.2609
  163SAPE   O1118277   3.383   4.586   6.879 -0.3830 -0.5902 -0.2214
  163SAPE    C118278   3.476   4.613   6.986 -0.3182  0.8658  1.2773
  163SAPE    HA18279   3.530   4.521   7.015  0.0967  0.0164 -1.9929
  163SAPE    HB18280   3.542   4.698   6.960  3.1709 -1.3769  2.4794
  163SAPE    C218281   3.400   4.650   7.116  0.3050 -0.5214 -1.0978
  163SAPE    HS18282   3.345   4.746   7.106  0.2051 -0.4452  0.0105
  163SAPE   O2118283   3.492   4.660   7.228  0.2042 -0.2582  0.4091
  163SAPE   C2118284   3.556   4.780   7.233 -0.2107  0.4754 -1.2160
  163SAPE   O2218285   3.520   4.878   7.172  0.2642  0.8631  0.2418
  163SAPE   C2218286   3.659   4.774   7.332 -0.0254  0.5373 -0.4803
  163SAPE   H2R18287   3.697   4.677   7.372  0.6447  0.2596 -1.7959
  163SAPE   H2S18288   3.745   4.836   7.300  0.9400  0.2204  1.4221
  163SAPE    C318289   3.287   4.549   7.158  0.3326 -0.9941  0.2268
  163SAPE    HX18290   3.325   4.449   7.186  0.7656 -0.5327  1.3139
  163SAPE    HY18291   3.224   4.538   7.067  2.7739  0.9004 -1.8009
  163SAPE   O3118292   3.198   4.597   7.260  0.1442 -0.0321  0.6511
  163SAPE   C3118293   3.109   4.692   7.243  0.0292  0.4214  0.3815
  163SAPE   O3218294   3.094   4.754   7.139  0.3952  0.1530 -0.1967
  163SAPE   C3218295   3.039   4.727   7.374  0.3009 -0.0639 -0.1132
  163SAPE   H2X18296   3.095   4.809   7.423  1.0326 -0.9194  0.5095
  163SAPE   H2Y18297   3.049   4.640   7.443  0.4121 -0.1249 -0.2063
  163SAPE   C2318298   3.605   4.839   7.460  0.3565 -0.6213  0.4632
  163SAPE   H3R18299   3.509   4.803   7.501 -0.7101  2.2322  0.6085
  163SAPE   H3S18300   3.580   4.941   7.423 -0.4797 -0.4373  1.5188
  163SAPE   C2418301   3.713   4.842   7.574  0.0619 -0.2994  0.1228
  163SAPE   H4R18302   3.806   4.843   7.514  0.0715 -1.6474  0.1105
  163SAPE   H4S18303   3.719   4.745   7.627 -1.3174 -1.0969 -1.1369
  163SAPE   C2518304   3.705   4.957   7.677  0.6847  0.4931 -0.5632
  163SAPE   H5R18305   3.689   5.056   7.631 -0.0090  0.4829 -0.3565
  163SAPE   C2618306   3.708   4.944   7.815  0.5318 -0.2808  0.0712
  163SAPE   H6R18307   3.697   5.033   7.879  1.9257  0.7476 -1.0924
  163SAPE   C2718308   3.743   4.823   7.901 -0.4536 -0.2992 -0.2691
  163SAPE   H7R18309   3.710   4.732   7.845  1.2401  0.3390 -2.3577
  163SAPE   H7S18310   3.681   4.823   7.994 -0.9771 -0.5298 -0.6139
  163SAPE   C2818311   3.886   4.817   7.918  0.2090  0.0647 -0.4968
  163SAPE   H8R18312   3.946   4.800   7.827  0.8314  0.1601 -0.1060
  163SAPE   C2918313   3.951   4.835   8.031 -0.0698 -0.3472 -0.2290
  163SAPE   H9R18314   4.058   4.811   8.034 -0.2728 -1.2405  0.1189
  163SAPE  C21018315   3.900   4.889   8.165  0.2534 -0.1860 -0.3203
  163SAPE  H10R18316   3.964   4.838   8.240  2.0464  1.6585 -0.5452
  163SAPE  H10S18317   3.795   4.858   8.183 -0.3952  1.0310 -1.8819
  163SAPE  C21118318   3.919   5.042   8.163 -0.1965  0.0660  0.0449
  163SAPE  H11R18319   3.895   5.093   8.069  0.6613 -1.5752 -1.0709
  163SAPE  C21218320   3.951   5.110   8.277 -0.3267 -0.3621  0.1938
  163SAPE  H12R18321   3.962   5.219   8.266  0.1810 -0.2816  1.4001
  163SAPE  C21318322   3.951   5.058   8.422  0.0477  0.4220 -0.8047
  163SAPE  H13R18323   4.058   5.058   8.452 -0.6400  1.2596  1.7834
  163SAPE  H13S18324   3.914   4.954   8.433  1.6473 -0.2467 -1.4769
  163SAPE  C21418325   3.872   5.154   8.508 -0.6009  0.6114  0.3612
  163SAPE  H14R18326   3.767   5.122   8.521 -0.4468  0.2950  0.8429
  163SAPE  C21518327   3.909   5.277   8.567 -0.0220  0.0715  0.3099
  163SAPE  H15R18328   3.837   5.334   8.628 -0.0340 -0.4766  0.8061
  163SAPE  C21618329   4.045   5.333   8.546 -0.4539 -0.5106 -0.5216
  163SAPE  H16R18330   4.041   5.414   8.470 -0.9617  0.9959  1.0820
  163SAPE  H16S18331   4.125   5.260   8.521 -0.7737 -1.1346  0.2615
  163SAPE  C21718332   4.093   5.404   8.671  0.7090 -0.1346  0.2196
  163SAPE  H17R18333   4.093   5.330   8.754 -0.2860 -1.1744 -0.6865
  163SAPE  H17S18334   4.019   5.483   8.699  1.0226 -0.3915  1.8632
  163SAPE  C21818335   4.226   5.473   8.676 -0.0637  0.0601 -0.3951
  163SAPE  H18R18336   4.233   5.561   8.609 -0.2683  1.4136  1.3361
  163SAPE  H18S18337   4.306   5.399   8.655 -0.6798 -0.2915 -1.5633
  163SAPE  C21918338   4.264   5.522   8.816  0.3723 -0.7246 -0.2853
  163SAPE  H19R18339   4.230   5.438   8.881 -3.2193  1.9888  1.5414
  163SAPE  H19S18340   4.204   5.609   8.850  0.2032 -1.6480  1.8783
  163SAPE  C22018341   4.407   5.550   8.850 -0.3483 -0.4701 -0.3478
  163SAPE  H20R18342   4.461   5.609   8.773  0.0775 -0.0218  0.2889
  163SAPE  H20S18343   4.458   5.451   8.854 -0.7183 -0.7084 -1.3640
  163SAPE  H20T18344   4.429   5.598   8.948 -0.2852  1.2289 -1.1651
  163SAPE   C3318345   2.886   4.772   7.363  0.3468 -0.1570  0.2637
  163SAPE   H3X18346   2.823   4.692   7.317 -0.0055 -0.1219  0.6848
  163SAPE   H3Y18347   2.879   4.865   7.303 -1.4679  0.1925  0.9944
  163SAPE   C3418348   2.823   4.785   7.500 -0.2568 -0.0500 -0.1023
  163SAPE   H4X18349   2.730   4.846   7.497 -0.5166 -0.4375  0.0726
  163SAPE   H4Y18350   2.875   4.848   7.575 -0.0201  1.2518 -1.3290
  163SAPE   C3518351   2.795   4.644   7.560 -0.7009  0.3563 -0.0146
  163SAPE   H5X18352   2.890   4.588   7.571  0.0587  2.2571  4.0892
  163SAPE   H5Y18353   2.728   4.584   7.495  1.1990 -0.5905 -1.1406
  163SAPE   C3618354   2.740   4.659   7.704 -0.3975 -0.0582  0.0726
  163SAPE   H6X18355   2.629   4.665   7.711 -0.3666  0.1935  0.3580
  163SAPE   H6Y18356   2.768   4.755   7.751 -2.5341  1.4256 -1.5375
  163SAPE   C3718357   2.784   4.542   7.796  0.3090 -0.0999  0.1074
  163SAPE   H7X18358   2.894   4.561   7.797  0.0628  1.3554  1.1997
  163SAPE   H7Y18359   2.753   4.449   7.744 -1.3614  0.3998  0.1722
  163SAPE   C3818360   2.743   4.559   7.939 -1.5427  0.0485  1.0470
  163SAPE   H8X18361   2.634   4.548   7.952 -1.4491 -1.3558  0.6927
  163SAPE   H8Y18362   2.773   4.661   7.973  0.9955  0.3041 -1.7249
  163SAPE   C3918363   2.827   4.470   8.027  0.0178 -0.4084 -0.0635
  163SAPE   H9X18364   2.811   4.505   8.131  1.0034 -0.0992 -0.0158
  163SAPE   H9Y18365   2.929   4.497   7.993 -0.1243  1.0953  0.6316
  163SAPE  C31018366   2.808   4.321   8.021 -0.3284 -0.5046 -0.6566
  163SAPE  H10X18367   2.904   4.269   8.040  1.1245  1.2938 -2.7993
  163SAPE  H10Y18368   2.785   4.279   7.921 -0.4611  2.8311 -2.0936
  163SAPE  C31118369   2.707   4.264   8.125  0.5808 -0.6095  0.0963
  163SAPE  H11X18370   2.611   4.320   8.126  0.7112 -0.3902  1.9258
  163SAPE  H11Y18371   2.746   4.269   8.229  0.2844 -0.1392  0.1826
  163SAPE  C31218372   2.673   4.112   8.097  0.1932 -0.0308 -0.0601
  163SAPE  H12X18373   2.642   4.103   7.990  0.3773  0.3236 -0.1433
  163SAPE  H12Y18374   2.583   4.075   8.151  0.5892  1.0089  1.3270
  163SAPE  C31318375   2.789   4.017   8.122 -0.0754  0.1145 -0.4831
  163SAPE  H13X18376   2.865   4.037   8.044  0.6670 -0.4813  0.0752
  163SAPE  H13Y18377   2.737   3.920   8.110 -0.4077  0.2809 -0.4172
  163SAPE  C31418378   2.837   4.023   8.268 -0.1875 -0.3403  0.1013
  163SAPE  H14X18379   2.881   4.120   8.298  1.0567 -0.1553 -2.2031
  163SAPE  H14Y18380   2.919   3.948   8.269 -0.4887 -0.6748  2.5602
  163SAPE  C31518381   2.730   3.984   8.368  0.3477  0.2254  0.9829
  163SAPE  H15X18382   2.690   3.885   8.339  1.8123 -0.0008 -0.3666
  163SAPE  H15Y18383   2.651   4.059   8.350 -1.1010 -1.9957 -2.4003
  163SAPE  C31618384   2.752   3.971   8.519  0.2070  0.1846 -0.3441
  163SAPE  H16X18385   2.782   4.074   8.551 -2.0117  0.9567 -0.6696
  163SAPE  H16Y18386   2.840   3.903   8.528  0.6512  0.8105  0.0974
  163SAPE  C31718387   2.627   3.912   8.586 -0.0687  0.1728 -0.6795
  163SAPE  H17X18388   2.638   3.942   8.692  0.2825  3.6059 -1.6056
  163SAPE  H17Y18389   2.623   3.802   8.575  1.0375 -0.0196  0.6907
  163SAPE  C31818390   2.489   3.954   8.518  0.6200  0.3991 -0.2109
  163SAPE  H18X18391   2.481   4.063   8.497 -0.9356  0.2430 -0.4974
  163SAPE  H18Y18392   2.398   3.911   8.566 -0.2944  1.6765 -0.7647
  163SAPE  H18Z18393   2.481   3.896   8.423 -1.3982 -0.7334  0.6084
  164SAPE     N18394   6.252   1.110   6.077  0.3084  0.2692  0.2393
  164SAPE   HN118395   6.286   1.028   6.131  3.4459  1.7348  0.6731
  164SAPE   HN218396   6.192   1.171   6.137  1.0668  2.3269 -1.0245
  164SAPE   HN318397   6.204   1.073   5.993  3.0246 -1.6110 -0.5629
  164SAPE   C1218398   6.359   1.207   6.036  0.2628 -0.2725  0.6305
  164SAPE  H12A18399   6.385   1.186   5.930 -2.6309  0.3632 -0.2659
  164SAPE  H12B18400   6.446   1.194   6.103 -0.4265  0.8725  1.7778
  164SAPE   C1118401   6.306   1.346   6.043 -0.3103  0.2406  0.2179
  164SAPE  H11A18402   6.387   1.418   6.019 -0.1264  0.7308  2.1587
  164SAPE  H11B18403   6.276   1.366   6.148 -0.9880 -1.5219  0.3782
  164SAPE     P18404   6.116   1.511   5.987 -0.3336  0.0076  0.2796
  164SAPE   O1318405   6.209   1.625   5.978  0.1417  0.2868  0.4569
  164SAPE   O1418406   6.000   1.517   5.895 -0.0545 -0.2987 -0.4075
  164SAPE   O1218407   6.192   1.374   5.956 -0.0826 -0.0551  0.5726
  164SAPE   O1118408   6.073   1.491   6.134  0.1216  0.1858  0.0377
  164SAPE    C118409   6.062   1.612   6.216 -0.4948  0.5562 -0.3500
  164SAPE    HA18410   6.165   1.646   6.239 -0.6903  1.2067 -0.3990
  164SAPE    HB18411   6.018   1.695   6.155 -0.9365  0.6178  0.0512
  164SAPE    C218412   5.965   1.594   6.334 -0.3657 -0.1477  0.4595
  164SAPE    HS18413   5.928   1.694   6.366  0.0547 -0.3038  1.4308
  164SAPE   O2118414   6.016   1.531   6.446  0.5479 -0.1374  0.3611
  164SAPE   C2118415   6.127   1.585   6.492  0.4118 -0.4126 -0.5328
  164SAPE   O2218416   6.177   1.693   6.460  0.9694 -0.4680 -0.6972
  164SAPE   C2218417   6.199   1.487   6.587 -0.2034 -0.3367  0.5369
  164SAPE   H2R18418   6.119   1.434   6.644 -1.2022  1.4888  0.8652
  164SAPE   H2S18419   6.251   1.414   6.522  0.5302  1.1919 -0.6309
  164SAPE    C318420   5.842   1.511   6.275 -0.6893  0.2580 -0.0535
  164SAPE    HX18421   5.883   1.410   6.252 -1.5599 -0.3419  0.9602
  164SAPE    HY18422   5.795   1.549   6.182 -1.1350  0.6572  0.3300
  164SAPE   O3118423   5.753   1.493   6.385  0.2519 -0.1162  0.3556
  164SAPE   C3118424   5.640   1.433   6.368 -0.0606 -0.4677 -0.5770
  164SAPE   O3218425   5.606   1.373   6.267 -0.1357 -0.3420 -0.3029
  164SAPE   C3218426   5.550   1.455   6.493 -0.0956  0.1718 -0.0108
  164SAPE   H2X18427   5.554   1.566   6.493  0.6342  0.1491  0.4625
  164SAPE   H2Y18428   5.615   1.419   6.576  0.5797  0.2411 -0.5096
  164SAPE   C2318429   6.300   1.563   6.678 -1.2433  0.1168 -1.1605
  164SAPE   H3R18430   6.367   1.624   6.614 -0.6822  0.7127 -0.0388
  164SAPE   H3S18431   6.354   1.476   6.722  0.7921  2.0435  0.2576
  164SAPE   C2418432   6.231   1.653   6.791 -0.6358  0.5585 -0.0043
  164SAPE   H4R18433   6.177   1.736   6.740 -0.4876 -0.0592 -1.1762
  164SAPE   H4S18434   6.314   1.708   6.840 -0.2101 -0.5301  0.5094
  164SAPE   C2518435   6.140   1.582   6.886 -0.2270 -0.4611 -0.0608
  164SAPE   H5R18436   6.077   1.507   6.837 -0.8165  0.9446 -1.5160
  164SAPE   C2618437   6.130   1.581   7.019  0.1353 -0.0050  0.1406
  164SAPE   H6R18438   6.047   1.528   7.068 -1.6831  2.6145 -0.0236
  164SAPE   C2718439   6.222   1.662   7.113  0.3336  1.0108  0.5939
  164SAPE   H7R18440   6.163   1.740   7.166  0.5378  1.6708 -0.1445
  164SAPE   H7S18441   6.294   1.721   7.052  1.5543  1.1692  2.1465
  164SAPE   C2818442   6.312   1.569   7.195  0.8790 -0.0415 -0.5310
  164SAPE   H8R18443   6.369   1.492   7.141  1.1920  0.4243 -0.8750
  164SAPE   C2918444   6.315   1.570   7.330 -0.3311 -0.7794  0.4319
  164SAPE   H9R18445   6.387   1.502   7.377  0.1607 -0.9646 -0.5680
  164SAPE  C21018446   6.241   1.659   7.431 -0.1533  0.6690  0.6605
  164SAPE  H10R18447   6.136   1.621   7.434 -0.0215  0.3512  1.2754
  164SAPE  H10S18448   6.247   1.761   7.389  0.9993  0.3854  0.1254
  164SAPE  C21118449   6.301   1.661   7.566 -1.1589 -0.2944 -0.1591
  164SAPE  H11R18450   6.318   1.566   7.619 -0.0586 -0.9160 -1.5898
  164SAPE  C21218451   6.338   1.772   7.638 -0.0052  0.2482 -0.2356
  164SAPE  H12R18452   6.369   1.759   7.742  0.1690 -3.1077 -0.6457
  164SAPE  C21318453   6.325   1.920   7.618  0.5301 -0.0157 -0.4770
  164SAPE  H13R18454   6.252   1.954   7.695 -0.8439 -0.6847 -1.4671
  164SAPE  H13S18455   6.267   1.940   7.525  1.2022 -0.6634 -1.0379
  164SAPE  C21418456   6.449   2.009   7.614  0.3152 -0.1152 -0.2401
  164SAPE  H14R18457   6.481   2.038   7.513  0.1061 -2.6821 -1.0769
  164SAPE  C21518458   6.503   2.064   7.722 -0.0817  0.1550 -0.5369
  164SAPE  H15R18459   6.595   2.123   7.708  1.2981 -1.4768  1.3817
  164SAPE  C21618460   6.481   2.028   7.869 -0.2862 -0.5170 -0.7310
  164SAPE  H16R18461   6.428   1.931   7.878  2.0114 -1.8469 -1.1428
  164SAPE  H16S18462   6.405   2.102   7.904 -0.8370  0.5018 -3.9087
  164SAPE  C21718463   6.604   2.028   7.960 -0.2409  0.4838  0.1637
  164SAPE  H17R18464   6.575   1.999   8.064  0.2738 -0.9886 -0.0912
  164SAPE  H17S18465   6.645   2.131   7.969 -0.3846  0.4573  1.1638
  164SAPE  C21818466   6.705   1.921   7.924 -0.4558 -0.0139  0.3021
  164SAPE  H18R18467   6.794   1.924   7.991  0.7579 -0.8015 -1.2240
  164SAPE  H18S18468   6.739   1.945   7.821 -0.5414 -1.6238 -0.1113
  164SAPE  C21918469   6.641   1.775   7.924  0.4807 -0.2548  0.1555
  164SAPE  H19R18470   6.722   1.721   7.871 -0.8566  0.0649 -2.2766
  164SAPE  H19S18471   6.547   1.776   7.865  0.0854 -1.2836  0.7479
  164SAPE  C22018472   6.617   1.711   8.067  0.0316  0.5230  0.2198
  164SAPE  H20R18473   6.565   1.614   8.051 -1.3603  1.1166  0.9780
  164SAPE  H20S18474   6.544   1.772   8.126  0.7805  0.2948  1.4113
  164SAPE  H20T18475   6.708   1.708   8.131 -0.5708 -0.9758  1.0558
  164SAPE   C3318476   5.411   1.387   6.493 -0.6165  0.7166 -0.3172
  164SAPE   H3X18477   5.423   1.281   6.524 -1.6230  0.7256  0.1470
  164SAPE   H3Y18478   5.369   1.389   6.390 -0.0628 -1.0825 -0.5852
  164SAPE   C3418479   5.309   1.463   6.573  0.0763  0.3212  0.6738
  164SAPE   H4X18480   5.212   1.412   6.555  0.0532 -0.7825  3.7517
  164SAPE   H4Y18481   5.306   1.572   6.548  0.2728  0.4439  1.1697
  164SAPE   C3518482   5.340   1.443   6.726  0.1262 -0.0602  0.1780
  164SAPE   H5X18483   5.446   1.465   6.750  0.5616 -1.3790 -0.5233
  164SAPE   H5Y18484   5.321   1.338   6.755 -0.5573 -0.1028 -0.4166
  164SAPE   C3618485   5.241   1.525   6.815 -0.4353  0.0963 -0.1192
  164SAPE   H6X18486   5.161   1.467   6.864 -0.2661  1.7103  2.2054
  164SAPE   H6Y18487   5.196   1.612   6.762  0.1502 -0.2559 -1.2099
  164SAPE   C3718488   5.319   1.578   6.936 -0.2786  0.8084 -0.0381
  164SAPE   H7X18489   5.262   1.658   6.989  0.1497  0.1727  1.4029
  164SAPE   H7Y18490   5.415   1.623   6.901  0.7325 -0.5277  0.9333
  164SAPE   C3818491   5.352   1.474   7.043  0.2838  0.1685  0.4983
  164SAPE   H8X18492   5.442   1.421   7.004  0.2431  0.9112 -0.6408
  164SAPE   H8Y18493   5.261   1.414   7.064  0.7455 -1.2898 -1.5522
  164SAPE   C3918494   5.394   1.538   7.177 -0.6756 -0.1326 -0.2974
  164SAPE   H9X18495   5.314   1.610   7.205  0.1490  0.3116  1.0138
  164SAPE   H9Y18496   5.489   1.590   7.150 -0.3581 -0.4155  0.2625
  164SAPE  C31018497   5.423   1.441   7.281 -0.0560 -0.5290 -0.4035
  164SAPE  H10X18498   5.519   1.386   7.268 -0.4517 -1.8364  1.9223
  164SAPE  H10Y18499   5.344   1.364   7.270 -0.8618  0.4835 -1.9020
  164SAPE  C31118500   5.401   1.510   7.417  0.0628 -0.9236 -0.1907
  164SAPE  H11X18501   5.313   1.579   7.417 -2.4922 -4.0482  0.6511
  164SAPE  H11Y18502   5.490   1.575   7.429  0.5314 -1.2871 -1.6268
  164SAPE  C31218503   5.399   1.414   7.531  0.2564  0.4081  0.4096
  164SAPE  H12X18504   5.485   1.345   7.520 -0.5859 -0.4899 -0.5943
  164SAPE  H12Y18505   5.316   1.340   7.528  1.0015 -0.3596 -2.3116
  164SAPE  C31318506   5.401   1.480   7.668  0.0671 -0.4012 -0.1507
  164SAPE  H13X18507   5.305   1.533   7.689 -0.8311 -1.2164 -2.0614
  164SAPE  H13Y18508   5.478   1.558   7.653  0.2702 -0.3107  1.2299
  164SAPE  C31418509   5.440   1.391   7.792 -0.3820 -0.3923  1.2029
  164SAPE  H14X18510   5.525   1.325   7.767  0.3063  1.2880 -0.9745
  164SAPE  H14Y18511   5.351   1.326   7.804 -1.7236  1.4750  1.7614
  164SAPE  C31518512   5.458   1.479   7.907  0.0535 -1.2880  0.1915
  164SAPE  H15X18513   5.364   1.533   7.929  0.0850 -1.3426  0.4697
  164SAPE  H15Y18514   5.542   1.546   7.878  0.7244 -1.9459  0.5961
  164SAPE  C31618515   5.486   1.399   8.035  0.6607  0.0141 -0.9534
  164SAPE  H16X18516   5.573   1.332   8.013  0.5997  0.3748 -2.3189
  164SAPE  H16Y18517   5.399   1.335   8.060 -0.8106  2.5089  0.4139
  164SAPE  C31718518   5.516   1.489   8.158 -0.0753 -0.3503  0.0748
  164SAPE  H17X18519   5.416   1.519   8.194  0.3469  0.3253  0.7065
  164SAPE  H17Y18520   5.568   1.577   8.115 -4.0678  1.7896 -0.6013
  164SAPE  C31818521   5.594   1.413   8.266 -0.5691 -0.2711 -0.0202
  164SAPE  H18X18522   5.604   1.484   8.350  2.2787  1.5249 -1.8033
  164SAPE  H18Y18523   5.692   1.386   8.222 -1.3942 -1.2830 -1.3089
  164SAPE  H18Z18524   5.546   1.317   8.298 -0.7286 -0.2584 -0.2146
  165SAPE     N18525   6.763   4.483   6.357  0.1153  0.2968  0.5678
  165SAPE   HN118526   6.802   4.393   6.321 -0.9074  0.0170  0.1281
  165SAPE   HN218527   6.724   4.542   6.280 -0.4109 -0.7532  0.0093
  165SAPE   HN318528   6.834   4.542   6.405  0.1403  0.6776  0.0684
  165SAPE   C1218529   6.659   4.442   6.451 -0.5539 -0.1554 -0.1235
  165SAPE  H12A18530   6.626   4.532   6.507  0.8483  0.5588 -0.4403
  165SAPE  H12B18531   6.717   4.367   6.509  0.2642 -1.7959 -2.9608
  165SAPE   C1118532   6.527   4.384   6.387 -0.1395 -0.9072  0.0437
  165SAPE  H11A18533   6.453   4.362   6.467  0.7189  0.5517  1.2452
  165SAPE  H11B18534   6.559   4.289   6.337  0.1934  0.9536 -3.4684
  165SAPE     P18535   6.332   4.499   6.250  0.4579  0.2119  0.1192
  165SAPE   O1318536   6.318   4.626   6.173  0.5866 -0.2541  0.3517
  165SAPE   O1418537   6.276   4.373   6.189  0.6665  0.2040  0.0424
  165SAPE   O1218538   6.482   4.483   6.287 -0.2526  0.4238 -0.6249
  165SAPE   O1118539   6.266   4.513   6.393  0.1313  0.6214  0.2271
  165SAPE    C118540   6.271   4.644   6.461  0.9042 -0.0146 -0.0663
  165SAPE    HA18541   6.370   4.674   6.499  0.7187 -1.3788  1.5564
  165SAPE    HB18542   6.238   4.728   6.396  1.5316  0.6554  0.4731
  165SAPE    C218543   6.177   4.634   6.583  0.2211 -0.2117 -0.6004
  165SAPE    HS18544   6.191   4.723   6.648  2.1664  0.0870 -1.3883
  165SAPE   O2118545   6.216   4.517   6.668 -0.1095 -0.0353  0.0068
  165SAPE   C2118546   6.325   4.542   6.744  0.1273  0.2988  0.2936
  165SAPE   O2218547   6.392   4.643   6.745 -0.8163  0.7243  0.0188
  165SAPE   C2218548   6.353   4.417   6.838 -0.3783  0.2921  0.4293
  165SAPE   H2R18549   6.275   4.427   6.916 -2.2479 -1.0175 -1.2232
  165SAPE   H2S18550   6.329   4.332   6.771 -2.1838  0.0395  1.3793
  165SAPE    C318551   6.029   4.624   6.550 -0.1874 -1.0944  0.6873
  165SAPE    HX18552   6.005   4.535   6.488 -2.3060 -0.4883  0.5832
  165SAPE    HY18553   6.009   4.713   6.487  3.4264  2.2106  3.9796
  165SAPE   O3118554   5.946   4.620   6.666 -0.2870 -0.4468  0.1043
  165SAPE   C3118555   5.946   4.731   6.748  0.1467 -0.4182 -0.3000
  165SAPE   O3218556   5.975   4.849   6.719  0.5962 -0.2625  0.2707
  165SAPE   C3218557   5.876   4.694   6.885 -0.6842  0.0296 -0.5589
  165SAPE   H2X18558   5.843   4.589   6.880  1.3580 -0.6135 -1.1876
  165SAPE   H2Y18559   5.795   4.770   6.896 -0.7707 -0.2417  0.7139
  165SAPE   C2318560   6.493   4.420   6.911 -0.7485 -0.4332  0.6598
  165SAPE   H3R18561   6.542   4.518   6.895 -2.1703  0.5054  1.9280
  165SAPE   H3S18562   6.561   4.345   6.865  2.2776  2.3362  0.4471
  165SAPE   C2418563   6.480   4.382   7.058 -0.3031 -0.1182 -0.4414
  165SAPE   H4R18564   6.583   4.357   7.091  0.9530  0.8729 -3.4810
  165SAPE   H4S18565   6.428   4.285   7.069  0.6761 -0.9357 -2.7793
  165SAPE   C2518566   6.434   4.484   7.162  0.5126  0.0859  0.3267
  165SAPE   H5R18567   6.394   4.579   7.125 -1.1458  0.0928  2.0672
  165SAPE   C2618568   6.417   4.465   7.289 -1.1406  0.4439 -1.0915
  165SAPE   H6R18569   6.364   4.542   7.348  0.1566  1.2026 -0.8878
  165SAPE   C2718570   6.451   4.334   7.359 -0.6670 -0.7887 -0.0534
  165SAPE   H7R18571   6.431   4.243   7.299 -0.6996 -1.2587  0.6520
  165SAPE   H7S18572   6.382   4.323   7.446 -0.8848 -4.0481 -0.5738
  165SAPE   C2818573   6.599   4.314   7.401  0.2384  0.1565 -0.3385
  165SAPE   H8R18574   6.674   4.322   7.321  0.6689 -1.6176 -0.1341
  165SAPE   C2918575   6.646   4.296   7.525 -0.1246  0.5868 -0.1634
  165SAPE   H9R18576   6.749   4.266   7.547 -0.8035 -3.6355 -2.1684
  165SAPE  C21018577   6.562   4.298   7.649 -0.3554  0.4216  0.3384
  165SAPE  H10R18578   6.466   4.351   7.632 -0.2223 -0.0095 -1.9789
  165SAPE  H10S18579   6.608   4.373   7.717  0.1613 -1.3739  1.9830
  165SAPE  C21118580   6.544   4.161   7.706  0.0740  0.6037 -0.2293
  165SAPE  H11R18581   6.526   4.083   7.631  0.3482 -0.4719  0.8039
  165SAPE  C21218582   6.544   4.114   7.829  1.0460  0.2659 -1.0729
  165SAPE  H12R18583   6.529   4.005   7.833  0.0445  0.4612  1.3450
  165SAPE  C21318584   6.561   4.198   7.959  0.5672 -0.2021 -0.7070
  165SAPE  H13R18585   6.666   4.233   7.968  0.8576 -1.6053  1.7004
  165SAPE  H13S18586   6.536   4.126   8.040  2.6843 -1.5782 -1.2323
  165SAPE  C21418587   6.480   4.327   7.985 -0.3488  0.3625  0.3859
  165SAPE  H14R18588   6.415   4.354   7.901  1.0971  1.2682 -0.4631
  165SAPE  C21518589   6.478   4.398   8.096 -0.3482 -0.1162 -0.0720
  165SAPE  H15R18590   6.411   4.485   8.106  0.7662  0.7146  0.2391
  165SAPE  C21618591   6.575   4.374   8.210  0.0381  0.3743  0.5819
  165SAPE  H16R18592   6.662   4.440   8.190  2.2651 -1.2170  4.4664
  165SAPE  H16S18593   6.625   4.275   8.201 -0.5770 -0.0628  1.8582
  165SAPE  C21718594   6.528   4.398   8.354 -0.2720  0.2790 -0.2836
  165SAPE  H17R18595   6.437   4.335   8.367  0.3205 -0.4096  0.5933
  165SAPE  H17S18596   6.489   4.502   8.353 -0.3382  0.2532 -1.7064
  165SAPE  C21818597   6.625   4.356   8.465  0.6787 -0.2415  0.3216
  165SAPE  H18R18598   6.653   4.249   8.452 -0.7182 -0.4265 -1.2826
  165SAPE  H18S18599   6.571   4.364   8.562 -2.2210  1.8511 -1.3896
  165SAPE  C21918600   6.756   4.441   8.471 -0.2192 -0.1892 -0.9579
  165SAPE  H19R18601   6.726   4.548   8.481  2.1718  0.3966  0.4049
  165SAPE  H19S18602   6.810   4.437   8.375 -0.0005  0.9629 -0.8939
  165SAPE  C22018603   6.855   4.405   8.582  0.2043 -0.6127 -0.5234
  165SAPE  H20R18604   6.946   4.467   8.564 -1.3383  1.2772 -2.0589
  165SAPE  H20S18605   6.893   4.301   8.577  1.0459 -0.2109 -3.3951
  165SAPE  H20T18606   6.813   4.435   8.680  2.1378 -0.9077  0.4208
  165SAPE   C3318607   5.978   4.708   7.000 -0.0007 -0.3651 -0.1655
  165SAPE   H3X18608   6.002   4.816   7.008 -1.2510 -0.1830  1.4954
  165SAPE   H3Y18609   6.076   4.670   6.964 -1.0508 -2.4029 -0.9613
  165SAPE   C3418610   5.921   4.649   7.130 -0.7536 -0.9083  0.1350
  165SAPE   H4X18611   5.905   4.539   7.123 -1.6102 -0.7693 -0.1307
  165SAPE   H4Y18612   5.819   4.689   7.147 -0.1182  0.9203 -0.2751
  165SAPE   C3518613   6.007   4.685   7.253 -0.1183 -0.2504  0.0220
  165SAPE   H5X18614   5.979   4.789   7.280 -2.7632 -0.6326 -1.1427
  165SAPE   H5Y18615   6.118   4.682   7.244 -0.1903 -1.0751 -0.6834
  165SAPE   C3618616   5.975   4.602   7.374 -1.2179 -0.3914  0.0725
  165SAPE   H6X18617   5.964   4.495   7.346  0.2222 -0.6964  0.6397
  165SAPE   H6Y18618   5.874   4.624   7.415 -1.1075  0.0114  0.1290
  165SAPE   C3718619   6.077   4.616   7.491 -0.2342 -0.2557  0.4634
  165SAPE   H7X18620   6.086   4.722   7.521 -0.2801 -0.0738 -0.1506
  165SAPE   H7Y18621   6.177   4.596   7.446  0.0997  1.9126  0.1889
  165SAPE   C3818622   6.053   4.511   7.603  0.4166  0.2855 -0.2197
  165SAPE   H8X18623   6.052   4.409   7.559 -1.3183  0.8561 -1.5392
  165SAPE   H8Y18624   5.954   4.530   7.651  0.8112  0.1753  0.6544
  165SAPE   C3918625   6.173   4.527   7.696 -0.1129  0.2667  0.4428
  165SAPE   H9X18626   6.178   4.638   7.709  1.0571  0.0937  1.5326
  165SAPE   H9Y18627   6.263   4.486   7.646 -0.3521  1.4522 -0.9993
  165SAPE  C31018628   6.170   4.461   7.839 -0.0423 -0.3010  0.3853
  165SAPE  H10X18629   6.255   4.498   7.900 -0.6727 -0.0891  1.1591
  165SAPE  H10Y18630   6.183   4.352   7.823  0.7532 -0.3440  1.3088
  165SAPE  C31118631   6.046   4.484   7.924  0.7815  0.0862  0.3087
  165SAPE  H11X18632   5.953   4.429   7.900 -1.1535  2.9760  1.0257
  165SAPE  H11Y18633   6.038   4.594   7.912  0.2962 -0.1008 -1.1887
  165SAPE  C31218634   6.066   4.452   8.071  0.6886 -0.5344  0.4769
  165SAPE  H12X18635   5.985   4.501   8.129 -0.6732 -0.4026 -1.4708
  165SAPE  H12Y18636   6.161   4.500   8.105 -0.4152  1.0770  1.3096
  165SAPE  C31318637   6.060   4.300   8.105  0.2018 -0.1973 -0.2538
  165SAPE  H13X18638   6.134   4.237   8.051 -2.4609 -0.3310 -3.9477
  165SAPE  H13Y18639   5.961   4.256   8.080 -0.4028  0.7554  0.4458
  165SAPE  C31418640   6.088   4.270   8.255 -0.1467 -0.6369 -0.0203
  165SAPE  H14X18641   6.195   4.270   8.285 -0.2402 -1.7385  0.3219
  165SAPE  H14Y18642   6.063   4.164   8.277  0.0833 -0.0991  3.1346
  165SAPE  C31518643   6.008   4.363   8.352 -0.5495  0.1275  0.4693
  165SAPE  H15X18644   5.900   4.366   8.328 -0.5453  0.1132  0.4486
  165SAPE  H15Y18645   6.060   4.462   8.351  0.7600 -0.5488 -0.0477
  165SAPE  C31618646   6.010   4.318   8.504 -0.5758  0.6798 -0.2057
  165SAPE  H16X18647   5.917   4.258   8.514  0.0769 -0.7647 -2.3202
  165SAPE  H16Y18648   6.003   4.409   8.568 -0.6749  0.9048 -0.5341
  165SAPE  C31718649   6.137   4.240   8.553 -0.5003  0.4323 -0.5614
  165SAPE  H17X18650   6.222   4.307   8.527 -1.3953  1.8597  0.0826
  165SAPE  H17Y18651   6.150   4.146   8.496 -1.9030 -0.2662  0.2317
  165SAPE  C31818652   6.138   4.198   8.703 -0.2885 -0.2572  0.4568
  165SAPE  H18X18653   6.059   4.123   8.727  0.2530 -0.2576  2.3521
  165SAPE  H18Y18654   6.118   4.292   8.759  0.5227  0.1212  0.1128
  165SAPE  H18Z18655   6.236   4.154   8.730 -1.6305 -3.8515 -0.1396
  166SAPE     N18656   4.970   1.849   5.709  0.3318  0.3904  0.2949
  166SAPE   HN118657   5.011   1.873   5.617 -2.3705  0.1933 -1.0157
  166SAPE   HN218658   4.992   1.749   5.724 -0.7716  0.1843  0.6106
  166SAPE   HN318659   4.869   1.871   5.716  0.3141  0.2312  0.5541
  166SAPE   C1218660   5.033   1.935   5.814 -0.2160  0.4131 -0.4913
  166SAPE  H12A18661   5.017   2.041   5.785  2.0358  0.8221 -0.3668
  166SAPE  H12B18662   5.142   1.915   5.821 -0.4831 -1.4065 -1.1620
  166SAPE   C1118663   4.958   1.914   5.952 -0.6106 -0.5286  0.5252
  166SAPE  H11A18664   4.860   1.966   5.955  1.5099  3.8645 -1.7885
  166SAPE  H11B18665   5.020   1.964   6.030  1.1704 -1.2095 -0.4269
  166SAPE     P18666   5.047   1.693   6.059  0.4902 -0.2610  0.2673
  166SAPE   O1318667   4.982   1.566   6.106  0.3548  0.7289 -0.6616
  166SAPE   O1418668   5.164   1.675   5.967  0.2772  0.4248  0.2169
  166SAPE   O1218669   4.942   1.776   5.982  0.4507 -0.5064  0.8601
  166SAPE   O1118670   5.078   1.781   6.189  0.3511 -0.4187  0.0653
  166SAPE    C118671   4.976   1.820   6.278  0.3271  0.0642  0.2353
  166SAPE    HA18672   4.953   1.927   6.260 -0.0708  0.0231  0.4870
  166SAPE    HB18673   4.882   1.764   6.258  0.8825 -1.3137  1.3597
  166SAPE    C218674   5.004   1.773   6.425 -0.8072  0.8281  0.4882
  166SAPE    HS18675   4.923   1.813   6.491 -0.3330  1.9894  0.3766
  166SAPE   O2118676   5.131   1.811   6.473 -0.7624 -0.2413 -0.1264
  166SAPE   C2118677   5.130   1.935   6.526  0.7383  0.4504 -0.1503
  166SAPE   O2218678   5.041   2.013   6.497 -0.4525  0.1290 -0.1149
  166SAPE   C2218679   5.240   1.952   6.623  0.5209  0.7351 -0.2891
  166SAPE   H2R18680   5.249   1.857   6.680 -3.3780  0.5889  0.2745
  166SAPE   H2S18681   5.334   1.958   6.564  1.1051 -1.0439  0.4223
  166SAPE    C318682   5.003   1.623   6.429  0.5424  0.1393 -0.2033
  166SAPE    HX18683   5.089   1.582   6.371 -0.4495 -0.7420 -1.0853
  166SAPE    HY18684   4.915   1.592   6.368  0.9091 -0.3659 -0.4805
  166SAPE   O3118685   4.984   1.570   6.562  0.1081 -0.2895  0.7504
  166SAPE   C3118686   4.858   1.574   6.615 -0.4860 -0.4890  0.8292
  166SAPE   O3218687   4.762   1.602   6.551  0.2986  0.8092 -0.1599
  166SAPE   C3218688   4.862   1.509   6.755 -0.1773 -0.4680  0.4088
  166SAPE   H2X18689   4.945   1.435   6.757 -1.0286 -1.4494  3.6880
  166SAPE   H2Y18690   4.764   1.457   6.763 -1.0464  1.4056  2.8770
  166SAPE   C2318691   5.228   2.077   6.716  0.0669 -0.5108  0.0863
  166SAPE   H3R18692   5.198   2.163   6.653  0.1977 -0.9243 -0.5447
  166SAPE   H3S18693   5.331   2.104   6.750  0.2289  4.2240 -3.6470
  166SAPE   C2418694   5.123   2.068   6.833 -0.2168  0.2923  0.3863
  166SAPE   H4R18695   5.018   2.067   6.798  0.1537 -3.5787 -0.9207
  166SAPE   H4S18696   5.134   2.167   6.882  1.6766 -0.0439  0.6794
  166SAPE   C2518697   5.145   1.954   6.923 -0.5048 -0.6191  0.4153
  166SAPE   H5R18698   5.219   1.881   6.886  0.4015  0.1704  0.6469
  166SAPE   C2618699   5.103   1.922   7.046 -0.3384  0.0669 -0.4488
  166SAPE   H6R18700   5.137   1.828   7.092  0.1835  1.2765  1.7130
  166SAPE   C2718701   5.017   2.020   7.134  0.4402  0.2606  0.0526
  166SAPE   H7R18702   4.931   2.055   7.073  0.0167  3.2816  2.2983
  166SAPE   H7S18703   5.067   2.118   7.151 -0.8607  0.9185  0.1129
  166SAPE   C2818704   4.978   1.949   7.261 -0.1016  0.5475 -0.1044
  166SAPE   H8R18705   4.878   1.902   7.254  0.1672  0.0656 -0.7949
  166SAPE   C2918706   5.044   1.942   7.376 -0.4498  0.4156  0.0985
  166SAPE   H9R18707   4.995   1.886   7.458 -0.1886  0.6277  0.3992
  166SAPE  C21018708   5.172   2.010   7.405  0.1829  0.6818 -0.2309
  166SAPE  H10R18709   5.169   2.077   7.494  0.0877  2.4934 -1.5785
  166SAPE  H10S18710   5.205   2.082   7.327  1.7122  1.0376  0.7307
  166SAPE  C21118711   5.295   1.920   7.427  0.4045  0.0884  0.0862
  166SAPE  H11R18712   5.350   1.890   7.337 -0.5504  1.4308 -0.9600
  166SAPE  C21218713   5.356   1.893   7.552  0.3965  0.1272 -0.0569
  166SAPE  H12R18714   5.443   1.826   7.542  0.0673  0.0232 -2.6166
  166SAPE  C21318715   5.323   1.941   7.686 -0.5308  0.0121 -0.6308
  166SAPE  H13R18716   5.245   2.020   7.688 -0.3624  0.1533  0.9584
  166SAPE  H13S18717   5.420   1.991   7.708  0.0412 -1.4533  0.2763
  166SAPE  C21418718   5.301   1.826   7.785  0.4173 -0.1530  0.0298
  166SAPE  H14R18719   5.317   1.726   7.743  1.5816 -0.7698  1.8708
  166SAPE  C21518720   5.254   1.831   7.912  0.7788  0.0454  0.5247
  166SAPE  H15R18721   5.266   1.739   7.971 -2.1947 -0.4953  0.3410
  166SAPE  C21618722   5.199   1.943   7.993  0.1527 -0.2510 -0.2947
  166SAPE  H16R18723   5.223   2.041   7.946 -0.6581  0.4157  0.6658
  166SAPE  H16S18724   5.231   1.939   8.099  2.2167 -2.3311 -0.9461
  166SAPE  C21718725   5.044   1.938   7.993 -0.1230  0.1196 -0.2076
  166SAPE  H17R18726   5.021   1.836   8.031 -0.2735 -0.7606 -2.5759
  166SAPE  H17S18727   4.990   1.942   7.896 -0.5248  0.4083  0.0259
  166SAPE  C21818728   4.981   2.043   8.081 -0.1158 -0.0806 -0.4015
  166SAPE  H18R18729   4.871   2.027   8.078 -0.1060 -0.0691 -0.9405
  166SAPE  H18S18730   4.991   2.144   8.035 -0.4581  1.1010  2.0062
  166SAPE  C21918731   5.010   2.048   8.235  0.0712 -0.1489 -0.3589
  166SAPE  H19R18732   5.102   2.109   8.244  1.3456 -2.3751  2.1251
  166SAPE  H19S18733   5.032   1.949   8.279 -0.5648  0.3337  1.0650
  166SAPE  C22018734   4.906   2.124   8.318 -0.4870  0.1506 -0.2542
  166SAPE  H20R18735   4.799   2.102   8.298 -1.3505  1.9241  2.1704
  166SAPE  H20S18736   4.915   2.232   8.296  4.6775  0.0259  0.5338
  166SAPE  H20T18737   4.923   2.101   8.426 -0.5904  1.7960  0.1284
  166SAPE   C3318738   4.888   1.599   6.882 -0.6684 -0.3744 -0.3739
  166SAPE   H3X18739   4.817   1.684   6.893 -0.7992 -0.7431  1.9689
  166SAPE   H3Y18740   4.994   1.631   6.882 -1.2554  1.6460 -1.0393
  166SAPE   C3418741   4.878   1.521   7.015 -0.6128  0.1141  0.0479
  166SAPE   H4X18742   4.955   1.441   7.014 -0.3531  0.3324  1.6489
  166SAPE   H4Y18743   4.778   1.474   7.027 -0.3932 -1.0415 -2.2607
  166SAPE   C3518744   4.904   1.605   7.139 -0.4046  0.1227  0.2283
  166SAPE   H5X18745   4.835   1.692   7.142 -0.0245  0.5207 -1.9601
  166SAPE   H5Y18746   5.008   1.642   7.128  0.2094 -1.0299  1.8726
  166SAPE   C3618747   4.887   1.527   7.277 -0.1741  0.1281  0.2067
  166SAPE   H6X18748   4.804   1.455   7.273 -0.6490  0.6727  0.1621
  166SAPE   H6Y18749   4.868   1.600   7.359  0.1665 -0.5337  0.8771
  166SAPE   C3718750   5.019   1.464   7.318  0.1538  0.1649 -0.1284
  166SAPE   H7X18751   5.087   1.551   7.329 -1.7021  1.4671  1.4888
  166SAPE   H7Y18752   5.050   1.398   7.234 -2.4548  0.4075 -1.3426
  166SAPE   C3818753   5.020   1.379   7.447  0.5046  0.1122  0.1479
  166SAPE   H8X18754   5.115   1.322   7.447  0.5399  0.1693 -0.3536
  166SAPE   H8Y18755   4.935   1.307   7.446  2.3693 -2.1857 -3.0669
  166SAPE   C3918756   5.008   1.473   7.575  0.0272  0.8597  0.1660
  166SAPE   H9X18757   4.903   1.505   7.589 -0.9975 -1.6843 -1.3709
  166SAPE   H9Y18758   5.072   1.564   7.573 -1.9409  2.3444  1.9954
  166SAPE  C31018759   5.036   1.401   7.705 -0.6895 -0.3002  1.0849
  166SAPE  H10X18760   5.140   1.361   7.695 -1.3039 -1.6532 -0.1407
  166SAPE  H10Y18761   4.970   1.312   7.711 -1.1770 -0.0339 -0.1782
  166SAPE  C31118762   5.023   1.495   7.820 -0.6036 -0.5247 -0.0257
  166SAPE  H11X18763   4.917   1.526   7.834 -1.5539 -2.7297 -1.9794
  166SAPE  H11Y18764   5.085   1.586   7.803  0.1675 -1.2272 -1.0364
  166SAPE  C31218765   5.057   1.410   7.952  1.0565  0.0231  0.2028
  166SAPE  H12X18766   5.150   1.353   7.933 -0.2744 -1.9423 -0.5902
  166SAPE  H12Y18767   4.985   1.328   7.969  1.8644 -0.5971  0.6466
  166SAPE  C31318768   5.058   1.491   8.087  0.1902 -0.0185  0.1406
  166SAPE  H13X18769   4.959   1.537   8.111  0.5658  0.8935 -0.0227
  166SAPE  H13Y18770   5.125   1.579   8.097 -1.8274  1.5135  0.3599
  166SAPE  C31418771   5.082   1.401   8.210  0.2073 -0.1472 -0.1132
  166SAPE  H14X18772   5.172   1.336   8.201  1.0490  0.8298  1.1185
  166SAPE  H14Y18773   4.993   1.338   8.235  0.6020 -0.7070 -0.1138
  166SAPE  C31518774   5.109   1.483   8.338 -0.5492  0.3950 -0.6774
  166SAPE  H15X18775   5.013   1.528   8.370  0.5834  0.9543  2.0955
  166SAPE  H15Y18776   5.176   1.562   8.297  1.3843 -1.8858 -2.0311
  166SAPE  C31618777   5.180   1.418   8.457 -0.2664  0.5261 -0.5887
  166SAPE  H16X18778   5.097   1.364   8.508  0.5063  0.8991  1.0948
  166SAPE  H16Y18779   5.222   1.497   8.523  2.1053 -1.3749  0.2620
  166SAPE  C31718780   5.282   1.315   8.419 -0.9190  0.3654 -0.0967
  166SAPE  H17X18781   5.343   1.362   8.339  0.9615 -1.6865  0.1115
  166SAPE  H17Y18782   5.229   1.228   8.374  0.7247 -0.3453 -0.6959
  166SAPE  C31818783   5.385   1.278   8.533 -0.5142 -0.2778 -0.0219
  166SAPE  H18X18784   5.337   1.263   8.632 -2.1372 -2.7820 -1.1241
  166SAPE  H18Y18785   5.461   1.357   8.548 -1.8771  0.6195  2.4519
  166SAPE  H18Z18786   5.442   1.188   8.499 -1.5595 -0.2300 -1.9773
  167SAPE     N18787   0.465   0.986   6.174  0.3073 -0.5378  0.5186
  167SAPE   HN118788   0.377   1.001   6.121 -0.9689 -1.0031  2.4799
  167SAPE   HN218789   0.527   1.069   6.178 -0.5562  0.3514 -2.8803
  167SAPE   HN318790   0.510   0.912   6.115  1.3999 -0.1389  0.8301
  167SAPE   C1218791   0.423   0.914   6.300  0.2662  0.3834  0.1846
  167SAPE  H12A18792   0.348   0.987   6.337 -0.0188 -0.7012  1.8358
  167SAPE  H12B18793   0.513   0.913   6.366 -0.7807  0.3160  1.6561
  167SAPE   C1118794   0.360   0.782   6.252 -0.4955  0.4316 -0.7167
  167SAPE  H11A18795   0.270   0.800   6.189 -0.6367  1.1300 -0.3221
  167SAPE  H11B18796   0.322   0.711   6.329  1.0811 -0.6155 -0.8836
  167SAPE     P18797   0.471   0.566   6.142 -0.0446 -0.0656 -0.0440
  167SAPE   O1318798   0.413   0.547   6.004  0.1334  0.7048  0.3219
  167SAPE   O1418799   0.612   0.523   6.159  0.0849 -0.0150 -0.1822
  167SAPE   O1218800   0.463   0.723   6.174  0.2043 -0.1042 -0.1348
  167SAPE   O1118801   0.366   0.497   6.240 -0.7101  1.0725 -0.0576
  167SAPE    C118802   0.399   0.425   6.357  0.1392 -0.3858  0.3063
  167SAPE    HA18803   0.453   0.331   6.330  1.2014 -0.2139  1.7649
  167SAPE    HB18804   0.479   0.471   6.420 -3.1462  4.3887  1.2390
  167SAPE    C218805   0.291   0.416   6.462 -0.4772 -0.5259  0.3144
  167SAPE    HS18806   0.207   0.354   6.423 -0.3009 -0.4761 -0.1441
  167SAPE   O2118807   0.260   0.548   6.508 -0.0432  0.2798 -0.4840
  167SAPE   C2118808   0.129   0.560   6.542  0.1476  0.2997 -0.1386
  167SAPE   O2218809   0.051   0.468   6.548  0.0005 -0.4677 -0.0899
  167SAPE   C2218810   0.088   0.707   6.565  0.8598  0.2599 -1.0670
  167SAPE   H2R18811   0.173   0.777   6.578  2.0244 -0.8366 -2.6678
  167SAPE   H2S18812   0.024   0.737   6.479 -2.1774  1.1773  1.4169
  167SAPE    C318813   0.340   0.325   6.581 -0.5972  0.6205  0.2534
  167SAPE    HX18814   0.431   0.381   6.613  0.2131 -0.5087 -0.0279
  167SAPE    HY18815   0.353   0.224   6.537 -1.1724  0.4319  0.5161
  167SAPE   O3118816   0.244   0.327   6.692 -0.3691 -0.1465 -0.0356
  167SAPE   C3118817   0.268   0.227   6.782 -0.6278 -0.4737 -0.3801
  167SAPE   O3218818   0.361   0.151   6.772 -0.9938 -0.5203 -0.0476
  167SAPE   C3218819   0.164   0.247   6.883 -0.0059  0.3666  0.0099
  167SAPE   H2X18820   0.147   0.154   6.941  1.2940  0.4398  0.5464
  167SAPE   H2Y18821   0.067   0.272   6.836 -0.5936 -2.6958 -0.4601
  167SAPE   C2318822  -0.009   0.719   6.684  0.0511  0.4806  0.7739
  167SAPE   H3R18823   0.031   0.658   6.768  1.1462 -0.0272 -0.1120
  167SAPE   H3S18824  -0.103   0.674   6.646  0.6419  0.1523 -0.3115
  167SAPE   C2418825  -0.046   0.867   6.726 -0.2102  0.0044 -0.7888
  167SAPE   H4R18826  -0.123   0.866   6.807 -1.2005 -1.2440 -1.7296
  167SAPE   H4S18827  -0.103   0.914   6.643  0.0186  1.7878  0.0371
  167SAPE   C2518828   0.070   0.952   6.767  0.4224 -0.4747 -0.1509
  167SAPE   H5R18829   0.125   1.004   6.687  0.5463  0.4627  0.5248
  167SAPE   C2618830   0.118   0.963   6.890  0.1028  0.2729  0.3270
  167SAPE   H6R18831   0.208   1.026   6.903  0.9317 -0.7852 -0.1845
  167SAPE   C2718832   0.074   0.895   7.015  0.3490 -0.1532 -0.2038
  167SAPE   H7R18833   0.143   0.816   7.049  0.5279  0.7444  1.5695
  167SAPE   H7S18834  -0.013   0.828   6.999  0.4093 -0.2198 -0.2518
  167SAPE   C2818835   0.055   0.990   7.126 -0.1575 -0.4971 -0.0611
  167SAPE   H8R18836   0.100   1.088   7.104  0.8736 -0.5607  1.6525
  167SAPE   C2918837   0.027   0.960   7.254  0.1982  0.0271 -0.1092
  167SAPE   H9R18838   0.033   1.042   7.328 -2.9206  0.1854  0.0013
  167SAPE  C21018839  -0.021   0.827   7.311  0.4905  0.3858 -0.1458
  167SAPE  H10R18840   0.067   0.777   7.358  2.5438  3.6327 -0.3888
  167SAPE  H10S18841  -0.063   0.755   7.237  2.6934  0.6010 -1.6565
  167SAPE  C21118842  -0.130   0.865   7.410  0.6403 -0.6047  0.4148
  167SAPE  H11R18843  -0.232   0.868   7.369 -0.3665 -2.0834  2.7837
  167SAPE  C21218844  -0.127   0.889   7.542  0.2987  0.1364  0.1550
  167SAPE  H12R18845  -0.218   0.922   7.594 -0.4189  0.8183 -1.5042
  167SAPE  C21318846  -0.005   0.886   7.624 -0.5784 -0.2227  0.0605
  167SAPE  H13R18847   0.081   0.907   7.557 -1.1251  0.4371 -0.4442
  167SAPE  H13S18848   0.010   0.784   7.666  0.1294  0.2003  0.8452
  167SAPE  C21418849   0.001   0.990   7.735 -0.2427  0.3453  0.1169
  167SAPE  H14R18850   0.066   1.078   7.724 -0.0030  0.0807 -0.6014
  167SAPE  C21518851  -0.050   0.978   7.862 -1.2159  0.7209  0.3044
  167SAPE  H15R18852  -0.062   1.069   7.924 -0.6240  0.2966  1.0395
  167SAPE  C21618853  -0.122   0.866   7.922  0.0322  0.3503 -0.5193
  167SAPE  H16R18854  -0.072   0.776   7.879  0.1154 -0.9047  2.0960
  167SAPE  H16S18855  -0.229   0.882   7.896 -0.4933 -0.9070  0.7686
  167SAPE  C21718856  -0.100   0.842   8.075 -0.1187 -0.4820  0.6563
  167SAPE  H17R18857  -0.144   0.740   8.085 -0.8429 -0.3962 -1.2978
  167SAPE  H17S18858  -0.160   0.928   8.112  0.3527  0.2668 -0.2946
  167SAPE  C21818859   0.047   0.847   8.120  0.4119 -0.0276  0.7580
  167SAPE  H18R18860   0.107   0.932   8.081 -2.2513 -0.3772 -4.4906
  167SAPE  H18S18861   0.089   0.749   8.089 -1.4422 -0.2747 -1.0559
  167SAPE  C21918862   0.039   0.853   8.275 -0.6180  0.5217  0.4712
  167SAPE  H19R18863  -0.043   0.792   8.317 -0.6175  1.4228  1.8227
  167SAPE  H19S18864   0.012   0.956   8.307  1.4964  0.4866  2.5057
  167SAPE  C22018865   0.162   0.804   8.358 -0.2937  0.2905  0.6952
  167SAPE  H20R18866   0.150   0.820   8.467  0.8500 -0.0896  0.8889
  167SAPE  H20S18867   0.252   0.864   8.329  0.9107 -0.9634  1.7855
  167SAPE  H20T18868   0.196   0.702   8.330  0.9501  1.0965 -0.8841
  167SAPE   C3318869   0.199   0.360   6.984  0.4247 -0.3437 -0.2727
  167SAPE   H3X18870   0.181   0.458   6.934  0.0413 -0.8672 -1.1870
  167SAPE   H3Y18871   0.309   0.360   7.003  0.5580 -1.0590 -0.9887
  167SAPE   C3418872   0.115   0.347   7.112  0.1348  0.0388  0.5542
  167SAPE   H4X18873   0.126   0.241   7.144 -0.5256 -0.2112 -0.0170
  167SAPE   H4Y18874   0.005   0.362   7.103  0.2725  1.1872  0.6736
  167SAPE   C3518875   0.170   0.433   7.230 -0.0369  0.3729 -0.3394
  167SAPE   H5X18876   0.165   0.539   7.196  1.1367  0.2680 -0.8602
  167SAPE   H5Y18877   0.279   0.410   7.240  0.5311  2.2480 -1.7737
  167SAPE   C3618878   0.084   0.413   7.365 -0.6343  0.5619  0.4095
  167SAPE   H6X18879   0.079   0.303   7.381 -0.3180  0.7271  1.6773
  167SAPE   H6Y18880  -0.022   0.441   7.347 -0.0054  1.2156 -2.6597
  167SAPE   C3718881   0.142   0.481   7.486  0.2833  0.2461  0.1312
  167SAPE   H7X18882   0.159   0.589   7.466  1.0475  0.3109  1.0882
  167SAPE   H7Y18883   0.238   0.430   7.509  0.7578  0.7401 -0.7097
  167SAPE   C3818884   0.060   0.469   7.617 -0.1078  0.0292  0.5324
  167SAPE   H8X18885   0.041   0.361   7.631  0.8786 -0.2203 -0.0151
  167SAPE   H8Y18886  -0.033   0.529   7.602  0.0695 -0.1356 -1.2925
  167SAPE   C3918887   0.128   0.507   7.747  0.5693 -0.4706 -0.4947
  167SAPE   H9X18888   0.159   0.614   7.750 -0.9735 -0.0324  0.9155
  167SAPE   H9Y18889   0.221   0.451   7.767  0.7110  0.1079  0.5451
  167SAPE  C31018890   0.037   0.474   7.867  0.7940  0.0649 -0.0353
  167SAPE  H10X18891   0.009   0.368   7.855  2.9644 -0.1560 -3.7831
  167SAPE  H10Y18892  -0.057   0.531   7.855  0.4177 -0.3851  0.7561
  167SAPE  C31118893   0.114   0.495   7.995 -0.1082  0.0151  0.0340
  167SAPE  H11X18894   0.041   0.514   8.077  1.5275 -1.7895  1.9783
  167SAPE  H11Y18895   0.181   0.584   7.997 -0.0590  0.0156 -1.3769
  167SAPE  C31218896   0.206   0.378   8.035  0.1695  0.2554 -0.2340
  167SAPE  H12X18897   0.268   0.342   7.949  1.0911  1.4180 -0.0651
  167SAPE  H12Y18898   0.134   0.299   8.065 -0.3965  0.6760 -0.4653
  167SAPE  C31318899   0.300   0.415   8.151  0.0927 -0.3629 -0.5141
  167SAPE  H13X18900   0.236   0.452   8.235 -0.0568 -0.2917 -0.6594
  167SAPE  H13Y18901   0.368   0.497   8.118  0.9454 -0.8688 -0.0307
  167SAPE  C31418902   0.402   0.310   8.201  0.3459 -0.2982  0.4738
  167SAPE  H14X18903   0.451   0.253   8.120 -1.9613  0.2516 -1.3629
  167SAPE  H14Y18904   0.331   0.244   8.255  0.6102 -0.5068  0.5654
  167SAPE  C31518905   0.509   0.367   8.294 -0.5488  0.2234  0.0977
  167SAPE  H15X18906   0.466   0.430   8.375 -0.8399 -1.7742  1.5495
  167SAPE  H15Y18907   0.576   0.428   8.230  0.4464  0.5841  1.4653
  167SAPE  C31618908   0.589   0.253   8.357  0.2815 -0.0401  0.5696
  167SAPE  H16X18909   0.643   0.206   8.272  0.9527  0.3873  0.7517
  167SAPE  H16Y18910   0.508   0.190   8.398 -0.0896  0.0690  0.0044
  167SAPE  C31718911   0.683   0.287   8.477  0.4694  0.1631 -0.3949
  167SAPE  H17X18912   0.752   0.201   8.489  1.2737  0.9075  0.3529
  167SAPE  H17Y18913   0.626   0.296   8.572  1.6742  0.9436  0.2729
  167SAPE  C31818914   0.768   0.409   8.462 -0.7209 -0.2730  0.7107
  167SAPE  H18X18915   0.722   0.504   8.497 -1.1536 -0.7005  1.3165
  167SAPE  H18Y18916   0.780   0.434   8.355 -0.2550  1.4101  1.1428
  167SAPE  H18Z18917   0.866   0.404   8.515 -0.7371 -0.8141  0.6935
  168SAPE     N18918   1.129   2.558   6.569  0.0899  0.6821  0.3505
  168SAPE   HN118919   1.084   2.586   6.659  1.3575 -0.5474  1.3954
  168SAPE   HN218920   1.090   2.623   6.498  0.4616  0.1116 -0.3803
  168SAPE   HN318921   1.086   2.468   6.540  0.6585  0.7520 -0.7308
  168SAPE   C1218922   1.276   2.557   6.572 -0.6718 -0.1895  0.5650
  168SAPE  H12A18923   1.309   2.469   6.631  2.4288  1.1105  0.8734
  168SAPE  H12B18924   1.299   2.649   6.629 -0.0299  0.0734 -0.1077
  168SAPE   C1118925   1.333   2.578   6.429  0.4448 -0.6521  0.2937
  168SAPE  H11A18926   1.444   2.583   6.433  0.4943 -0.5426 -0.9826
  168SAPE  H11B18927   1.292   2.674   6.392  1.0786 -0.1024  1.0064
  168SAPE     P18928   1.371   2.358   6.322 -0.3479 -0.5122 -0.1777
  168SAPE   O1318929   1.281   2.245   6.282  0.3020 -0.0701 -0.0114
  168SAPE   O1418930   1.466   2.404   6.220 -0.3201  0.7154 -0.1644
  168SAPE   O1218931   1.279   2.484   6.341 -0.5091 -0.0794 -0.8631
  168SAPE   O1118932   1.450   2.340   6.454  0.1313 -0.5328 -0.2258
  168SAPE    C118933   1.589   2.308   6.456 -0.5399 -0.4503  0.2874
  168SAPE    HA18934   1.594   2.199   6.437 -1.9825 -0.9747  2.6907
  168SAPE    HB18935   1.638   2.362   6.372 -1.5622 -1.7785 -1.2026
  168SAPE    C218936   1.661   2.336   6.599  0.4775 -0.1229  0.0892
  168SAPE    HS18937   1.742   2.261   6.614  1.0569  0.8682  2.2591
  168SAPE   O2118938   1.565   2.340   6.695 -0.5463  0.0688 -1.1451
  168SAPE   C2118939   1.500   2.231   6.728  0.1112 -0.5917  0.5739
  168SAPE   O2218940   1.530   2.119   6.685  0.5260  0.1645 -0.4160
  168SAPE   C2218941   1.379   2.253   6.816  0.2655 -0.0799  0.0441
  168SAPE   H2R18942   1.412   2.205   6.910  2.0134 -0.5528 -0.7935
  168SAPE   H2S18943   1.362   2.362   6.832 -0.2680 -0.2005  0.2986
  168SAPE    C318944   1.721   2.478   6.590 -0.1080  0.9034 -0.0345
  168SAPE    HX18945   1.652   2.531   6.520 -1.4265  0.2879  0.7861
  168SAPE    HY18946   1.826   2.469   6.553  0.1477  0.6545  0.7374
  168SAPE   O3118947   1.735   2.541   6.720  0.1293 -0.0330 -0.0477
  168SAPE   C3118948   1.633   2.620   6.748 -0.2575 -0.3874  0.1640
  168SAPE   O3218949   1.541   2.656   6.677 -0.3370  0.4594  0.1617
  168SAPE   C3218950   1.657   2.682   6.893 -0.9813 -0.9958  0.3396
  168SAPE   H2X18951   1.593   2.772   6.902  1.1108  0.3263  2.9160
  168SAPE   H2Y18952   1.765   2.702   6.912 -1.3568  0.5737  0.8577
  168SAPE   C2318953   1.254   2.182   6.753 -0.6314  0.1199 -0.5326
  168SAPE   H3R18954   1.282   2.077   6.730  0.3603  0.1160  0.6378
  168SAPE   H3S18955   1.212   2.247   6.674 -0.7398  1.1614  0.3672
  168SAPE   C2418956   1.131   2.169   6.850 -0.0086  0.7345  0.3106
  168SAPE   H4R18957   1.150   2.078   6.911  0.2112  0.3918 -0.2641
  168SAPE   H4S18958   1.041   2.139   6.792 -0.2642  0.3412  0.9095
  168SAPE   C2518959   1.113   2.293   6.931 -0.7859  0.4196  0.7715
  168SAPE   H5R18960   1.123   2.384   6.871  0.1685 -0.4516 -0.4382
  168SAPE   C2618961   1.090   2.299   7.063 -0.2185 -0.2965  0.5806
  168SAPE   H6R18962   1.098   2.399   7.108  2.3937 -0.0325 -0.4123
  168SAPE   C2718963   1.080   2.188   7.166 -0.5672  0.1946 -0.5683
  168SAPE   H7R18964   1.173   2.127   7.159 -1.7475 -1.5532 -1.3936
  168SAPE   H7S18965   1.000   2.114   7.145  0.3288 -1.2920  1.0295
  168SAPE   C2818966   1.063   2.253   7.309  0.4294 -0.1487 -0.2504
  168SAPE   H8R18967   1.025   2.356   7.308  0.3315 -0.1830 -0.0620
  168SAPE   C2918968   1.084   2.178   7.420 -0.0825 -0.2191  0.3813
  168SAPE   H9R18969   1.069   2.230   7.516  2.6456  0.4180  0.4925
  168SAPE  C21018970   1.126   2.033   7.429 -0.6220  0.3408  0.4161
  168SAPE  H10R18971   1.081   1.970   7.350 -0.4023 -0.5353  0.9830
  168SAPE  H10S18972   1.067   1.982   7.508 -0.6330 -0.7181 -0.2672
  168SAPE  C21118973   1.282   2.019   7.415 -0.8163  0.4784 -0.1786
  168SAPE  H11R18974   1.319   1.998   7.314 -2.6834 -3.3866 -0.1529
  168SAPE  C21218975   1.372   2.035   7.515  0.1061 -0.5474  0.3249
  168SAPE  H12R18976   1.480   2.024   7.498  0.3498  0.6204  1.1073
  168SAPE  C21318977   1.342   2.072   7.658 -0.0838 -0.8589 -0.5051
  168SAPE  H13R18978   1.420   2.034   7.728 -0.3081  1.2109  0.9311
  168SAPE  H13S18979   1.246   2.020   7.681 -0.5703  0.1001 -0.3427
  168SAPE  C21418980   1.347   2.222   7.675 -0.5898  1.1146  0.4635
  168SAPE  H14R18981   1.348   2.279   7.581  3.6687 -1.0553 -0.9368
  168SAPE  C21518982   1.386   2.281   7.788 -0.1810  0.1829  0.7162
  168SAPE  H15R18983   1.387   2.391   7.787  0.9367  0.1786  0.8590
  168SAPE  C21618984   1.424   2.224   7.923 -0.0575 -0.0973 -0.7709
  168SAPE  H16R18985   1.429   2.114   7.925 -2.5727 -0.2611 -0.8968
  168SAPE  H16S18986   1.344   2.246   7.998  0.0712 -0.7868 -0.4316
  168SAPE  C21718987   1.563   2.285   7.974  0.4597  0.3065  0.3492
  168SAPE  H17R18988   1.548   2.390   8.005 -1.9367 -0.4575  1.9721
  168SAPE  H17S18989   1.630   2.279   7.886  1.6073 -0.3201  1.2571
  168SAPE  C21818990   1.633   2.203   8.082 -0.4547 -0.0427 -0.1060
  168SAPE  H18R18991   1.741   2.227   8.079 -0.3215 -0.6104  0.0904
  168SAPE  H18S18992   1.623   2.093   8.071 -3.0065  0.1762 -0.3473
  168SAPE  C21918993   1.589   2.255   8.218  0.6904  0.7196  0.3870
  168SAPE  H19R18994   1.488   2.214   8.240  1.1920 -1.6755 -1.5247
  168SAPE  H19S18995   1.595   2.366   8.213  0.4067  0.7869  1.4699
  168SAPE  C22018996   1.681   2.203   8.331  0.9764 -0.4071  0.0784
  168SAPE  H20R18997   1.788   2.213   8.304  0.8535 -2.6845 -1.3481
  168SAPE  H20S18998   1.654   2.097   8.350  1.4951 -0.5162  0.2176
  168SAPE  H20T18999   1.645   2.253   8.424  1.6398  3.3724 -1.5913
  168SAPE   C3319000   1.609   2.580   6.994 -0.0783 -0.3154 -0.2472
  168SAPE   H3X19001   1.529   2.517   6.951 -1.3669  1.0698  0.0872
  168SAPE   H3Y19002   1.566   2.634   7.082  1.4289  1.1794 -0.4041
  168SAPE   C3419003   1.709   2.480   7.054 -0.2583 -0.3106  0.3221
  168SAPE   H4X19004   1.787   2.541   7.105 -0.7574  0.7726 -0.2019
  168SAPE   H4Y19005   1.766   2.432   6.972  2.7655  3.3331  0.1322
  168SAPE   C3519006   1.647   2.374   7.150  0.4914 -0.8317  0.1719
  168SAPE   H5X19007   1.635   2.281   7.090  0.4602  0.2095 -1.4653
  168SAPE   H5Y19008   1.546   2.404   7.187 -0.4204 -3.1397 -0.3620
  168SAPE   C3619009   1.736   2.355   7.273 -0.8496 -0.0853 -0.1708
  168SAPE   H6X19010   1.732   2.447   7.335 -0.1499 -0.7880  0.9250
  168SAPE   H6Y19011   1.842   2.333   7.246 -0.1500  1.0421  1.5888
  168SAPE   C3719012   1.679   2.249   7.366  0.0420 -0.0713 -0.5104
  168SAPE   H7X19013   1.690   2.143   7.335  1.0269 -0.5300  1.3297
  168SAPE   H7Y19014   1.570   2.271   7.363 -0.1680 -0.9268  0.4615
  168SAPE   C3819015   1.725   2.249   7.516  0.0522 -0.3543 -0.5318
  168SAPE   H8X19016   1.640   2.205   7.572  1.0537 -1.9953 -0.2391
  168SAPE   H8Y19017   1.746   2.354   7.546 -0.0534 -0.5023  0.0653
  168SAPE   C3919018   1.855   2.164   7.527 -0.4221 -0.3211 -0.1791
  168SAPE   H9X19019   1.894   2.172   7.423 -1.4852  0.4209 -0.5257
  168SAPE   H9Y19020   1.835   2.059   7.557 -1.2261 -0.3890 -0.9368
  168SAPE  C31019021   1.958   2.230   7.624 -1.0035 -0.5358  0.6882
  168SAPE  H10X19022   1.974   2.338   7.604  2.6085 -0.9508  1.0509
  168SAPE  H10Y19023   2.056   2.179   7.611 -1.8246 -1.5782 -1.7943
  168SAPE  C31119024   1.917   2.219   7.769 -0.2677  0.7248  0.1256
  168SAPE  H11X19025   1.908   2.112   7.796  1.2228  0.7566  0.8092
  168SAPE  H11Y19026   1.815   2.260   7.784 -0.2433  0.8697 -0.0884
  168SAPE  C31219027   2.014   2.298   7.860  1.1702  0.6573  0.4454
  168SAPE  H12X19028   1.954   2.295   7.953 -1.0161  1.6252 -0.9027
  168SAPE  H12Y19029   2.010   2.406   7.832  0.4769  0.8335  1.2207
  168SAPE  C31319030   2.167   2.259   7.861 -0.5308  0.2349 -0.2554
  168SAPE  H13X19031   2.225   2.316   7.937  0.0176 -0.3329 -0.2412
  168SAPE  H13Y19032   2.215   2.283   7.763 -0.2790 -0.4604 -0.3095
  168SAPE  C31419033   2.194   2.105   7.881 -0.0039 -0.5123  0.3553
  168SAPE  H14X19034   2.302   2.081   7.866  0.3113  1.1317 -0.0798
  168SAPE  H14Y19035   2.125   2.054   7.811 -0.3779  0.9312 -0.3399
  168SAPE  C31519036   2.180   2.075   8.035  0.1389  0.0810  0.3664
  168SAPE  H15X19037   2.077   2.089   8.074 -0.6426 -2.0523 -0.8563
  168SAPE  H15Y19038   2.244   2.144   8.094 -0.1466 -0.4121  1.2721
  168SAPE  C31619039   2.213   1.931   8.072 -0.6099 -0.1031 -0.3215
  168SAPE  H16X19040   2.311   1.908   8.024  0.3988 -0.4420  1.8093
  168SAPE  H16Y19041   2.129   1.869   8.034 -1.1688 -0.0559  0.8263
  168SAPE  C31719042   2.226   1.914   8.219 -0.0601  0.8828 -0.2070
  168SAPE  H17X19043   2.128   1.945   8.262 -0.1725 -0.9338  0.9092
  168SAPE  H17Y19044   2.308   1.970   8.268  0.4034 -0.0020  0.0515
  168SAPE  C31819045   2.245   1.765   8.252  0.1967  0.0942  0.6200
  168SAPE  H18X19046   2.346   1.737   8.213  0.4372  1.8587 -0.1065
  168SAPE  H18Y19047   2.175   1.706   8.189  0.2999 -1.9123  2.3692
  168SAPE  H18Z19048   2.231   1.733   8.357 -1.3628 -1.2777  0.0086
  169SAPE     N19049   0.122   4.891   6.343  0.1297 -0.1081 -0.3957
  169SAPE   HN119050   0.156   4.989   6.354  2.1724 -0.6742 -1.4634
  169SAPE   HN219051   0.050   4.892   6.268  1.2065 -0.8006 -1.4395
  169SAPE   HN319052   0.081   4.856   6.432  0.4137 -1.3704 -0.7578
  169SAPE   C1219053   0.251   4.820   6.303 -0.0659  0.3263  0.0570
  169SAPE  H12A19054   0.333   4.894   6.314  0.8853 -0.4491 -1.7085
  169SAPE  H12B19055   0.228   4.787   6.200  2.3945  1.9337 -1.0397
  169SAPE   C1119056   0.283   4.695   6.390  0.4841 -0.5016 -0.6767
  169SAPE  H11A19057   0.253   4.709   6.496 -0.0017 -1.7724 -0.6395
  169SAPE  H11B19058   0.395   4.696   6.388  0.5270  1.6769  0.5486
  169SAPE     P19059   0.319   4.469   6.265 -0.0620 -0.0101 -0.0036
  169SAPE   O1319060   0.227   4.383   6.200 -0.0693  0.2785  0.0791
  169SAPE   O1419061   0.410   4.543   6.182  0.0877  0.5846  0.7280
  169SAPE   O1219062   0.228   4.569   6.345  0.3676 -0.2708  0.1357
  169SAPE   O1119063   0.396   4.377   6.368 -0.5149 -0.2435  0.0075
  169SAPE    C119064   0.325   4.340   6.491  0.2521 -1.2556 -0.5930
  169SAPE    HA19065   0.233   4.400   6.506  0.0354 -1.3518 -1.4595
  169SAPE    HB19066   0.283   4.238   6.480  1.6170 -1.6888 -1.9972
  169SAPE    C219067   0.423   4.343   6.611 -0.1923 -0.0508 -0.1790
  169SAPE    HS19068   0.378   4.311   6.707 -0.4386  1.4913  0.2365
  169SAPE   O2119069   0.470   4.483   6.626  0.1067 -0.2862 -0.0741
  169SAPE   C2119070   0.409   4.562   6.718 -0.5143  0.7928  0.0815
  169SAPE   O2219071   0.304   4.541   6.773  0.2995 -0.1783  0.1353
  169SAPE   C2219072   0.480   4.696   6.730 -0.0891 -0.0971 -0.6593
  169SAPE   H2R19073   0.552   4.675   6.812 -0.9455  1.8371  0.6498
  169SAPE   H2S19074   0.538   4.716   6.638  0.9599 -0.2890 -0.0503
  169SAPE    C319075   0.542   4.255   6.592 -0.4433 -0.2406  0.1273
  169SAPE    HX19076   0.610   4.303   6.519  1.2847 -1.2697  0.9997
  169SAPE    HY19077   0.519   4.164   6.533 -0.6635 -0.6294  0.8067
  169SAPE   O3119078   0.616   4.232   6.713  0.2427 -0.2439 -0.1166
  169SAPE   C3119079   0.568   4.123   6.772 -0.2212  0.4582  0.4342
  169SAPE   O3219080   0.478   4.049   6.728 -0.2576  0.0191  0.3169
  169SAPE   C3219081   0.626   4.109   6.913 -0.4783 -0.4958 -0.0457
  169SAPE   H2X19082   0.568   4.174   6.981  0.1892 -0.0350  0.0842
  169SAPE   H2Y19083   0.735   4.129   6.911 -0.3698 -0.7159  1.9437
  169SAPE   C2319084   0.372   4.807   6.756 -0.2448 -0.0705  0.5320
  169SAPE   H3R19085   0.303   4.785   6.840  0.1513  2.5389  1.5935
  169SAPE   H3S19086   0.306   4.827   6.669 -0.6521 -0.5093  0.7400
  169SAPE   C2419087   0.443   4.939   6.809  0.2376  0.1033 -0.4799
  169SAPE   H4R19088   0.534   4.957   6.747  0.2522 -0.5881 -0.6597
  169SAPE   H4S19089   0.475   4.918   6.913 -1.2641 -1.7588 -0.3648
  169SAPE   C2519090   0.357   5.066   6.801 -0.6791  0.4998 -0.4340
  169SAPE   H5R19091   0.334   5.100   6.699 -2.3458  2.9420  0.7023
  169SAPE   C2619092   0.304   5.143   6.897  0.1021  0.1032  0.2335
  169SAPE   H6R19093   0.248   5.233   6.868  0.9927  0.3099 -0.8726
  169SAPE   C2719094   0.337   5.120   7.040  0.1740  0.0459 -0.8084
  169SAPE   H7R19095   0.446   5.107   7.056  0.6389  3.0073 -1.4549
  169SAPE   H7S19096   0.308   5.015   7.062 -1.0874  0.6425  0.4343
  169SAPE   C2819097   0.258   5.205   7.138  0.0190 -0.2768 -1.0157
  169SAPE   H8R19098   0.175   5.256   7.087 -1.3569 -0.2316  1.2136
  169SAPE   C2919099   0.288   5.236   7.262 -0.7211  0.0596  0.2025
  169SAPE   H9R19100   0.223   5.315   7.302 -1.6817  0.1833 -1.5669
  169SAPE  C21019101   0.396   5.173   7.345  0.0385 -0.0090  0.1960
  169SAPE  H10R19102   0.439   5.263   7.394  2.4186 -0.2252 -1.4240
  169SAPE  H10S19103   0.466   5.121   7.276  1.5683  0.7401  1.1729
  169SAPE  C21119104   0.342   5.079   7.446 -0.5251  0.4708 -0.0447
  169SAPE  H11R19105   0.278   4.998   7.409  0.4484 -0.6454  0.6813
  169SAPE  C21219106   0.357   5.081   7.577 -0.5183 -0.5264 -0.2787
  169SAPE  H12R19107   0.294   5.012   7.634  0.1939 -1.1709 -0.2703
  169SAPE  C21319108   0.440   5.168   7.667  0.3505  0.9365 -0.3662
  169SAPE  H13R19109   0.379   5.214   7.748  2.9934  1.0406  1.6387
  169SAPE  H13S19110   0.470   5.261   7.614 -1.4989  1.6899 -0.1446
  169SAPE  C21419111   0.558   5.094   7.730 -0.3255  0.1920  0.2606
  169SAPE  H14R19112   0.630   5.042   7.664 -0.1012 -1.7207  1.9497
  169SAPE  C21519113   0.606   5.109   7.853 -0.4689  0.0772  0.0352
  169SAPE  H15R19114   0.691   5.045   7.884  0.7251  2.1633  1.1501
  169SAPE  C21619115   0.550   5.188   7.962 -0.7980  0.2173 -0.3878
  169SAPE  H16R19116   0.460   5.248   7.936 -0.0422  1.3382 -0.4608
  169SAPE  H16S19117   0.640   5.247   7.990 -0.6895  0.0865 -0.4577
  169SAPE  C21719118   0.504   5.105   8.088  0.1833 -0.6386 -0.1949
  169SAPE  H17R19119   0.562   5.011   8.104  2.2259  0.9454  2.1291
  169SAPE  H17S19120   0.399   5.072   8.073 -0.5705  2.0510 -1.0805
  169SAPE  C21819121   0.504   5.181   8.228 -0.6680 -0.1599 -0.5131
  169SAPE  H18R19122   0.447   5.130   8.309  0.7640  2.1892  2.0777
  169SAPE  H18S19123   0.446   5.275   8.220  0.0919  0.3843  0.2527
  169SAPE  C21919124   0.643   5.215   8.280  0.1258  0.1800 -0.3993
  169SAPE  H19R19125   0.702   5.254   8.195 -2.3638  1.3434 -1.6381
  169SAPE  H19S19126   0.691   5.120   8.312 -1.2924 -0.7300 -0.9062
  169SAPE  C22019127   0.640   5.302   8.403 -0.6476  0.7024 -0.1092
  169SAPE  H20R19128   0.584   5.396   8.386  0.6301  1.6351  0.7127
  169SAPE  H20S19129   0.744   5.329   8.432 -0.5483 -1.6945  1.8674
  169SAPE  H20T19130   0.593   5.241   8.482 -2.7878  0.2676 -1.6700
  169SAPE   C3319131   0.606   3.970   6.976 -0.5085  0.6102  0.1714
  169SAPE   H3X19132   0.670   3.903   6.914 -0.7076 -0.8551  1.5103
  169SAPE   H3Y19133   0.502   3.933   6.978 -0.7320  1.2952  1.4688
  169SAPE   C3419134   0.629   3.966   7.128 -1.2799 -0.6016  0.7706
  169SAPE   H4X19135   0.631   3.866   7.175  0.0263  0.4496  3.0989
  169SAPE   H4Y19136   0.543   4.019   7.174 -1.4094 -0.1527  0.0210
  169SAPE   C3519137   0.761   4.029   7.175  0.1174  0.2265  0.1365
  169SAPE   H5X19138   0.771   4.130   7.130  2.9116  0.4629  1.1905
  169SAPE   H5Y19139   0.849   3.967   7.148  0.0731 -1.8141  4.3938
  169SAPE   C3619140   0.776   4.043   7.329 -0.4949  0.0837  0.2242
  169SAPE   H6X19141   0.881   4.049   7.364  0.9696 -2.6574 -3.3632
  169SAPE   H6Y19142   0.746   3.940   7.358  2.4673  0.0549  3.5924
  169SAPE   C3719143   0.675   4.137   7.400 -0.1610 -0.0528  0.4706
  169SAPE   H7X19144   0.600   4.079   7.458  0.4239 -3.5644 -2.1173
  169SAPE   H7Y19145   0.627   4.194   7.317 -1.8909 -1.0377  0.7634
  169SAPE   C3819146   0.736   4.238   7.496 -0.2016  0.1102  0.4013
  169SAPE   H8X19147   0.663   4.315   7.530  0.3643  0.4801  0.7904
  169SAPE   H8Y19148   0.805   4.297   7.433 -0.2459 -1.1205 -0.8111
  169SAPE   C3919149   0.805   4.180   7.622  0.4419 -0.2790  0.5080
  169SAPE   H9X19150   0.867   4.266   7.653 -2.7589  2.3544 -0.1170
  169SAPE   H9Y19151   0.871   4.097   7.587  0.3414 -0.5356  0.9200
  169SAPE  C31019152   0.705   4.147   7.729  0.5189 -0.8110  0.0419
  169SAPE  H10X19153   0.644   4.076   7.670  2.7720 -2.1343 -0.7230
  169SAPE  H10Y19154   0.640   4.235   7.751  3.2958  0.7845  2.2954
  169SAPE  C31119155   0.775   4.096   7.856 -0.3283  0.2697  0.3284
  169SAPE  H11X19156   0.865   4.035   7.833 -0.3577 -0.4687  2.1331
  169SAPE  H11Y19157   0.704   4.023   7.901 -2.7857  3.1824  1.3526
  169SAPE  C31219158   0.839   4.202   7.947  0.2263  0.3237  0.2119
  169SAPE  H12X19159   0.763   4.281   7.964  0.8666  1.4412 -1.9670
  169SAPE  H12Y19160   0.922   4.255   7.895  1.3256 -0.4446  1.1528
  169SAPE  C31319161   0.899   4.138   8.074 -0.4900  0.3925 -0.0692
  169SAPE  H13X19162   0.972   4.057   8.056 -1.5345 -0.0392 -2.5776
  169SAPE  H13Y19163   0.818   4.089   8.132 -0.4577  2.0398  1.4123
  169SAPE  C31419164   0.961   4.245   8.165  0.1810 -0.2818 -0.6338
  169SAPE  H14X19165   0.890   4.330   8.171  0.8226  0.2699 -0.7150
  169SAPE  H14Y19166   1.057   4.272   8.116  0.4266 -0.7622 -0.4220
  169SAPE  C31519167   1.013   4.201   8.304 -0.3820  0.7859 -0.0466
  169SAPE  H15X19168   1.105   4.139   8.293 -0.4518  0.4495  1.2807
  169SAPE  H15Y19169   0.936   4.135   8.351 -0.9209 -0.1890 -2.1892
  169SAPE  C31619170   1.037   4.316   8.397 -0.3103 -0.1280 -1.2316
  169SAPE  H16X19171   0.937   4.365   8.405  0.1138  0.6663 -0.7894
  169SAPE  H16Y19172   1.112   4.375   8.340  1.4201 -0.6482  0.4772
  169SAPE  C31719173   1.091   4.278   8.537 -0.4848  0.4231  0.3071
  169SAPE  H17X19174   1.151   4.359   8.585  0.4083 -0.3711  0.5407
  169SAPE  H17Y19175   1.150   4.188   8.511 -0.1862  0.9700 -0.9167
  169SAPE  C31819176   0.981   4.241   8.637  0.3439 -0.1106 -0.2393
  169SAPE  H18X19177   1.012   4.209   8.739 -0.5906 -0.3156 -0.0086
  169SAPE  H18Y19178   0.929   4.149   8.600 -1.5175  0.7072  0.2906
  169SAPE  H18Z19179   0.908   4.324   8.648 -0.0475 -0.3696 -0.7982
  170SAPE     N19180   1.245   1.998   6.357 -0.7456  0.0286  0.1025
  170SAPE   HN119181   1.324   1.980   6.423 -1.7986 -1.8398  0.8817
  170SAPE   HN219182   1.230   2.101   6.353 -1.1927  0.0676  2.1857
  170SAPE   HN319183   1.160   1.957   6.401 -1.7716  0.8594 -1.0773
  170SAPE   C1219184   1.280   1.926   6.228 -0.0800 -0.1036  1.0513
  170SAPE  H12A19185   1.350   1.990   6.169 -1.0018 -0.0372  0.0154
  170SAPE  H12B19186   1.194   1.930   6.158  1.8983 -0.0813 -1.4767
  170SAPE   C1119187   1.311   1.781   6.258  0.5265 -0.1145  0.2262
  170SAPE  H11A19188   1.387   1.752   6.333 -1.4902  0.4688  2.5787
  170SAPE  H11B19189   1.358   1.749   6.162 -2.7390 -1.5676 -0.9628
  170SAPE     P19190   1.142   1.576   6.214  0.2791 -0.2320  0.0293
  170SAPE   O1319191   1.015   1.606   6.154  0.2471 -0.2788 -0.1028
  170SAPE   O1419192   1.248   1.514   6.122  0.2641 -0.2913  0.0467
  170SAPE   O1219193   1.193   1.709   6.287 -0.0028 -0.4864  0.1424
  170SAPE   O1119194   1.109   1.473   6.330  0.5584  0.1556 -0.7953
  170SAPE    C119195   1.192   1.464   6.449 -0.3195  0.0727  0.0344
  170SAPE    HA19196   1.189   1.368   6.504  0.3444  0.5199  0.8658
  170SAPE    HB19197   1.301   1.462   6.425 -0.8066 -1.0359 -2.1472
  170SAPE    C219198   1.154   1.572   6.560 -0.3513  0.1567 -0.5210
  170SAPE    HS19199   1.146   1.667   6.504  1.6986  0.4394 -0.3770
  170SAPE   O2119200   1.269   1.594   6.650 -0.1350 -0.0052  0.0233
  170SAPE   C2119201   1.267   1.714   6.708  0.6548 -0.1370  0.7515
  170SAPE   O2219202   1.191   1.802   6.674 -0.1870 -0.2165 -0.2622
  170SAPE   C2219203   1.380   1.711   6.812 -0.1631 -0.4172  0.1985
  170SAPE   H2R19204   1.376   1.620   6.875  1.0344  0.8856  2.2159
  170SAPE   H2S19205   1.475   1.707   6.755  0.9178  1.8231  1.7581
  170SAPE    C319206   1.025   1.542   6.643  0.4097 -0.0247  0.4495
  170SAPE    HX19207   0.938   1.542   6.573 -1.4390 -0.0946  2.6855
  170SAPE    HY19208   1.000   1.611   6.726 -0.8905 -0.6307  0.5827
  170SAPE   O3119209   1.030   1.407   6.687  0.2764 -0.3802 -0.3263
  170SAPE   C3119210   1.085   1.393   6.806 -0.3486 -0.1335  0.3890
  170SAPE   O3219211   1.140   1.480   6.875 -0.6405  0.7906  0.6213
  170SAPE   C3219212   1.074   1.250   6.842 -0.1988  0.0534 -0.2898
  170SAPE   H2X19213   1.156   1.208   6.781 -0.6575  0.3946 -1.1591
  170SAPE   H2Y19214   0.982   1.208   6.796 -0.3373  0.5323 -0.4529
  170SAPE   C2319215   1.395   1.837   6.900 -0.3736  0.6624 -0.8356
  170SAPE   H3R19216   1.290   1.857   6.930  0.2127 -0.1968  1.9856
  170SAPE   H3S19217   1.436   1.918   6.838  0.4445  3.3152  2.9710
  170SAPE   C2419218   1.480   1.798   7.018 -0.4441  0.2995 -0.1152
  170SAPE   H4R19219   1.576   1.772   6.970  0.5962  1.0273  1.5395
  170SAPE   H4S19220   1.437   1.707   7.065 -1.9105  0.0326 -1.8729
  170SAPE   C2519221   1.486   1.902   7.128 -0.1177  0.1888 -0.2270
  170SAPE   H5R19222   1.437   1.999   7.111 -1.9220 -0.9218 -1.5131
  170SAPE   C2619223   1.560   1.883   7.240  0.1644  0.5273 -0.1899
  170SAPE   H6R19224   1.573   1.968   7.309 -0.5226 -0.7864  1.5973
  170SAPE   C2719225   1.634   1.759   7.281 -0.1932 -0.4744  0.2092
  170SAPE   H7R19226   1.654   1.703   7.187 -0.8829 -1.3421  0.5775
  170SAPE   H7S19227   1.567   1.697   7.344 -0.2223  0.0175  0.6586
  170SAPE   C2819228   1.761   1.794   7.358 -0.1505  0.4338 -0.2948
  170SAPE   H8R19229   1.855   1.806   7.303  1.8428 -3.2538  2.1797
  170SAPE   C2919230   1.786   1.796   7.485  0.0862 -0.2701  0.7898
  170SAPE   H9R19231   1.880   1.834   7.527  0.1254 -1.3343  1.6920
  170SAPE  C21019232   1.687   1.771   7.596 -0.1918  1.0487  0.3143
  170SAPE  H10R19233   1.724   1.679   7.646 -0.4210  1.2774  0.9019
  170SAPE  H10S19234   1.588   1.736   7.559  0.9033 -2.0744  0.1281
  170SAPE  C21119235   1.663   1.891   7.683 -0.0327 -0.4099  0.5953
  170SAPE  H11R19236   1.612   1.974   7.632  0.6918  0.7579  1.7520
  170SAPE  C21219237   1.687   1.909   7.817  0.5640  0.4309  0.2055
  170SAPE  H12R19238   1.670   2.011   7.855 -2.4861 -0.2403  0.7797
  170SAPE  C21319239   1.749   1.814   7.912  0.7817  0.7643 -0.2636
  170SAPE  H13R19240   1.818   1.745   7.858  0.7771  1.4029 -1.1027
  170SAPE  H13S19241   1.676   1.752   7.969  1.4918 -1.2896 -1.5181
  170SAPE  C21419242   1.833   1.880   8.017 -0.0369 -0.4629  0.0218
  170SAPE  H14R19243   1.915   1.938   7.973  1.0832 -1.2593  1.0588
  170SAPE  C21519244   1.807   1.895   8.148  0.1991  1.0732  0.3317
  170SAPE  H15R19245   1.897   1.928   8.201  1.6593  1.3982 -2.2404
  170SAPE  C21619246   1.689   1.833   8.224 -0.7634  0.9041 -0.8064
  170SAPE  H16R19247   1.619   1.793   8.149 -0.8555 -1.7869  0.6605
  170SAPE  H16S19248   1.633   1.899   8.294  0.1620 -1.2963  2.0933
  170SAPE  C21719249   1.755   1.723   8.316  0.6744 -0.6512 -0.2322
  170SAPE  H17R19250   1.807   1.646   8.255  1.5417 -1.0861  1.0294
  170SAPE  H17S19251   1.662   1.678   8.358  0.0459  0.4341 -0.4335
  170SAPE  C21819252   1.842   1.774   8.435 -0.3081 -0.6810  0.1201
  170SAPE  H18R19253   1.820   1.882   8.446  0.9524 -0.3466 -0.5290
  170SAPE  H18S19254   1.950   1.757   8.415  0.4108  2.2440  1.2156
  170SAPE  C21919255   1.805   1.708   8.563  0.1726 -0.7520  0.4695
  170SAPE  H19R19256   1.836   1.603   8.548  1.5802 -0.7074  2.7731
  170SAPE  H19S19257   1.694   1.705   8.569  0.0718 -1.6290 -1.5325
  170SAPE  C22019258   1.871   1.771   8.688  1.1748 -0.2497  0.2610
  170SAPE  H20R19259   1.982   1.778   8.689  1.1438  0.1178  1.2040
  170SAPE  H20S19260   1.844   1.714   8.779  1.7810  0.0693  0.6422
  170SAPE  H20T19261   1.838   1.876   8.696 -0.4371 -0.6582 -0.8844
  170SAPE   C3319262   1.082   1.219   6.990  0.2227 -0.4237 -0.1976
  170SAPE   H3X19263   1.157   1.288   7.035  1.2236 -0.5418 -1.6260
  170SAPE   H3Y19264   1.112   1.113   6.999 -0.4604 -0.6269 -0.3344
  170SAPE   C3419265   0.947   1.233   7.066  0.3512 -0.2587 -0.0097
  170SAPE   H4X19266   0.869   1.170   7.019 -0.8669  1.0796  0.1470
  170SAPE   H4Y19267   0.918   1.341   7.063  1.4876  0.0410 -0.6044
  170SAPE   C3519268   0.949   1.187   7.210 -0.3181 -0.0291 -0.4497
  170SAPE   H5X19269   0.853   1.220   7.255 -0.2210 -3.3729  2.4410
  170SAPE   H5Y19270   1.038   1.235   7.256  0.1458 -0.7576 -0.5768
  170SAPE   C3619271   0.960   1.037   7.235  0.1201 -0.0404  0.4748
  170SAPE   H6X19272   1.046   0.996   7.178 -0.9088 -0.4390 -0.7934
  170SAPE   H6Y19273   0.878   0.987   7.181 -0.3165  2.8782 -1.6824
  170SAPE   C3719274   0.966   1.006   7.385  0.7662  0.3476 -0.0799
  170SAPE   H7X19275   0.893   1.064   7.445  0.2077 -0.2996 -0.1269
  170SAPE   H7Y19276   1.064   1.041   7.424  0.7525  0.7301 -0.3843
  170SAPE   C3819277   0.943   0.851   7.397  0.2822  0.4591  0.0684
  170SAPE   H8X19278   1.041   0.798   7.392 -0.2830 -0.5813  0.0199
  170SAPE   H8Y19279   0.881   0.826   7.309  0.4915  0.3624 -0.0502
  170SAPE   C3919280   0.876   0.796   7.524 -0.1751 -0.0320  0.3656
  170SAPE   H9X19281   0.840   0.693   7.503  0.5916  0.2316 -2.4119
  170SAPE   H9Y19282   0.796   0.864   7.559 -0.5265 -1.4198  2.3608
  170SAPE  C31019283   0.983   0.782   7.641 -0.2190 -0.5625  0.3120
  170SAPE  H10X19284   1.012   0.883   7.678  3.6578 -1.5618  0.2231
  170SAPE  H10Y19285   1.077   0.730   7.612  0.2788  0.2991  0.3527
  170SAPE  C31119286   0.895   0.717   7.752  0.0750  0.1464 -0.9103
  170SAPE  H11X19287   0.840   0.623   7.732  0.2140  0.1557 -1.3295
  170SAPE  H11Y19288   0.819   0.794   7.779  0.9136  1.0839 -1.1689
  170SAPE  C31219289   0.965   0.708   7.897 -0.2007  0.3683 -0.2182
  170SAPE  H12X19290   0.896   0.668   7.974 -1.4755 -3.0885 -2.9772
  170SAPE  H12Y19291   0.995   0.812   7.920  1.8227 -0.4458  1.0114
  170SAPE  C31319292   1.092   0.625   7.905 -0.8131  0.1769  0.1724
  170SAPE  H13X19293   1.161   0.652   7.823 -0.1653 -1.3571  0.2000
  170SAPE  H13Y19294   1.071   0.518   7.889  1.0898 -0.6179  2.6630
  170SAPE  C31419295   1.175   0.647   8.036 -0.1367 -0.7106 -0.4875
  170SAPE  H14X19296   1.203   0.752   8.058 -2.5455 -0.3288  0.9350
  170SAPE  H14Y19297   1.268   0.587   8.024  0.7432  0.3057  1.0393
  170SAPE  C31519298   1.119   0.590   8.166  0.1863  0.6838 -0.3968
  170SAPE  H15X19299   1.205   0.552   8.226  0.1163  1.0647 -0.0542
  170SAPE  H15Y19300   1.061   0.497   8.151  2.6444 -1.1861  1.2232
  170SAPE  C31619301   1.040   0.697   8.247  0.2091  0.0235 -0.0339
  170SAPE  H16X19302   0.955   0.723   8.180  1.5370 -0.9819 -2.1744
  170SAPE  H16Y19303   1.104   0.785   8.269  0.7308 -0.0087 -1.3600
  170SAPE  C31719304   1.002   0.642   8.388 -0.4261 -0.2795  0.1598
  170SAPE  H17X19305   0.966   0.537   8.387  3.6031 -1.7710  1.4355
  170SAPE  H17Y19306   0.925   0.701   8.443  0.5025  0.2049  0.9626
  170SAPE  C31819307   1.127   0.632   8.486  0.1809 -0.0984  0.4224
  170SAPE  H18X19308   1.208   0.563   8.452  2.0645  0.7605  3.0195
  170SAPE  H18Y19309   1.091   0.596   8.584  0.7269 -1.9112 -0.0180
  170SAPE  H18Z19310   1.172   0.732   8.501 -0.7003  0.1331  1.5462
  171SAPE     N19311   2.449   1.782   6.008  0.3687  0.6407 -0.1233
  171SAPE   HN119312   2.504   1.807   5.923 -2.7273  3.3308 -1.4193
  171SAPE   HN219313   2.483   1.705   6.070  0.1029 -1.3835 -2.4124
  171SAPE   HN319314   2.352   1.759   5.981 -0.0175 -0.0988  1.8454
  171SAPE   C1219315   2.437   1.909   6.088 -0.3332  0.2175 -0.1211
  171SAPE  H12A19316   2.364   1.886   6.168 -2.9719 -2.5779 -3.2152
  171SAPE  H12B19317   2.396   1.993   6.026 -1.2252 -0.1750 -0.0702
  171SAPE   C1119318   2.578   1.935   6.139  0.1097 -0.0557 -0.7566
  171SAPE  H11A19319   2.565   2.036   6.185  0.6524  1.2513 -3.3524
  171SAPE  H11B19320   2.658   1.953   6.063 -0.5998 -1.0384 -1.7500
  171SAPE     P19321   2.765   1.820   6.296  0.5090  0.2850 -0.0991
  171SAPE   O1319322   2.807   1.678   6.303  0.5429 -0.2658 -0.2647
  171SAPE   O1419323   2.869   1.918   6.244  0.2441 -0.2718 -0.1844
  171SAPE   O1219324   2.625   1.835   6.228  0.0686 -0.4053 -0.3979
  171SAPE   O1119325   2.732   1.860   6.449  0.0983  0.2447  0.2228
  171SAPE    C119326   2.728   2.000   6.477  0.9397  0.0038 -0.7463
  171SAPE    HA19327   2.797   2.059   6.413  2.3235  0.0822  0.7551
  171SAPE    HB19328   2.629   2.037   6.443 -0.8069 -2.6697  1.2701
  171SAPE    C219329   2.747   2.022   6.627 -0.3143  0.5089 -0.3808
  171SAPE    HS19330   2.655   1.990   6.680  0.5086 -1.6733 -0.2036
  171SAPE   O2119331   2.776   2.156   6.646  0.3286 -0.4237 -0.3073
  171SAPE   C2119332   2.670   2.227   6.678 -0.1315  0.0200  0.1873
  171SAPE   O2219333   2.557   2.187   6.680 -0.8075 -0.1885  0.6059
  171SAPE   C2219334   2.716   2.365   6.725 -0.3251 -1.2620 -0.1418
  171SAPE   H2R19335   2.819   2.371   6.764 -0.8426 -0.0168  1.0854
  171SAPE   H2S19336   2.716   2.421   6.629 -1.1290 -1.4307 -0.2477
  171SAPE    C319337   2.862   1.937   6.695  0.2766  1.1079  0.9841
  171SAPE    HX19338   2.959   1.963   6.648  1.5616 -2.1002  1.7525
  171SAPE    HY19339   2.855   1.829   6.671  0.3042  1.4368 -0.5568
  171SAPE   O3119340   2.878   1.948   6.840  0.0104  0.3752 -0.4292
  171SAPE   C3119341   2.787   1.895   6.918 -0.3659 -0.1225 -0.2984
  171SAPE   O3219342   2.693   1.832   6.882  0.2912 -0.2978 -0.0668
  171SAPE   C3219343   2.806   1.952   7.061 -0.7357  0.3143 -0.1845
  171SAPE   H2X19344   2.738   2.040   7.065  0.3184  1.1274  0.0559
  171SAPE   H2Y19345   2.911   1.977   7.085 -0.9853  2.2266 -1.0041
  171SAPE   C2319346   2.616   2.437   6.819 -0.4292 -0.4070  0.5529
  171SAPE   H3R19347   2.521   2.433   6.762  0.2273 -2.2150 -0.4229
  171SAPE   H3S19348   2.646   2.544   6.813  3.0355 -1.4889 -3.8250
  171SAPE   C2419349   2.605   2.378   6.962 -0.2953  0.1182  0.8503
  171SAPE   H4R19350   2.707   2.381   7.006  0.1495  1.2489 -0.2194
  171SAPE   H4S19351   2.566   2.274   6.956 -1.5151  0.6677 -1.2069
  171SAPE   C2519352   2.514   2.465   7.042 -0.4322 -0.7904  0.3023
  171SAPE   H5R19353   2.422   2.492   6.989  0.6262  0.8051 -0.7870
  171SAPE   C2619354   2.509   2.487   7.175  0.2127 -0.4279  0.0081
  171SAPE   H6R19355   2.424   2.552   7.200  1.0620  1.6393 -2.3176
  171SAPE   C2719356   2.600   2.431   7.286  0.8968  0.4885  0.9571
  171SAPE   H7R19357   2.638   2.514   7.349 -0.0108  2.5886 -1.1553
  171SAPE   H7S19358   2.694   2.388   7.247  1.4555  1.8593  0.7560
  171SAPE   C2819359   2.536   2.314   7.360 -0.4308 -0.0705  0.0184
  171SAPE   H8R19360   2.478   2.244   7.298 -2.4217  0.4458  1.2411
  171SAPE   C2919361   2.538   2.296   7.496  0.2769 -0.2872 -0.3699
  171SAPE   H9R19362   2.480   2.213   7.539  0.0331  0.1110  0.0690
  171SAPE  C21019363   2.607   2.383   7.587  0.2031  0.3073 -0.6862
  171SAPE  H10R19364   2.572   2.488   7.574  1.0937  0.9978  2.1321
  171SAPE  H10S19365   2.715   2.398   7.567  0.0352  1.5498 -0.7132
  171SAPE  C21119366   2.591   2.345   7.729  0.3713  0.3617  0.0743
  171SAPE  H11R19367   2.654   2.259   7.755  1.2260  0.6612 -0.9669
  171SAPE  C21219368   2.519   2.402   7.824  0.6332 -0.3296  0.5022
  171SAPE  H12R19369   2.536   2.357   7.923  3.3824  0.4587  0.4503
  171SAPE  C21319370   2.439   2.531   7.809 -0.5667  0.1201 -0.4875
  171SAPE  H13R19371   2.366   2.530   7.725 -0.9074 -2.7162 -0.2102
  171SAPE  H13S19372   2.509   2.617   7.799 -0.6439  0.0505 -1.6901
  171SAPE  C21419373   2.356   2.564   7.932  0.2848  0.4013 -0.1378
  171SAPE  H14R19374   2.247   2.559   7.921  0.2420  1.4601 -0.1990
  171SAPE  C21519375   2.404   2.599   8.051 -0.1459 -0.0808  0.1751
  171SAPE  H15R19376   2.326   2.613   8.127  1.5177  1.7209  1.5793
  171SAPE  C21619377   2.546   2.612   8.095  0.1085  0.9184  0.4100
  171SAPE  H16R19378   2.575   2.719   8.087 -0.5052  0.9789 -1.1377
  171SAPE  H16S19379   2.616   2.555   8.031  0.1405 -1.2502  2.3240
  171SAPE  C21719380   2.560   2.566   8.236  0.0148 -0.4403  0.3179
  171SAPE  H17R19381   2.666   2.558   8.271 -0.1009 -2.3162  0.3128
  171SAPE  H17S19382   2.513   2.467   8.252  0.5722 -0.4604  2.0149
  171SAPE  C21819383   2.497   2.669   8.336 -0.3923 -0.1282 -0.2410
  171SAPE  H18R19384   2.487   2.613   8.432  1.8564 -1.0992 -0.5378
  171SAPE  H18S19385   2.396   2.709   8.313 -0.0504  0.9828  0.1122
  171SAPE  C21919386   2.571   2.797   8.356  0.7421 -0.2432  0.8981
  171SAPE  H19R19387   2.518   2.854   8.435  1.8550 -1.2025  2.3800
  171SAPE  H19S19388   2.576   2.862   8.266  0.3993  0.0394  1.0851
  171SAPE  C22019389   2.718   2.777   8.400  0.1047 -0.2118  0.3532
  171SAPE  H20R19390   2.726   2.712   8.490 -0.3250 -1.8317 -0.7504
  171SAPE  H20S19391   2.747   2.879   8.433  0.6878  0.3214 -1.7452
  171SAPE  H20T19392   2.786   2.756   8.315  2.0825  1.5623  1.4559
  171SAPE   C3319393   2.743   1.867   7.174  0.5202  0.4352 -0.7637
  171SAPE   H3X19394   2.785   1.764   7.172 -0.5790 -0.0094 -1.6808
  171SAPE   H3Y19395   2.633   1.850   7.167  0.3227  1.1728  0.3722
  171SAPE   C3419396   2.756   1.929   7.313  1.2511  0.2533 -0.3582
  171SAPE   H4X19397   2.703   2.026   7.318  0.7837  0.0322 -0.8899
  171SAPE   H4Y19398   2.862   1.934   7.346  0.7720 -0.9268  1.4490
  171SAPE   C3519399   2.685   1.833   7.419 -0.0043 -0.5789  0.4919
  171SAPE   H5X19400   2.740   1.737   7.419 -0.7087 -1.0010 -0.7738
  171SAPE   H5Y19401   2.578   1.812   7.401 -1.2753  3.0111  3.3164
  171SAPE   C3619402   2.704   1.898   7.557  0.7831 -1.1225  0.1301
  171SAPE   H6X19403   2.700   2.006   7.531  2.0246 -1.3671 -1.1622
  171SAPE   H6Y19404   2.805   1.876   7.599  0.0728 -0.0495  2.5070
  171SAPE   C3719405   2.593   1.857   7.655 -0.4564 -0.0946  0.1761
  171SAPE   H7X19406   2.621   1.753   7.682  0.6796  0.1079 -0.1918
  171SAPE   H7Y19407   2.492   1.857   7.609  1.0883 -1.2234 -3.3795
  171SAPE   C3819408   2.592   1.944   7.783 -0.0502  0.0701  0.5626
  171SAPE   H8X19409   2.496   1.923   7.835  1.1325 -2.3777  1.8697
  171SAPE   H8Y19410   2.604   2.047   7.743 -0.2966  0.6237  1.8993
  171SAPE   C3919411   2.707   1.923   7.891  0.0663  0.4965 -0.3530
  171SAPE   H9X19412   2.808   1.908   7.847 -0.4619 -2.6974 -0.5933
  171SAPE   H9Y19413   2.684   1.821   7.929  0.4216  0.4215 -0.3351
  171SAPE  C31019414   2.708   2.018   8.011 -0.7065 -0.2156  0.7155
  171SAPE  H10X19415   2.610   2.027   8.062 -1.3639 -0.7019 -0.4345
  171SAPE  H10Y19416   2.745   2.111   7.962  1.1138 -0.8021  0.9459
  171SAPE  C31119417   2.799   1.976   8.123  0.2304  0.4480 -0.3402
  171SAPE  H11X19418   2.901   1.964   8.081  0.1974  2.7739 -1.1162
  171SAPE  H11Y19419   2.769   1.876   8.162 -2.2164  1.0446 -0.6308
  171SAPE  C31219420   2.809   2.086   8.230 -0.4045  0.9226  0.0463
  171SAPE  H12X19421   2.859   2.178   8.193 -1.8199  1.0408 -1.6422
  171SAPE  H12Y19422   2.877   2.048   8.309 -0.0791  0.3218 -0.5254
  171SAPE  C31319423   2.680   2.127   8.289  0.1055 -0.4671  0.1489
  171SAPE  H13X19424   2.604   2.046   8.290  0.9331 -1.2537 -0.9472
  171SAPE  H13Y19425   2.633   2.204   8.225 -0.6427 -0.6096  0.5166
  171SAPE  C31419426   2.681   2.183   8.432 -0.7799 -0.2526 -0.0465
  171SAPE  H14X19427   2.718   2.099   8.495 -1.7447 -0.2768  0.4996
  171SAPE  H14Y19428   2.576   2.200   8.466 -0.5479 -1.7209  1.4386
  171SAPE  C31519429   2.781   2.296   8.452 -0.6357  0.6976 -0.0471
  171SAPE  H15X19430   2.803   2.357   8.361 -2.4683 -0.2494 -1.1486
  171SAPE  H15Y19431   2.870   2.242   8.491 -0.5967 -0.2697 -1.4405
  171SAPE  C31619432   2.726   2.387   8.559 -0.5932  0.2166 -0.0459
  171SAPE  H16X19433   2.682   2.333   8.645 -1.3201  0.2087 -0.4204
  171SAPE  H16Y19434   2.646   2.452   8.519 -0.8972 -0.8207 -1.1592
  171SAPE  C31719435   2.835   2.484   8.621 -0.5261 -1.2721 -0.7056
  171SAPE  H17X19436   2.884   2.539   8.538  0.7671  1.3303  1.6508
  171SAPE  H17Y19437   2.904   2.409   8.666  2.3216  1.9183  0.4437
  171SAPE  C31819438   2.786   2.582   8.723 -0.3573 -0.3534  0.1552
  171SAPE  H18X19439   2.750   2.530   8.814 -0.7872  1.5007  1.0828
  171SAPE  H18Y19440   2.702   2.642   8.683 -0.8649 -1.2327 -0.1107
  171SAPE  H18Z19441   2.871   2.648   8.750 -0.3239 -1.1866  2.1021
  172SAPE     N19442   1.801   0.797   6.438  0.4214  0.4052  0.1919
  172SAPE   HN119443   1.866   0.767   6.362  1.3693  0.8705  0.8110
  172SAPE   HN219444   1.777   0.712   6.491 -0.7119  1.6713  1.7560
  172SAPE   HN319445   1.709   0.826   6.397  1.0542  2.3558  0.0730
  172SAPE   C1219446   1.862   0.907   6.524  0.4453  0.1248 -0.6560
  172SAPE  H12A19447   1.955   0.865   6.567  0.2165 -0.1268 -0.4043
  172SAPE  H12B19448   1.795   0.931   6.609 -0.4038 -0.4838 -1.1484
  172SAPE   C1119449   1.884   1.026   6.433 -0.2765  0.2041 -0.3625
  172SAPE  H11A19450   1.912   1.114   6.496  1.3059 -0.8092  0.3864
  172SAPE  H11B19451   1.785   1.048   6.387 -0.9675  1.4428  1.6399
  172SAPE     P19452   2.134   1.045   6.366 -0.1916 -0.0945 -0.5602
  172SAPE   O1319453   2.223   0.975   6.268 -0.2576  0.4066 -0.2965
  172SAPE   O1419454   2.141   1.190   6.378 -0.5504  0.5086  0.1737
  172SAPE   O1219455   1.982   1.010   6.330 -0.8290  0.0489  0.1894
  172SAPE   O1119456   2.174   0.978   6.511 -0.0398  0.0572  0.3795
  172SAPE    C119457   2.276   1.055   6.588  0.0416 -0.5573  0.0244
  172SAPE    HA19458   2.372   1.062   6.532 -0.3331  1.1028 -0.4348
  172SAPE    HB19459   2.248   1.159   6.612  0.3090 -0.2043 -1.1440
  172SAPE    C219460   2.314   0.975   6.723 -0.5913 -0.0036  0.1526
  172SAPE    HS19461   2.363   1.040   6.799 -0.4381 -1.1280  1.0389
  172SAPE   O2119462   2.405   0.865   6.689 -0.5355 -0.1264 -0.1911
  172SAPE   C2119463   2.534   0.893   6.671  0.0079 -0.8308  0.1760
  172SAPE   O2219464   2.585   1.005   6.666  0.0045 -0.3297 -0.6350
  172SAPE   C2219465   2.614   0.753   6.692 -0.7247  0.3485  0.3039
  172SAPE   H2R19466   2.557   0.688   6.622  0.2317  0.0673 -0.2227
  172SAPE   H2S19467   2.709   0.746   6.636 -1.1799  0.1177 -0.4604
  172SAPE    C319468   2.187   0.918   6.785 -0.9690  0.4548 -0.0436
  172SAPE    HX19469   2.153   0.837   6.716 -3.2321  1.7269 -0.4708
  172SAPE    HY19470   2.106   0.993   6.782 -1.7024 -0.3005  0.6498
  172SAPE   O3119471   2.213   0.862   6.917  0.7065  0.2125  0.0774
  172SAPE   C3119472   2.182   0.942   7.020 -0.1227 -0.2214  0.2082
  172SAPE   O3219473   2.119   1.044   7.012  0.4333  0.3668  0.5765
  172SAPE   C3219474   2.235   0.878   7.146 -0.0830 -0.0436 -0.0389
  172SAPE   H2X19475   2.346   0.880   7.137 -0.1302  0.3759 -0.5461
  172SAPE   H2Y19476   2.214   0.770   7.137  1.2637 -0.4414  1.2403
  172SAPE   C2319477   2.605   0.694   6.830  0.4258  0.9923  0.0866
  172SAPE   H3R19478   2.498   0.705   6.856  0.4769 -2.8309  2.1197
  172SAPE   H3S19479   2.646   0.769   6.901 -1.0082  2.0748 -0.1886
  172SAPE   C2419480   2.676   0.564   6.855 -0.2230  0.1644 -0.0762
  172SAPE   H4R19481   2.657   0.474   6.794  2.5744 -2.5740  2.8928
  172SAPE   H4S19482   2.634   0.540   6.955  0.0344 -0.1828 -0.0522
  172SAPE   C2519483   2.824   0.581   6.846 -0.1071 -0.6403 -0.8441
  172SAPE   H5R19484   2.873   0.582   6.748  0.4629 -1.3586 -0.5718
  172SAPE   C2619485   2.900   0.581   6.953  0.4764 -0.5915  0.6276
  172SAPE   H6R19486   3.007   0.599   6.933  1.2669 -1.4064  3.7505
  172SAPE   C2719487   2.861   0.563   7.102  0.4679 -0.0032 -0.2132
  172SAPE   H7R19488   2.951   0.518   7.150  0.3090 -0.2546 -0.1489
  172SAPE   H7S19489   2.789   0.480   7.118 -0.6475  1.4495  2.5209
  172SAPE   C2819490   2.814   0.695   7.167  0.3628 -0.7334  0.4149
  172SAPE   H8R19491   2.742   0.740   7.097  1.3543 -1.4815 -1.1218
  172SAPE   C2919492   2.834   0.749   7.292  0.1777 -0.0361  0.6223
  172SAPE   H9R19493   2.798   0.849   7.319  1.0216  0.1623  1.0313
  172SAPE  C21019494   2.925   0.696   7.397  0.8742 -0.3443  0.1465
  172SAPE  H10R19495   3.023   0.749   7.397  0.8508 -0.3003 -0.9001
  172SAPE  H10S19496   2.939   0.588   7.376  4.1259  0.1078 -0.2777
  172SAPE  C21119497   2.862   0.716   7.534  0.6943 -0.6278 -0.7534
  172SAPE  H11R19498   2.762   0.672   7.545  0.4013  0.2241  0.1044
  172SAPE  C21219499   2.911   0.774   7.648  0.2722 -0.5501  0.3865
  172SAPE  H12R19500   2.854   0.768   7.742 -0.1691  1.3971  0.2635
  172SAPE  C21319501   3.053   0.821   7.668  0.1516 -0.2948 -0.0141
  172SAPE  H13R19502   3.054   0.924   7.708  0.0471 -0.6532  0.9213
  172SAPE  H13S19503   3.101   0.832   7.568 -0.1507 -0.4412 -0.1748
  172SAPE  C21419504   3.127   0.719   7.750  1.1318  0.1965  0.3250
  172SAPE  H14R19505   3.139   0.620   7.704  0.3885 -0.3516  1.2917
  172SAPE  C21519506   3.179   0.736   7.870  0.4869 -0.0581 -0.0686
  172SAPE  H15R19507   3.213   0.652   7.933 -0.0744  1.9060  2.9434
  172SAPE  C21619508   3.174   0.867   7.945  0.0472 -0.2246  0.0465
  172SAPE  H16R19509   3.127   0.945   7.881 -0.4315 -0.7977 -0.3003
  172SAPE  H16S19510   3.280   0.889   7.971  0.8298 -3.8701  0.1445
  172SAPE  C21719511   3.097   0.857   8.079  0.4012 -0.5549  0.1023
  172SAPE  H17R19512   3.132   0.951   8.127  1.2749 -0.8269  0.0124
  172SAPE  H17S19513   3.135   0.774   8.142 -2.0310 -0.8475  1.2136
  172SAPE  C21819514   2.944   0.858   8.073 -0.0060 -0.4733 -0.9096
  172SAPE  H18R19515   2.898   0.779   8.011  0.6026 -2.3487  0.9696
  172SAPE  H18S19516   2.916   0.959   8.036 -0.4723 -0.0821  0.4769
  172SAPE  C21919517   2.880   0.863   8.207 -0.1240 -0.8178 -0.6702
  172SAPE  H19R19518   2.771   0.881   8.192 -0.3168 -0.9615  0.4879
  172SAPE  H19S19519   2.921   0.945   8.269 -1.0404 -1.0996  0.3344
  172SAPE  C22019520   2.892   0.728   8.281 -0.5806  0.0092 -0.0130
  172SAPE  H20R19521   3.000   0.708   8.294 -0.8786 -2.0373 -0.3912
  172SAPE  H20S19522   2.856   0.646   8.215  2.9983 -1.1604 -0.5976
  172SAPE  H20T19523   2.843   0.720   8.381 -1.3042 -1.7129 -0.4685
  172SAPE   C3319524   2.188   0.941   7.279  0.6138 -0.2566 -0.2745
  172SAPE   H3X19525   2.099   0.887   7.318  0.9648 -0.5730  0.0803
  172SAPE   H3Y19526   2.174   1.051   7.268 -0.5305 -0.4026 -0.3025
  172SAPE   C3419527   2.299   0.924   7.386  0.4785 -0.1159  0.4190
  172SAPE   H4X19528   2.275   0.964   7.487 -2.5427 -1.6233  0.3674
  172SAPE   H4Y19529   2.383   0.986   7.349  0.6103  0.9202  2.4164
  172SAPE   C3519530   2.357   0.779   7.397 -0.4822  0.0687  0.6164
  172SAPE   H5X19531   2.412   0.758   7.302 -0.7724 -1.0570  0.6880
  172SAPE   H5Y19532   2.271   0.708   7.403 -0.7196  0.1024 -1.6851
  172SAPE   C3619533   2.461   0.776   7.512  0.0985 -0.3988 -0.0901
  172SAPE   H6X19534   2.555   0.819   7.472  0.4222 -1.2213 -0.2270
  172SAPE   H6Y19535   2.481   0.669   7.537 -1.9149 -0.8198 -0.2009
  172SAPE   C3719536   2.415   0.843   7.636 -0.8682 -0.6674 -0.1551
  172SAPE   H7X19537   2.312   0.813   7.665 -0.4950 -1.0493  0.7802
  172SAPE   H7Y19538   2.424   0.953   7.627  2.2314 -0.8514  0.3944
  172SAPE   C3819539   2.503   0.794   7.754 -0.2751 -0.1667 -0.2374
  172SAPE   H8X19540   2.607   0.833   7.745 -0.6647  0.2708 -3.5208
  172SAPE   H8Y19541   2.499   0.683   7.754  0.3796 -0.1882 -0.2338
  172SAPE   C3919542   2.449   0.845   7.887 -0.4824 -0.4625 -0.2825
  172SAPE   H9X19543   2.355   0.789   7.906  0.9493 -2.2698  1.7383
  172SAPE   H9Y19544   2.429   0.954   7.878 -2.6588 -0.6644  1.5404
  172SAPE  C31019545   2.542   0.822   8.009  0.1401 -0.3619 -0.5652
  172SAPE  H10X19546   2.635   0.880   7.989 -1.7789  2.3462 -2.0258
  172SAPE  H10Y19547   2.559   0.713   8.013  0.5375 -0.2679  0.5260
  172SAPE  C31119548   2.481   0.869   8.147 -0.2275 -0.0087  0.6627
  172SAPE  H11X19549   2.556   0.837   8.222  0.7170  0.3893 -0.1026
  172SAPE  H11Y19550   2.384   0.814   8.150 -0.5972  0.5379 -0.6863
  172SAPE  C31219551   2.450   1.017   8.154  0.1104 -0.2619  0.3870
  172SAPE  H12X19552   2.373   1.025   8.074 -0.1406  2.9769  0.8841
  172SAPE  H12Y19553   2.539   1.071   8.114  0.2318  0.5759  1.7581
  172SAPE  C31319554   2.392   1.078   8.280 -0.3128  0.4409  0.3154
  172SAPE  H13X19555   2.339   1.171   8.249 -0.7920 -0.2610 -0.9778
  172SAPE  H13Y19556   2.478   1.105   8.345  0.8770  0.0970 -1.1112
  172SAPE  C31419557   2.274   0.995   8.336  0.2165 -0.0847  0.4196
  172SAPE  H14X19558   2.314   0.891   8.342  0.5390  0.0378  0.3756
  172SAPE  H14Y19559   2.190   0.983   8.264  0.3649  1.5371 -0.0245
  172SAPE  C31519560   2.220   1.063   8.462  0.5357  0.3516  0.2148
  172SAPE  H15X19561   2.192   1.168   8.436  0.4063  0.2364 -0.1163
  172SAPE  H15Y19562   2.287   1.056   8.550  0.2774 -0.7939  0.3280
  172SAPE  C31619563   2.080   1.009   8.497  0.5707  0.2248 -0.0169
  172SAPE  H16X19564   2.003   1.038   8.423  0.4436 -1.8389 -0.7351
  172SAPE  H16Y19565   2.055   1.062   8.591  0.6311  0.9105 -0.3860
  172SAPE  C31719566   2.069   0.852   8.506 -0.3933  0.0346 -0.1475
  172SAPE  H17X19567   2.152   0.806   8.565 -0.1367 -0.9037 -1.2126
  172SAPE  H17Y19568   2.076   0.826   8.398 -0.6502 -3.2204  0.5739
  172SAPE  C31819569   1.939   0.802   8.569  0.4967  0.2036 -0.5534
  172SAPE  H18X19570   1.923   0.693   8.550  2.6794 -0.9822  3.6648
  172SAPE  H18Y19571   1.854   0.859   8.528 -0.0888  0.7752  1.3799
  172SAPE  H18Z19572   1.950   0.824   8.678 -0.2887 -0.9972 -0.2149
  173SOPE     N19573   3.785   5.362  11.051 -0.3109 -0.3834  0.0268
  173SOPE   HN119574   3.867   5.304  11.026  0.6039  0.7093  0.4273
  173SOPE   HN219575   3.732   5.384  10.964  0.9657  0.2052 -0.6076
  173SOPE   HN319576   3.816   5.458  11.077  2.8591 -1.3033 -0.1576
  173SOPE   C1219577   3.686   5.309  11.155  0.3829 -0.2890  0.2174
  173SOPE  H12A19578   3.605   5.384  11.167  1.8693  1.1642  1.5075
  173SOPE  H12B19579   3.737   5.301  11.253  1.6886 -0.9959 -0.5131
  173SOPE   C1119580   3.623   5.174  11.124  0.3147  0.7435  0.0124
  173SOPE  H11A19581   3.539   5.174  11.197  0.4231 -1.2900  0.1528
  173SOPE  H11B19582   3.705   5.101  11.136  0.4197  0.8545 -0.0313
  173SOPE     P19583   3.509   5.026  10.950  0.1679 -0.2398  0.0036
  173SOPE   O1319584   3.380   5.000  11.021 -0.5994  0.4055  0.1857
  173SOPE   O1419585   3.615   4.930  10.975  0.4032 -0.6971  0.4407
  173SOPE   O1219586   3.572   5.169  10.987  0.2652 -0.3499 -0.1228
  173SOPE   O1119587   3.472   5.051  10.801 -0.0920 -0.3989  0.5318
  173SOPE    C119588   3.565   5.103  10.704 -0.2357 -0.2103 -0.3666
  173SOPE    HA19589   3.658   5.043  10.716 -0.2212 -0.2597 -0.7307
  173SOPE    HB19590   3.581   5.212  10.717  0.0488 -0.4736  1.7604
  173SOPE    C219591   3.508   5.079  10.564  0.6152  0.6156 -0.1872
  173SOPE    HS19592   3.594   5.082  10.493  1.5448 -2.5023  0.7397
  173SOPE   O2119593   3.413   5.193  10.535 -0.0529  0.6693 -0.0799
  173SOPE   C2119594   3.478   5.298  10.466 -0.9526  0.5513 -0.4266
  173SOPE   O2219595   3.598   5.302  10.456 -0.4211 -0.6384 -0.0955
  173SOPE   C2219596   3.380   5.385  10.390 -0.0621  0.4500 -0.3705
  173SOPE   H2R19597   3.453   5.457  10.348 -1.2928  1.4954 -0.7239
  173SOPE   H2S19598   3.321   5.436  10.468 -1.9363 -1.0432 -0.7714
  173SOPE    C319599   3.434   4.952  10.554  0.3075 -0.3107  0.3501
  173SOPE    HX19600   3.340   4.937  10.611 -0.0618  1.4315  0.2015
  173SOPE    HY19601   3.499   4.874  10.600  0.1252 -1.5660 -1.4879
  173SOPE   O3119602   3.413   4.917  10.422 -0.2482  0.5734  0.0923
  173SOPE   C3119603   3.289   4.927  10.374  0.9055  0.3078 -0.7135
  173SOPE   O3219604   3.196   4.975  10.434  0.0316 -0.3619  0.1955
  173SOPE   C3219605   3.282   4.875  10.238 -0.1172  0.8655  0.6464
  173SOPE   H2X19606   3.269   4.765  10.246 -0.7441  0.6466 -2.5438
  173SOPE   H2Y19607   3.373   4.891  10.177 -0.1034 -0.7338  0.2401
  173SOPE   C2319608   3.300   5.308  10.281  0.2777 -0.5762 -0.3843
  173SOPE   H3R19609   3.221   5.375  10.243  0.5614  0.5346  0.9345
  173SOPE   H3S19610   3.246   5.229  10.338 -0.0188  0.6439  1.0811
  173SOPE   C2419611   3.384   5.240  10.178  0.0308  0.1766 -0.0747
  173SOPE   H4R19612   3.481   5.197  10.212 -1.3221 -2.6675  0.3313
  173SOPE   H4S19613   3.327   5.157  10.130  2.6734 -0.1210 -2.8435
  173SOPE   C2519614   3.404   5.345  10.063  0.0823 -0.4511 -0.2793
  173SOPE   H5R19615   3.308   5.381  10.022  0.6406  2.2914  0.6890
  173SOPE   H5S19616   3.461   5.434  10.098 -1.0765 -0.5228  1.9053
  173SOPE   C2619617   3.492   5.285   9.946  0.3985  0.3522 -0.4776
  173SOPE   H6R19618   3.562   5.362   9.907  2.0248 -0.7165  0.2748
  173SOPE   H6S19619   3.551   5.199   9.984 -0.5123  0.2459  0.7518
  173SOPE   C2719620   3.414   5.219   9.827  0.0265 -0.2978  0.1233
  173SOPE   H7R19621   3.314   5.193   9.869 -0.4878  1.3706 -0.0465
  173SOPE   H7S19622   3.409   5.303   9.755  1.5336  1.2653  1.7981
  173SOPE   C2819623   3.481   5.094   9.768 -0.0530 -0.2643  0.7248
  173SOPE   H8R19624   3.498   5.020   9.849  1.0628  2.3756  2.9735
  173SOPE   H8S19625   3.401   5.048   9.705  0.5427 -0.1275 -0.1351
  173SOPE   C2919626   3.608   5.124   9.690 -0.2550 -1.0231  0.5733
  173SOPE   H9119627   3.696   5.149   9.750  0.8975  0.0598 -1.5068
  173SOPE  C21019628   3.634   5.092   9.562 -0.4332 -0.1912 -0.8798
  173SOPE  H10119629   3.731   5.111   9.515 -0.2243  1.8106  0.2673
  173SOPE  C21119630   3.533   5.028   9.465 -0.2149 -0.0075 -0.7482
  173SOPE  H11R19631   3.427   5.045   9.494 -0.6231 -0.7861 -1.7527
  173SOPE  H11S19632   3.537   4.919   9.485  1.6576  0.2764  0.5084
  173SOPE  C21219633   3.535   5.083   9.320 -0.4295 -0.0711  0.6298
  173SOPE  H12R19634   3.519   5.193   9.320  0.9929  0.1693  2.4014
  173SOPE  H12S19635   3.454   5.027   9.270 -0.2153 -0.4333  0.6858
  173SOPE  C21319636   3.663   5.064   9.244  0.4947 -0.6825  0.1790
  173SOPE  H13R19637   3.694   4.963   9.279  2.4114 -0.3594 -0.4921
  173SOPE  H13S19638   3.738   5.144   9.263  1.4222 -1.5860  0.4156
  173SOPE  C21419639   3.652   5.055   9.088  0.5000 -0.5273  0.5495
  173SOPE  H14R19640   3.610   5.143   9.035 -1.0240 -0.1216  2.3519
  173SOPE  H14S19641   3.594   4.964   9.062  1.5765 -1.5504  1.6398
  173SOPE  C21519642   3.788   5.026   9.027  0.5977 -0.2605  0.3377
  173SOPE  H15R19643   3.866   4.990   9.098 -0.3283 -2.6888  0.1724
  173SOPE  H15S19644   3.819   5.127   8.991 -1.8698 -0.5716 -2.8275
  173SOPE  C21619645   3.784   4.920   8.921  0.0883  0.4717  0.6286
  173SOPE  H16R19646   3.688   4.941   8.868 -0.9524  0.2643  2.3813
  173SOPE  H16S19647   3.777   4.818   8.964  1.5732 -0.4743 -1.3044
  173SOPE  C21719648   3.912   4.918   8.830  0.0512 -0.2217  0.0621
  173SOPE  H17R19649   3.995   4.911   8.903  1.6616  0.4696 -1.6552
  173SOPE  H17S19650   3.931   5.018   8.785 -1.2436  0.5293  1.1448
  173SOPE  C21819651   3.901   4.814   8.719 -0.1534 -0.0031  0.0815
  173SOPE  H18R19652   3.861   4.852   8.623 -2.1389 -2.0681  0.0356
  173SOPE  H18S19653   3.830   4.735   8.751  0.5716 -0.8663 -0.4160
  173SOPE  H18T19654   4.005   4.776   8.709  0.2433  1.1983 -0.4798
  173SOPE   C3319655   3.165   4.925  10.151  0.3100 -0.0661 -0.5448
  173SOPE   H3X19656   3.152   5.035  10.148 -0.1318 -0.0553  1.0896
  173SOPE   H3Y19657   3.071   4.879  10.188 -0.5651 -0.0097 -2.6740
  173SOPE   C3419658   3.168   4.873  10.001  0.0419  0.0407  0.0082
  173SOPE   H4X19659   3.136   4.767  10.008  1.5015 -0.4621 -0.7364
  173SOPE   H4Y19660   3.274   4.866   9.966 -0.0566  2.2813 -0.7865
  173SOPE   C3519661   3.082   4.960   9.904 -0.3833  0.9270  0.6594
  173SOPE   H5X19662   3.115   5.066   9.907  0.3425  0.8436 -2.6894
  173SOPE   H5Y19663   2.974   4.952   9.927 -0.3015 -2.8061  0.1127
  173SOPE   C3619664   3.096   4.921   9.755 -0.2014 -0.0043  0.3190
  173SOPE   H6X19665   3.067   4.818   9.728 -0.3061  0.5329 -1.7399
  173SOPE   H6Y19666   3.202   4.930   9.722 -0.2592  2.4345  0.7064
  173SOPE   C3719667   3.022   5.021   9.661 -0.6921 -0.0089  0.1545
  173SOPE   H7X19668   3.078   5.115   9.681  1.1906 -1.1374  0.1950
  173SOPE   H7Y19669   2.915   5.024   9.693 -1.2626 -0.0745 -1.6870
  173SOPE   C3819670   3.039   4.981   9.515  0.6235 -0.9135  1.0293
  173SOPE   H8X19671   2.977   4.891   9.491 -0.9389  0.0557  1.3638
  173SOPE   H8Y19672   3.144   4.949   9.498  0.9111  0.7099 -0.3434
  173SOPE   C3919673   2.991   5.085   9.416  0.1396  0.5316  0.2979
  173SOPE   H9X19674   3.051   5.176   9.437  0.8205  0.3168 -0.6834
  173SOPE   H9Y19675   2.886   5.106   9.444 -0.6682 -2.1538 -0.5585
  173SOPE  C31019676   3.012   5.060   9.263 -0.8467 -0.5313  1.0539
  173SOPE  H10X19677   2.946   5.138   9.220 -2.5803 -1.2170  2.4002
  173SOPE  H10Y19678   2.971   4.964   9.225 -1.9981  0.3908 -0.0916
  173SOPE  C31119679   3.159   5.089   9.221 -0.4190 -0.2153  0.4862
  173SOPE  H11X19680   3.231   5.014   9.259  0.2555 -0.2480 -0.8457
  173SOPE  H11Y19681   3.188   5.188   9.262  0.1756 -0.3424  0.3712
  173SOPE  C31219682   3.172   5.080   9.060  0.8246  0.3455 -0.0574
  173SOPE  H12X19683   3.109   5.155   9.007  1.3976  0.3908 -0.6800
  173SOPE  H12Y19684   3.128   4.982   9.028  1.2488  0.0866  0.1544
  173SOPE  C31319685   3.321   5.084   9.006 -0.0573 -0.1831  1.0899
  173SOPE  H13X19686   3.380   4.998   9.043  3.5488  0.6952 -2.2890
  173SOPE  H13Y19687   3.359   5.177   9.053  0.6890 -0.1818  0.4974
  173SOPE  C31419688   3.316   5.093   8.850  0.6976 -0.5696  0.5533
  173SOPE  H14X19689   3.235   5.162   8.819 -0.7853 -2.0584  1.0018
  173SOPE  H14Y19690   3.310   4.989   8.812  2.6395 -0.4661 -0.1051
  173SOPE  C31519691   3.449   5.154   8.794  0.2346  0.8999 -0.5065
  173SOPE  H15X19692   3.530   5.102   8.851 -1.8346 -1.2588  0.5564
  173SOPE  H15Y19693   3.454   5.263   8.815 -0.1343  1.0830 -1.3547
  173SOPE  C31619694   3.468   5.142   8.643 -0.2008 -0.1781  0.0280
  173SOPE  H16X19695   3.546   5.215   8.612 -1.1512  1.0756  0.5155
  173SOPE  H16Y19696   3.385   5.195   8.591  1.5801  0.6091 -2.0735
  173SOPE  C31719697   3.492   4.998   8.587  0.1662 -0.1024  0.5265
  173SOPE  H17X19698   3.396   4.948   8.610  0.7669 -0.3555  2.5439
  173SOPE  H17Y19699   3.575   4.960   8.651  0.8816 -1.4863 -1.1620
  173SOPE  C31819700   3.523   4.989   8.434  0.3211 -0.0885  0.5440
  173SOPE  H18X19701   3.433   5.008   8.372  1.0468 -2.5429 -1.3285
  173SOPE  H18Y19702   3.573   4.895   8.404 -1.3510 -0.5427 -0.8635
  173SOPE  H18Z19703   3.598   5.069   8.415  0.9371 -0.7563  0.1521
  174SOPE     N19704   2.804   4.822  11.077  0.1462 -0.0980  0.2517
  174SOPE   HN119705   2.783   4.723  11.105 -0.9969  0.3675  1.1099
  174SOPE   HN219706   2.898   4.847  11.113  0.0370  0.6120  0.0367
  174SOPE   HN319707   2.734   4.874  11.134 -2.8973 -2.9634 -0.6427
  174SOPE   C1219708   2.785   4.857  10.931  0.2127 -0.0356 -0.3764
  174SOPE  H12A19709   2.824   4.957  10.903 -0.7611 -0.0204 -1.6757
  174SOPE  H12B19710   2.677   4.855  10.908 -0.2054 -1.4688  1.5716
  174SOPE   C1119711   2.841   4.758  10.829  0.1918 -0.1530 -0.4396
  174SOPE  H11A19712   2.951   4.755  10.845  0.0812  1.6269  0.7608
  174SOPE  H11B19713   2.837   4.809  10.731  0.6102  0.5323 -0.1078
  174SOPE     P19714   2.859   4.495  10.807  0.5398  0.2246 -0.3313
  174SOPE   O1319715   2.780   4.376  10.848  1.0591 -0.4595  0.1270
  174SOPE   O1419716   3.000   4.510  10.860  0.1081 -0.3130 -0.4140
  174SOPE   O1219717   2.785   4.628  10.842  0.2952  0.3998 -0.3210
  174SOPE   O1119718   2.862   4.506  10.652 -0.0910  0.2994  0.3095
  174SOPE    C119719   2.939   4.595  10.572 -0.5829  0.4588 -0.2976
  174SOPE    HA19720   3.026   4.633  10.629 -0.3826 -0.9982  0.3735
  174SOPE    HB19721   2.866   4.674  10.541 -1.8611 -0.5430  0.0910
  174SOPE    C219722   3.002   4.524  10.450  0.1545 -0.1388  0.1191
  174SOPE    HS19723   3.087   4.595  10.437 -0.3643  0.3572 -0.5892
  174SOPE   O2119724   2.910   4.516  10.346  0.4783  0.1346 -0.1503
  174SOPE   C2119725   2.965   4.550  10.229  0.3562  0.0917  0.1437
  174SOPE   O2219726   3.080   4.572  10.200 -0.0946 -0.2649 -0.4007
  174SOPE   C2219727   2.844   4.570  10.129  0.4828 -0.5301  0.2768
  174SOPE   H2R19728   2.808   4.673  10.149  0.1456 -0.5927  0.0011
  174SOPE   H2S19729   2.763   4.494  10.141 -0.2501 -0.4065 -3.4550
  174SOPE    C319730   3.054   4.386  10.485  0.7424 -0.6166  0.2178
  174SOPE    HX19731   2.957   4.335  10.507  0.2722 -0.0239 -0.4602
  174SOPE    HY19732   3.104   4.378  10.583  0.4525 -0.6872  0.3610
  174SOPE   O3119733   3.112   4.306  10.377 -0.2293 -0.1929  0.1400
  174SOPE   C3119734   3.245   4.319  10.371 -0.4674 -0.4414  0.7389
  174SOPE   O3219735   3.308   4.413  10.422  0.5140  0.0647  0.1382
  174SOPE   C3219736   3.305   4.212  10.287 -0.0212  0.6057  0.0920
  174SOPE   H2X19737   3.258   4.113  10.306 -0.2177  0.5729 -0.5409
  174SOPE   H2Y19738   3.413   4.204  10.312 -0.1534 -0.7225  0.2833
  174SOPE   C2319739   2.892   4.572   9.981  0.5276  0.1571 -0.0119
  174SOPE   H3R19740   2.990   4.622   9.974 -0.5515  2.3270 -0.2004
  174SOPE   H3S19741   2.809   4.621   9.924  1.8217 -0.4182 -2.4281
  174SOPE   C2419742   2.896   4.426   9.925 -0.6600 -0.4728 -0.2202
  174SOPE   H4R19743   2.958   4.356   9.986 -0.2548 -0.3471 -0.4822
  174SOPE   H4S19744   2.790   4.393   9.921  0.2199 -3.5236 -0.0158
  174SOPE   C2519745   2.958   4.432   9.780  0.0692 -0.2783 -1.2494
  174SOPE   H5R19746   3.056   4.485   9.782  0.0898 -0.3454  0.6605
  174SOPE   H5S19747   2.977   4.325   9.756  0.0007 -0.0227 -2.4712
  174SOPE   C2619748   2.869   4.489   9.664 -0.4988 -0.4277  0.2648
  174SOPE   H6R19749   2.771   4.437   9.671 -0.8648  0.0653 -1.0111
  174SOPE   H6S19750   2.855   4.597   9.685 -1.7229 -0.0882 -2.0577
  174SOPE   C2719751   2.939   4.474   9.528  0.5035  0.2003 -0.0702
  174SOPE   H7R19752   3.028   4.540   9.520  0.2323  0.5073 -0.5783
  174SOPE   H7S19753   2.983   4.372   9.523 -2.2742 -0.9746 -1.0730
  174SOPE   C2819754   2.848   4.489   9.401 -0.3578  0.3788  0.5632
  174SOPE   H8R19755   2.871   4.420   9.317  1.5373  1.2410  0.3498
  174SOPE   H8S19756   2.749   4.458   9.441  0.5031 -1.7676  1.1385
  174SOPE   C2919757   2.833   4.637   9.377 -0.6955 -0.5579 -0.0633
  174SOPE   H9119758   2.794   4.703   9.456 -1.5105 -1.0907 -0.0145
  174SOPE  C21019759   2.878   4.702   9.267  0.1297  0.5885 -0.0483
  174SOPE  H10119760   2.863   4.811   9.261 -0.3991  0.5655  0.8886
  174SOPE  C21119761   2.941   4.635   9.144 -0.4883 -0.7442 -0.4971
  174SOPE  H11R19762   2.974   4.532   9.169  0.9342 -0.4909 -1.2924
  174SOPE  H11S19763   3.039   4.682   9.118 -0.7974  0.6504  0.7588
  174SOPE  C21219764   2.859   4.631   9.020 -0.3500  0.0443  0.3814
  174SOPE  H12R19765   2.809   4.728   9.000 -2.3786 -1.1545 -0.5674
  174SOPE  H12S19766   2.776   4.559   9.037 -0.7369  0.4103  0.0313
  174SOPE  C21319767   2.948   4.610   8.898  1.1178 -0.3115 -0.3023
  174SOPE  H13R19768   2.992   4.508   8.902 -0.7428 -1.1603 -0.9127
  174SOPE  H13S19769   3.023   4.688   8.876  0.4818  0.5849  0.6529
  174SOPE  C21419770   2.849   4.625   8.777 -0.1716 -0.8458  0.2412
  174SOPE  H14R19771   2.818   4.732   8.781  0.6598 -0.6793  2.6418
  174SOPE  H14S19772   2.760   4.559   8.785  0.9750 -2.0934  3.4586
  174SOPE  C21519773   2.924   4.609   8.646  0.0485 -0.0980  0.2751
  174SOPE  H15R19774   3.004   4.686   8.641  0.4478 -0.4378  1.3610
  174SOPE  H15S19775   2.859   4.627   8.558 -0.2047  0.3670  0.5532
  174SOPE  C21619776   2.982   4.465   8.636 -0.3945 -0.4210 -0.5716
  174SOPE  H16R19777   2.906   4.386   8.655 -0.6800 -0.3191 -1.2545
  174SOPE  H16S19778   3.058   4.447   8.714  0.8187 -3.7708 -2.4190
  174SOPE  C21719779   3.044   4.431   8.496  0.0330  0.0046  0.3119
  174SOPE  H17R19780   3.121   4.507   8.472  1.3753 -1.7813 -1.1342
  174SOPE  H17S19781   2.965   4.452   8.420  0.2690 -0.0518  0.0466
  174SOPE  C21819782   3.101   4.297   8.494 -0.4387 -0.9639  1.1017
  174SOPE  H18R19783   3.030   4.211   8.496  0.8083 -2.0935 -0.9997
  174SOPE  H18S19784   3.185   4.277   8.564  0.3275 -0.5130  0.3244
  174SOPE  H18T19785   3.156   4.300   8.398 -1.7855  0.7585  0.3631
  174SOPE   C3319786   3.278   4.226  10.137 -0.0339  0.8744  0.4674
  174SOPE   H3X19787   3.343   4.301  10.086  2.2666 -0.3834  1.4861
  174SOPE   H3Y19788   3.172   4.259  10.127 -0.5666 -0.2376  2.3231
  174SOPE   C3419789   3.282   4.094  10.070  0.3261 -0.3349 -0.6455
  174SOPE   H4X19790   3.220   4.019  10.123  2.3554 -0.8605  1.0364
  174SOPE   H4Y19791   3.389   4.066  10.079  0.0914 -0.6002  1.5418
  174SOPE   C3519792   3.242   4.091   9.923 -0.3642 -0.1485 -0.9943
  174SOPE   H5X19793   3.295   4.168   9.864  0.8588 -0.0509  0.2013
  174SOPE   H5Y19794   3.136   4.124   9.923 -0.6062 -0.6763  2.8474
  174SOPE   C3619795   3.272   3.962   9.846  0.0402 -0.3686  0.5969
  174SOPE   H6X19796   3.224   3.883   9.909  0.0179 -1.6992 -1.0588
  174SOPE   H6Y19797   3.383   3.961   9.836 -0.0359 -1.5584 -0.2130
  174SOPE   C3719798   3.220   3.970   9.696  0.2235  0.2044 -0.3220
  174SOPE   H7X19799   3.109   3.967   9.701  0.1603 -0.3299 -1.8224
  174SOPE   H7Y19800   3.259   3.879   9.645  0.1408 -0.1885  0.3003
  174SOPE   C3819801   3.261   4.093   9.621 -0.1084  0.2951 -0.2019
  174SOPE   H8X19802   3.367   4.118   9.642 -1.2295  3.0920  2.4805
  174SOPE   H8Y19803   3.196   4.177   9.655 -1.3646 -0.7374  0.0082
  174SOPE   C3919804   3.247   4.065   9.470 -0.8439  0.9282 -0.6720
  174SOPE   H9X19805   3.313   3.979   9.447 -1.1101  0.6586 -0.4233
  174SOPE   H9Y19806   3.286   4.156   9.419 -1.2045  0.8239 -1.1406
  174SOPE  C31019807   3.105   4.044   9.422  0.5502 -0.4952 -0.7985
  174SOPE  H10X19808   3.041   4.110   9.485  0.8455 -0.1247 -0.8817
  174SOPE  H10Y19809   3.071   3.943   9.453 -2.1522  0.6424  0.0814
  174SOPE  C31119810   3.098   4.080   9.271 -0.3365  0.2647  1.1997
  174SOPE  H11X19811   3.155   4.010   9.207 -1.2274  0.9651 -0.3792
  174SOPE  H11Y19812   3.153   4.176   9.256 -3.4419  1.9390 -0.0373
  174SOPE  C31219813   2.956   4.089   9.218  0.3062 -0.1551 -0.0606
  174SOPE  H12X19814   2.885   4.151   9.278  0.3552  1.2162 -1.3778
  174SOPE  H12Y19815   2.912   3.987   9.222 -0.0055 -0.0069  0.4544
  174SOPE  C31319816   2.943   4.146   9.075  0.7893  0.3113  0.3838
  174SOPE  H13X19817   3.001   4.078   9.009 -3.0025 -1.1256 -1.5854
  174SOPE  H13Y19818   2.989   4.247   9.083  1.8669  0.0152 -1.6210
  174SOPE  C31419819   2.800   4.175   9.039 -0.0084  0.0338 -0.8524
  174SOPE  H14X19820   2.746   4.238   9.113 -0.0335 -1.6289  0.5628
  174SOPE  H14Y19821   2.745   4.078   9.041 -0.6833  0.4357  0.1787
  174SOPE  C31519822   2.784   4.234   8.899 -0.9203  0.7067  0.2813
  174SOPE  H15X19823   2.811   4.154   8.826  2.5604  1.3368  0.7863
  174SOPE  H15Y19824   2.862   4.312   8.885 -0.2709  0.1183  0.5712
  174SOPE  C31619825   2.650   4.291   8.876  0.4040 -0.9811  0.2639
  174SOPE  H16X19826   2.645   4.382   8.939  1.8395 -1.7057  1.4380
  174SOPE  H16Y19827   2.576   4.218   8.914 -0.0038 -1.5010 -1.4667
  174SOPE  C31719828   2.611   4.323   8.730 -0.0548  0.3372 -0.2402
  174SOPE  H17X19829   2.623   4.232   8.668 -3.0401  2.0624 -3.5180
  174SOPE  H17Y19830   2.671   4.407   8.690  1.7864 -1.2113 -0.7858
  174SOPE  C31819831   2.464   4.371   8.733  0.6296  0.3400  0.3462
  174SOPE  H18X19832   2.462   4.471   8.781 -0.0712  2.1309 -3.2816
  174SOPE  H18Y19833   2.388   4.310   8.787  0.1419  0.6198 -0.0222
  174SOPE  H18Z19834   2.432   4.381   8.627  0.0776  2.0526  0.6676
  175SOPE     N19835   5.651   5.227  10.805  0.8206 -0.1107 -0.1264
  175SOPE   HN119836   5.558   5.218  10.759  1.4813  1.6301 -1.9417
  175SOPE   HN219837   5.727   5.198  10.740  0.6036 -2.1610  0.5299
  175SOPE   HN319838   5.656   5.175  10.894  0.9672  1.1801  0.6300
  175SOPE   C1219839   5.677   5.374  10.837 -0.1318  0.0380 -0.4428
  175SOPE  H12A19840   5.746   5.416  10.761 -2.5897  0.9816 -2.1881
  175SOPE  H12B19841   5.729   5.375  10.936  1.8978 -1.7795 -1.4429
  175SOPE   C1119842   5.544   5.465  10.836  0.4021 -0.0256  0.2695
  175SOPE  H11A19843   5.481   5.409  10.909 -0.3553 -1.2913 -1.3200
  175SOPE  H11B19844   5.504   5.463  10.732  0.3970  1.4752  0.2238
  175SOPE     P19845   5.560   5.717  10.799 -0.3514  0.0921  0.0329
  175SOPE   O1319846   5.676   5.729  10.711  0.5216  0.5871 -0.1801
  175SOPE   O1419847   5.538   5.826  10.893  0.0365 -0.2284 -0.0553
  175SOPE   O1219848   5.567   5.594  10.887  0.0118 -0.6216  0.6494
  175SOPE   O1119849   5.419   5.691  10.725  0.3206 -0.4564  0.1113
  175SOPE    C119850   5.397   5.773  10.607  0.2105  0.5544 -0.6077
  175SOPE    HA19851   5.366   5.710  10.521 -1.8233  2.0346 -0.9989
  175SOPE    HB19852   5.481   5.841  10.578 -1.1174  1.8231 -1.5974
  175SOPE    C219853   5.274   5.865  10.627 -0.3577 -0.3371 -0.5806
  175SOPE    HS19854   5.288   5.941  10.706 -3.8295 -0.4595  0.2400
  175SOPE   O2119855   5.166   5.785  10.662 -0.3372  0.6812 -0.3178
  175SOPE   C2119856   5.068   5.844  10.720  1.0724 -0.1882  0.3994
  175SOPE   O2219857   5.046   5.962  10.745 -0.6567  0.5177  0.5329
  175SOPE   C2219858   4.961   5.734  10.759  0.6616  1.3164  0.6931
  175SOPE   H2R19859   4.917   5.764  10.856 -0.0686  0.3773  0.6522
  175SOPE   H2S19860   5.022   5.641  10.760  0.0501  0.9002 -0.2819
  175SOPE    C319861   5.241   5.950  10.498 -0.6681  0.8711  0.7941
  175SOPE    HX19862   5.153   6.018  10.510  1.1231  3.2238  0.9945
  175SOPE    HY19863   5.208   5.882  10.417  0.5006 -0.1151  1.1564
  175SOPE   O3119864   5.358   6.036  10.476  0.4376 -0.3406  0.3337
  175SOPE   C3119865   5.342   6.116  10.378 -0.5213 -0.2336  0.3431
  175SOPE   O3219866   5.254   6.119  10.291  0.0123 -0.2767 -1.3993
  175SOPE   C3219867   5.468   6.209  10.373 -0.0481 -1.2062 -0.1147
  175SOPE   H2X19868   5.550   6.153  10.422  0.0091 -0.6074  0.4869
  175SOPE   H2Y19869   5.434   6.299  10.428 -0.9919 -2.1990  0.9397
  175SOPE   C2319870   4.849   5.716  10.655  0.1760 -0.2537  0.0638
  175SOPE   H3R19871   4.801   5.816  10.643 -1.2840 -1.0693 -1.2213
  175SOPE   H3S19872   4.781   5.651  10.714  0.7047  0.7085  1.7516
  175SOPE   C2419873   4.898   5.658  10.526  0.3915 -0.0149  0.3261
  175SOPE   H4R19874   5.006   5.636  10.515 -0.1601 -2.6849 -0.0505
  175SOPE   H4S19875   4.854   5.557  10.516 -1.6174  0.6854  1.7235
  175SOPE   C2519876   4.876   5.747  10.403 -0.8792 -0.4475 -0.0296
  175SOPE   H5R19877   4.770   5.739  10.371 -0.7432 -3.2074  0.0994
  175SOPE   H5S19878   4.894   5.855  10.417  1.5257 -0.7012 -1.0096
  175SOPE   C2619879   4.956   5.696  10.284 -0.3841  0.7437  0.2328
  175SOPE   H6R19880   5.067   5.689  10.284 -0.4331 -0.2775 -2.3396
  175SOPE   H6S19881   4.915   5.597  10.253 -1.8845  2.1500 -2.4636
  175SOPE   C2719882   4.927   5.779  10.157 -0.3492  0.0093  0.6131
  175SOPE   H7R19883   4.821   5.772  10.125 -0.4280 -0.8649  1.0632
  175SOPE   H7S19884   4.946   5.886  10.178  2.3812 -0.6102  1.4828
  175SOPE   C2819885   5.019   5.721  10.047 -0.1437 -0.0257  0.4473
  175SOPE   H8R19886   5.115   5.700  10.099 -0.0955 -0.0097  0.3661
  175SOPE   H8S19887   4.991   5.625   9.999  0.8492  0.3235 -0.8839
  175SOPE   C2919888   5.050   5.830   9.937  0.2286  0.0251 -0.6451
  175SOPE   H9119889   5.074   5.929   9.977  0.0540  0.1323 -0.8122
  175SOPE  C21019890   5.042   5.796   9.802  0.2435 -0.3004  0.0058
  175SOPE  H10119891   5.057   5.878   9.730 -0.4985 -0.7342 -0.6405
  175SOPE  C21119892   5.008   5.664   9.740  0.1407  0.7220 -0.5425
  175SOPE  H11R19893   4.939   5.607   9.806  1.6506 -1.7625 -1.0228
  175SOPE  H11S19894   5.095   5.596   9.725  1.6912  2.5370  0.0718
  175SOPE  C21219895   4.937   5.692   9.603 -1.1214  1.1860  0.3217
  175SOPE  H12R19896   4.917   5.587   9.569  0.9529  1.0586 -0.5386
  175SOPE  H12S19897   4.997   5.754   9.534  1.8957  4.6765  5.7602
  175SOPE  C21319898   4.806   5.775   9.614 -0.4853 -0.4340 -0.5918
  175SOPE  H13R19899   4.834   5.877   9.649  2.0709 -1.7521  1.4449
  175SOPE  H13S19900   4.751   5.728   9.698  1.3278 -0.6683  0.5043
  175SOPE  C21419901   4.721   5.773   9.490  0.1269  0.1724 -0.5480
  175SOPE  H14R19902   4.631   5.832   9.519 -0.5262 -1.7348  1.5089
  175SOPE  H14S19903   4.688   5.673   9.456 -2.6223  0.8693 -0.0330
  175SOPE  C21519904   4.790   5.844   9.365 -0.1467  0.5092  0.1582
  175SOPE  H15R19905   4.869   5.772   9.337  0.4552  0.3378  2.1740
  175SOPE  H15S19906   4.834   5.939   9.403 -2.2663  1.2640  0.8125
  175SOPE  C21619907   4.695   5.879   9.251 -1.2627  0.2978 -0.3246
  175SOPE  H16R19908   4.619   5.953   9.285 -0.8489  1.1600 -1.2490
  175SOPE  H16S19909   4.638   5.792   9.212  0.4268  0.1168 -2.4778
  175SOPE  C21719910   4.770   5.947   9.138 -0.3450 -0.1753 -0.4236
  175SOPE  H17R19911   4.878   5.921   9.145 -0.0132  1.3810  0.4699
  175SOPE  H17S19912   4.779   6.054   9.167 -3.0768 -0.1155  0.3668
  175SOPE  C21819913   4.713   5.934   8.994 -0.1696  0.5945  0.0030
  175SOPE  H18R19914   4.744   5.841   8.942  0.4126  1.4086 -1.1038
  175SOPE  H18S19915   4.761   6.008   8.928 -1.1427  0.1264 -1.2506
  175SOPE  H18T19916   4.603   5.952   8.997 -0.3061  0.1228 -1.6363
  175SOPE   C3319917   5.510   6.237  10.222  0.0623  0.0789 -0.0180
  175SOPE   H3X19918   5.421   6.287  10.178  0.2239 -0.7965 -1.3643
  175SOPE   H3Y19919   5.509   6.137  10.173  0.2030 -0.3741  0.9099
  175SOPE   C3419920   5.646   6.302  10.203  0.6031  0.9634  0.2832
  175SOPE   H4X19921   5.733   6.238  10.230 -0.3141  0.3626  1.8658
  175SOPE   H4Y19922   5.659   6.385  10.276 -0.6197  0.9413  0.5429
  175SOPE   C3519923   5.671   6.371  10.067  0.0728  0.3414 -0.6242
  175SOPE   H5X19924   5.763   6.432  10.082  1.4184 -1.5787 -0.9368
  175SOPE   H5Y19925   5.576   6.425  10.049  0.0326  0.5974  0.2971
  175SOPE   C3619926   5.697   6.265   9.959  0.8942  0.2299 -0.4120
  175SOPE   H6X19927   5.618   6.187   9.967  0.9854  0.3649  2.0823
  175SOPE   H6Y19928   5.789   6.211   9.986  0.7987  0.0847 -0.3764
  175SOPE   C3719929   5.702   6.317   9.809  0.5782 -0.0606 -0.0470
  175SOPE   H7X19930   5.790   6.381   9.788  0.4454 -1.1555 -4.3841
  175SOPE   H7Y19931   5.610   6.369   9.776 -0.7153  0.2210  3.6737
  175SOPE   C3819932   5.728   6.193   9.719 -0.4199  0.5371  0.6293
  175SOPE   H8X19933   5.652   6.112   9.724 -0.1629  0.1987 -0.6903
  175SOPE   H8Y19934   5.813   6.137   9.764  0.4800  1.9905  0.7866
  175SOPE   C3919935   5.757   6.214   9.575  0.0001  0.3972 -0.2291
  175SOPE   H9X19936   5.848   6.277   9.581 -0.3136  0.7688  0.7376
  175SOPE   H9Y19937   5.667   6.260   9.528  1.0200  3.0255  0.3158
  175SOPE  C31019938   5.790   6.076   9.501 -0.4376 -0.5150  0.6492
  175SOPE  H10X19939   5.709   6.006   9.530  0.0119 -0.9361  0.8881
  175SOPE  H10Y19940   5.876   6.042   9.563 -1.3729 -0.2433  2.1131
  175SOPE  C31119941   5.819   6.099   9.357 -0.6822 -0.5711  0.2218
  175SOPE  H11X19942   5.927   6.126   9.354 -0.8974  0.2655 -0.0313
  175SOPE  H11Y19943   5.775   6.192   9.315  2.9870  1.5863  0.9023
  175SOPE  C31219944   5.792   5.976   9.275 -0.0800 -0.2873  0.5326
  175SOPE  H12X19945   5.683   5.973   9.253  0.1178  1.5810 -0.8556
  175SOPE  H12Y19946   5.820   5.885   9.332  0.9875  0.4314  1.1811
  175SOPE  C31319947   5.866   5.990   9.136 -0.3558  0.1205  0.0949
  175SOPE  H13X19948   5.962   5.935   9.148 -1.4058 -1.6131  0.8049
  175SOPE  H13Y19949   5.887   6.098   9.124  1.9692 -0.2951  0.1324
  175SOPE  C31419950   5.789   5.932   9.021  0.1053  0.6567  0.2437
  175SOPE  H14X19951   5.694   5.988   9.008 -0.5856 -0.6399 -0.3384
  175SOPE  H14Y19952   5.751   5.831   9.044  0.4565  0.4324 -0.1547
  175SOPE  C31519953   5.879   5.915   8.894 -0.2154 -0.0397  0.7715
  175SOPE  H15X19954   5.954   5.836   8.911  1.8650  1.5775 -0.5850
  175SOPE  H15Y19955   5.935   6.011   8.885 -2.0342  1.0315  0.5502
  175SOPE  C31619956   5.806   5.868   8.767 -0.0333 -0.1559 -0.1162
  175SOPE  H16X19957   5.750   5.958   8.734  1.8333  1.8717  2.0910
  175SOPE  H16Y19958   5.721   5.798   8.775 -2.0637  2.1271 -0.9795
  175SOPE  C31719959   5.901   5.837   8.646 -0.1489 -0.9142 -0.5765
  175SOPE  H17X19960   5.958   5.743   8.663  2.3035  0.5927 -0.0789
  175SOPE  H17Y19961   5.979   5.917   8.646  1.0433 -2.0660 -1.0460
  175SOPE  C31819962   5.825   5.840   8.507 -0.2036  0.1672 -0.0350
  175SOPE  H18X19963   5.729   5.784   8.517 -1.1359  1.9295  1.1045
  175SOPE  H18Y19964   5.898   5.801   8.433  1.0294  0.7393  0.8694
  175SOPE  H18Z19965   5.804   5.944   8.475  0.5360  0.2275 -0.3192
  176SOPE     N19966   4.505   5.695  11.261 -0.4536 -0.4246  0.4736
  176SOPE   HN119967   4.580   5.737  11.319  0.4788  0.5942 -1.4169
  176SOPE   HN219968   4.475   5.612  11.316 -0.8860 -0.5317  0.0788
  176SOPE   HN319969   4.541   5.662  11.169  1.0062  0.3252  0.7613
  176SOPE   C1219970   4.390   5.790  11.243  0.0327 -0.5141 -0.4829
  176SOPE  H12A19971   4.431   5.876  11.186 -1.2407  1.2072  1.1042
  176SOPE  H12B19972   4.344   5.820  11.340 -1.7451 -0.4056 -1.3286
  176SOPE   C1119973   4.276   5.721  11.166 -0.2852  0.3443  0.7508
  176SOPE  H11A19974   4.234   5.632  11.218 -0.9276  0.8819  1.1498
  176SOPE  H11B19975   4.318   5.679  11.072  1.0794  0.9581  1.0784
  176SOPE     P19976   4.174   5.912  11.028 -0.3426  0.4365 -0.3051
  176SOPE   O1319977   4.297   5.987  11.038 -0.8995 -0.0264 -0.3976
  176SOPE   O1419978   4.045   5.975  11.020  0.2216  0.4790 -0.3544
  176SOPE   O1219979   4.167   5.808  11.146 -0.0920  0.5325 -0.3223
  176SOPE   O1119980   4.188   5.812  10.904  0.1158 -0.0106  0.5013
  176SOPE    C119981   4.093   5.707  10.871 -0.4360 -0.9563  0.2548
  176SOPE    HA19982   4.027   5.755  10.796  1.9775  2.0711 -0.0301
  176SOPE    HB19983   4.036   5.675  10.961 -0.7383  0.4670  0.5929
  176SOPE    C219984   4.155   5.582  10.804 -1.1199  0.1409  0.3066
  176SOPE    HS19985   4.221   5.538  10.881 -0.2985  3.0180  1.2859
  176SOPE   O2119986   4.232   5.624  10.691 -0.2049 -0.0920  0.1101
  176SOPE   C2119987   4.320   5.542  10.647 -0.3468 -0.0360 -0.3160
  176SOPE   O2219988   4.374   5.449  10.704 -0.4326 -0.5439 -0.2357
  176SOPE   C2219989   4.352   5.586  10.508 -0.5311 -0.4564  0.1634
  176SOPE   H2R19990   4.455   5.564  10.472 -0.4956 -1.9806  1.1762
  176SOPE   H2S19991   4.344   5.696  10.491  2.4290 -0.3982 -1.2999
  176SOPE    C319992   4.056   5.476  10.748  0.2950  0.1932 -0.0655
  176SOPE    HX19993   4.016   5.422  10.836  1.4529 -0.5002  0.0423
  176SOPE    HY19994   4.111   5.406  10.682  1.9252  1.7488 -0.4161
  176SOPE   O3119995   3.947   5.537  10.678 -0.2967 -0.1693 -0.0671
  176SOPE   C3119996   3.812   5.517  10.706 -0.5280 -0.0889 -0.6413
  176SOPE   O3219997   3.770   5.429  10.774  0.0619  0.3239 -0.0708
  176SOPE   C3219998   3.737   5.624  10.638  0.0325 -0.1570 -0.6242
  176SOPE   H2X19999   3.654   5.663  10.701  0.5980 -0.3005  0.2132
  176SOPE   H2Y20000   3.669   5.570  10.568  0.1103 -2.3575  0.9620
  176SOPE   C2320001   4.265   5.500  10.410  0.1684 -0.7145  0.1575
  176SOPE   H3R20002   4.159   5.504  10.443  0.8854  0.1233  2.5308
  176SOPE   H3S20003   4.310   5.399  10.421  0.8422 -0.7321 -2.5493
  176SOPE   C2420004   4.281   5.544  10.265 -0.1321 -0.5762 -0.0878
  176SOPE   H4R20005   4.213   5.631  10.250 -1.3492 -1.5493 -0.3395
  176SOPE   H4S20006   4.383   5.583  10.249  1.1943 -2.9319  2.1976
  176SOPE   C2520007   4.240   5.440  10.156  1.1674 -0.4564 -0.2922
  176SOPE   H5R20008   4.331   5.402  10.106  2.4312  1.3629  0.5687
  176SOPE   H5S20009   4.163   5.365  10.183 -1.0326  1.2403 -1.6968
  176SOPE   C2620010   4.171   5.508  10.038 -0.2606 -0.6320  0.0157
  176SOPE   H6R20011   4.065   5.529  10.065 -0.9643 -0.7374 -2.4801
  176SOPE   H6S20012   4.221   5.604  10.012  0.1240 -0.8563 -0.0672
  176SOPE   C2720013   4.169   5.424   9.905  0.4753  0.4906 -0.7718
  176SOPE   H7R20014   4.272   5.406   9.867  0.3358 -1.4405 -0.3084
  176SOPE   H7S20015   4.114   5.331   9.931 -2.7659  2.4946 -0.2793
  176SOPE   C2820016   4.085   5.493   9.798  0.5007 -0.3149 -0.2439
  176SOPE   H8R20017   4.124   5.594   9.772  0.7074  0.0645  1.4171
  176SOPE   H8S20018   4.094   5.439   9.702  2.1002  0.8428 -0.7537
  176SOPE   C2920019   3.932   5.496   9.829  0.0931 -0.6467 -0.1454
  176SOPE   H9120020   3.914   5.547   9.925 -1.3822  0.0422 -0.7684
  176SOPE  C21020021   3.821   5.466   9.761 -0.0213 -0.3259  0.0843
  176SOPE  H10120022   3.723   5.451   9.808 -0.1086 -2.0134 -0.5959
  176SOPE  C21120023   3.820   5.422   9.617 -0.1368 -0.1513 -0.6916
  176SOPE  H11R20024   3.756   5.332   9.610  0.5321 -0.5920 -1.2738
  176SOPE  H11S20025   3.922   5.402   9.578  0.9735 -0.5583  2.2902
  176SOPE  C21220026   3.761   5.508   9.507 -0.2342 -0.3358 -0.0989
  176SOPE  H12R20027   3.820   5.602   9.504 -0.1213 -0.2967  2.5368
  176SOPE  H12S20028   3.663   5.553   9.534  0.0328  0.1937  0.0035
  176SOPE  C21320029   3.771   5.450   9.368  0.6052 -0.5939  0.1633
  176SOPE  H13R20030   3.706   5.360   9.360 -1.0943  0.3342  2.8470
  176SOPE  H13S20031   3.871   5.418   9.333  0.9511 -1.7330  2.1358
  176SOPE  C21420032   3.706   5.550   9.263 -0.9104  0.0689 -0.3261
  176SOPE  H14R20033   3.763   5.644   9.250 -1.9653  0.7973  0.2234
  176SOPE  H14S20034   3.612   5.584   9.312  0.2340 -1.7144  3.2655
  176SOPE  C21520035   3.659   5.479   9.133 -0.1556 -0.1839  0.5124
  176SOPE  H15R20036   3.582   5.536   9.076 -1.1545 -0.1065  1.9120
  176SOPE  H15S20037   3.601   5.388   9.157 -2.8436  1.3290 -0.0901
  176SOPE  C21620038   3.778   5.442   9.032 -0.6664 -0.0568 -0.0930
  176SOPE  H16R20039   3.843   5.364   9.077  0.7142  1.0745 -0.1105
  176SOPE  H16S20040   3.837   5.531   9.004 -1.0937  0.4268  0.5353
  176SOPE  C21720041   3.716   5.393   8.903 -0.0682 -0.0150 -0.7853
  176SOPE  H17R20042   3.629   5.325   8.918  0.3046 -0.6251 -1.3363
  176SOPE  H17S20043   3.801   5.329   8.870  0.8082  0.0091  1.3486
  176SOPE  C21820044   3.689   5.501   8.794  0.3915  0.7761  0.0295
  176SOPE  H18R20045   3.650   5.447   8.705 -0.8758  1.5799  0.0857
  176SOPE  H18S20046   3.781   5.550   8.754  0.4464  1.4170  0.9162
  176SOPE  H18T20047   3.614   5.575   8.828  0.8340  1.6852 -0.9346
  176SOPE   C3320048   3.817   5.730  10.574  0.4500 -0.0277 -0.4435
  176SOPE   H3X20049   3.898   5.698  10.505 -0.1970  0.5052 -1.4749
  176SOPE   H3Y20050   3.861   5.787  10.658 -1.9373  1.6607 -0.2775
  176SOPE   C3420051   3.724   5.831  10.506  0.3960 -0.5353 -0.2385
  176SOPE   H4X20052   3.779   5.926  10.493 -0.1215  0.2130  2.6778
  176SOPE   H4Y20053   3.643   5.863  10.576 -1.9206 -2.1914 -2.0508
  176SOPE   C3520054   3.663   5.797  10.376  0.3553  0.3881  0.1511
  176SOPE   H5X20055   3.584   5.723  10.399  0.3935  0.4967  0.6353
  176SOPE   H5Y20056   3.741   5.757  10.308  0.9985  1.9458 -0.0638
  176SOPE   C3620057   3.609   5.921  10.298 -0.5572 -0.0408  0.5980
  176SOPE   H6X20058   3.693   5.992  10.280 -1.5997  0.8382 -0.8791
  176SOPE   H6Y20059   3.527   5.969  10.355  0.0836 -0.1238  1.6049
  176SOPE   C3720060   3.565   5.896  10.158 -0.0217 -0.0876 -0.1036
  176SOPE   H7X20061   3.497   5.976  10.122 -0.6036  0.0708  1.3053
  176SOPE   H7Y20062   3.501   5.806  10.167  0.1360  0.0133  2.5538
  176SOPE   C3820063   3.685   5.883  10.058 -0.5983  0.4581  0.0337
  176SOPE   H8X20064   3.772   5.832  10.104 -3.1262 -2.4980  1.7004
  176SOPE   H8Y20065   3.718   5.988  10.040  2.4265 -0.1996  1.4608
  176SOPE   C3920066   3.655   5.806   9.928 -0.3522  0.1212  0.3930
  176SOPE   H9X20067   3.609   5.709   9.954  0.7276  0.5403  4.1908
  176SOPE   H9Y20068   3.756   5.789   9.885  0.8569 -2.3805  3.9378
  176SOPE  C31020069   3.565   5.883   9.824  0.2435 -0.1702 -0.3530
  176SOPE  H10X20070   3.618   5.980   9.810 -0.4632  0.5326  1.7532
  176SOPE  H10Y20071   3.460   5.901   9.853 -0.1106 -1.2111 -0.9304
  176SOPE  C31120072   3.563   5.810   9.689  0.5843  1.1481 -0.3908
  176SOPE  H11X20073   3.500   5.718   9.690  3.4626 -0.9733  3.4590
  176SOPE  H11Y20074   3.662   5.762   9.673  0.4556  1.3648 -1.8386
  176SOPE  C31220075   3.551   5.907   9.568 -0.3610  0.1982  0.9646
  176SOPE  H12X20076   3.644   5.968   9.566 -0.0600 -0.0661  3.8991
  176SOPE  H12Y20077   3.468   5.981   9.563 -0.6137 -0.0680  1.2467
  176SOPE  C31320078   3.533   5.833   9.437 -0.1707  0.6556 -0.6344
  176SOPE  H13X20079   3.448   5.761   9.430  1.6361 -1.5209 -0.7401
  176SOPE  H13Y20080   3.627   5.778   9.412 -2.0315 -1.1477 -4.1690
  176SOPE  C31420081   3.521   5.941   9.326 -0.3587  0.0387 -0.8278
  176SOPE  H14X20082   3.626   5.976   9.313  0.7490 -2.4357  0.9841
  176SOPE  H14Y20083   3.454   6.021   9.363 -0.7577 -0.0482 -1.3716
  176SOPE  C31520084   3.476   5.874   9.201  0.3881  0.0432 -0.3046
  176SOPE  H15X20085   3.373   5.835   9.213  1.5316 -2.7796  0.7808
  176SOPE  H15Y20086   3.541   5.787   9.175 -0.9420 -0.5849 -1.5900
  176SOPE  C31620087   3.478   5.975   9.084  0.4107 -0.8368 -0.1475
  176SOPE  H16X20088   3.560   6.048   9.103 -1.5556  1.9878 -2.0811
  176SOPE  H16Y20089   3.382   6.031   9.080  0.2683 -1.0959 -0.3875
  176SOPE  C31720090   3.493   5.918   8.939  0.0030 -0.0386 -1.2476
  176SOPE  H17X20091   3.420   5.836   8.922 -1.6235  1.3385 -1.0181
  176SOPE  H17Y20092   3.591   5.865   8.941 -0.6318 -1.2564 -1.5689
  176SOPE  C31820093   3.480   6.016   8.833 -0.1242 -0.2572  0.4906
  176SOPE  H18X20094   3.558   6.095   8.840 -0.5630  0.6036 -3.3132
  176SOPE  H18Y20095   3.378   6.059   8.832  0.5677  1.4128  0.4624
  176SOPE  H18Z20096   3.497   5.958   8.740  3.5351 -0.3752  1.1453
  177SOPE     N20097   3.464   3.765  11.066 -0.1412  0.4951 -0.1573
  177SOPE   HN120098   3.443   3.687  11.001  0.2687  1.3941 -1.3915
  177SOPE   HN220099   3.384   3.758  11.133  0.7662 -0.9871  0.7847
  177SOPE   HN320100   3.451   3.855  11.015 -0.3214 -1.0162 -2.8512
  177SOPE   C1220101   3.603   3.762  11.121 -0.2143 -0.5686 -0.1093
  177SOPE  H12A20102   3.620   3.679  11.193 -4.0862 -2.0422 -0.8186
  177SOPE  H12B20103   3.618   3.860  11.173 -0.4731 -0.0161 -1.0600
  177SOPE   C1120104   3.701   3.758  11.000 -0.0992 -0.0451  0.5778
  177SOPE  H11A20105   3.801   3.749  11.048 -0.4268 -0.9861  1.0959
  177SOPE  H11B20106   3.698   3.859  10.955 -3.3464 -0.2977  0.1318
  177SOPE     P20107   3.732   3.502  10.935 -0.0997  0.1042 -0.0291
  177SOPE   O1320108   3.627   3.433  11.015 -0.2905 -0.2072 -0.3023
  177SOPE   O1420109   3.869   3.513  10.996  0.0623 -0.0974  0.2854
  177SOPE   O1220110   3.680   3.649  10.912  0.4427  0.0393  0.1163
  177SOPE   O1120111   3.741   3.435  10.789 -0.1085 -0.1363  0.0845
  177SOPE    C120112   3.640   3.488  10.696  0.4794  0.0100  0.1478
  177SOPE    HA20113   3.667   3.593  10.671  0.1823 -0.2090 -1.1067
  177SOPE    HB20114   3.537   3.483  10.737 -0.8012  0.1981 -2.9690
  177SOPE    C220115   3.627   3.401  10.563  0.3670 -0.1378  0.1260
  177SOPE    HS20116   3.694   3.313  10.578 -2.6730 -2.5253  0.3540
  177SOPE   O2120117   3.657   3.481  10.448 -0.3570  0.0385  0.0373
  177SOPE   C2120118   3.783   3.492  10.412  0.2851  0.5601  0.2140
  177SOPE   O2220119   3.882   3.454  10.472  0.2047 -0.3560  0.0103
  177SOPE   C2220120   3.786   3.563  10.277 -0.9647  0.5524  0.8834
  177SOPE   H2R20121   3.745   3.664  10.300 -3.3077 -0.1110 -0.2058
  177SOPE   H2S20122   3.724   3.513  10.200  0.4621  0.2101 -0.0634
  177SOPE    C320123   3.483   3.341  10.549 -0.1189 -0.0570 -0.0666
  177SOPE    HX20124   3.397   3.410  10.531  1.1788  1.3110 -1.1244
  177SOPE    HY20125   3.475   3.286  10.646 -1.5665 -0.4490 -0.3900
  177SOPE   O3120126   3.486   3.244  10.444 -0.5873  0.0111 -0.6971
  177SOPE   C3120127   3.371   3.200  10.409 -0.0465  0.0262  0.7932
  177SOPE   O3220128   3.269   3.205  10.475  0.0310 -0.0316  0.2170
  177SOPE   C3220129   3.399   3.113  10.276  0.0876  0.4645 -0.5020
  177SOPE   H2X20130   3.388   3.007  10.306  1.1499  0.1890 -1.0712
  177SOPE   H2Y20131   3.499   3.150  10.246  0.3359  2.0939  2.0976
  177SOPE   C2320132   3.933   3.563  10.214  0.3494 -0.7229 -0.2609
  177SOPE   H3R20133   3.962   3.459  10.190 -0.7441 -0.8857 -0.9115
  177SOPE   H3S20134   4.012   3.578  10.290  0.2266 -0.9880 -0.0813
  177SOPE   C2420135   3.952   3.661  10.089  0.1557 -0.4549  0.2053
  177SOPE   H4R20136   3.938   3.764  10.127  1.7360 -0.9084  2.1377
  177SOPE   H4S20137   4.051   3.645  10.041  1.6366  3.3581  1.7459
  177SOPE   C2520138   3.855   3.616   9.977 -0.3510  0.3082  1.2584
  177SOPE   H5R20139   3.875   3.509   9.953  1.1715  0.6858  0.7645
  177SOPE   H5S20140   3.756   3.636  10.022 -1.7393  0.1122 -1.6122
  177SOPE   C2620141   3.878   3.701   9.850 -0.3836 -0.2838  0.1096
  177SOPE   H6R20142   3.869   3.807   9.883 -2.6952  0.1861 -1.9279
  177SOPE   H6S20143   3.984   3.693   9.818  0.6145 -0.5357  3.2448
  177SOPE   C2720144   3.769   3.680   9.727  0.0734  0.9703 -0.4509
  177SOPE   H7R20145   3.773   3.576   9.688 -0.5245  1.0117 -0.6276
  177SOPE   H7S20146   3.670   3.700   9.772  0.0703 -1.8497  0.9404
  177SOPE   C2820147   3.774   3.788   9.620  0.3248  0.1642 -0.4809
  177SOPE   H8R20148   3.672   3.799   9.577 -0.3766 -1.0382  0.8331
  177SOPE   H8S20149   3.793   3.886   9.669 -0.9544 -0.0748  0.5183
  177SOPE   C2920150   3.878   3.752   9.516 -0.6876 -0.4048  0.0032
  177SOPE   H9120151   3.980   3.760   9.556 -0.8622  0.9259  0.2230
  177SOPE  C21020152   3.847   3.712   9.392  0.6669  0.0682  0.0536
  177SOPE  H10120153   3.932   3.717   9.323 -1.4950 -0.1793 -2.7140
  177SOPE  C21120154   3.707   3.693   9.329 -1.0071 -0.1862 -0.0628
  177SOPE  H11R20155   3.624   3.669   9.398  0.4228  0.6692  2.0315
  177SOPE  H11S20156   3.721   3.606   9.261  1.0353  1.0957 -1.3461
  177SOPE  C21220157   3.666   3.806   9.229 -0.4898 -0.1274  0.1211
  177SOPE  H12R20158   3.743   3.812   9.149  0.0533 -1.6360  0.4960
  177SOPE  H12S20159   3.669   3.903   9.283 -0.5727  0.3613 -0.7510
  177SOPE  C21320160   3.533   3.770   9.164  0.3482 -0.5658  0.4089
  177SOPE  H13R20161   3.448   3.750   9.233  1.1921  0.2431  1.7290
  177SOPE  H13S20162   3.548   3.671   9.115  2.1872  0.1338 -0.5079
  177SOPE  C21420163   3.496   3.880   9.062  0.1243  0.2097  0.7977
  177SOPE  H14R20164   3.519   3.982   9.099 -1.6952  0.0173  2.5421
  177SOPE  H14S20165   3.391   3.853   9.038  0.1701 -0.3168  1.1869
  177SOPE  C21520166   3.563   3.858   8.922  0.2635 -0.3430  0.0469
  177SOPE  H15R20167   3.671   3.870   8.942  0.7068 -1.9490 -1.2781
  177SOPE  H15S20168   3.544   3.939   8.848 -1.2397 -1.0996 -0.4193
  177SOPE  C21620169   3.522   3.732   8.840 -0.6610 -0.1450  0.0911
  177SOPE  H16R20170   3.415   3.729   8.811 -0.1558 -0.0974 -1.8250
  177SOPE  H16S20171   3.541   3.644   8.904 -0.0814  0.9231  1.4231
  177SOPE  C21720172   3.608   3.730   8.708  0.1260  0.0023 -0.7727
  177SOPE  H17R20173   3.715   3.751   8.729 -0.5094 -0.3561  3.1499
  177SOPE  H17S20174   3.583   3.818   8.644  0.4777  0.8815  0.2861
  177SOPE  C21820175   3.605   3.603   8.629 -0.0543 -0.0446 -0.0337
  177SOPE  H18R20176   3.609   3.520   8.703  3.7781 -0.6383 -0.8144
  177SOPE  H18S20177   3.690   3.602   8.557 -0.6010  1.4593 -0.7126
  177SOPE  H18T20178   3.511   3.607   8.571 -0.3478 -0.3360  0.4153
  177SOPE   C3320179   3.299   3.145  10.168  0.5216  0.1737 -0.0264
  177SOPE   H3X20180   3.293   3.256  10.161 -2.0158  0.0272 -0.4658
  177SOPE   H3Y20181   3.197   3.104  10.177  1.3548 -2.0738 -0.5318
  177SOPE   C3420182   3.353   3.093  10.038  0.4778 -0.0408 -0.9075
  177SOPE   H4X20183   3.400   2.996  10.064  1.2658  0.8939  1.3802
  177SOPE   H4Y20184   3.441   3.154  10.008  1.5650 -0.7615  0.7533
  177SOPE   C3520185   3.264   3.102   9.911  0.0269 -0.2839  0.0171
  177SOPE   H5X20186   3.239   3.210   9.903 -3.0028 -0.8598  1.1207
  177SOPE   H5Y20187   3.167   3.047   9.917  0.0308 -0.0392  2.5189
  177SOPE   C3620188   3.331   3.054   9.777  0.2048 -0.4342  0.0495
  177SOPE   H6X20189   3.331   2.943   9.780  0.1565 -0.4539 -0.6110
  177SOPE   H6Y20190   3.439   3.082   9.781 -0.0294  0.2689  2.1178
  177SOPE   C3720191   3.260   3.102   9.652  0.8698 -0.5516  0.2474
  177SOPE   H7X20192   3.265   3.212   9.664  3.6320 -0.6226  0.1473
  177SOPE   H7Y20193   3.153   3.078   9.669  0.6063  1.2746  1.2727
  177SOPE   C3820194   3.305   3.043   9.518 -0.2986  0.5015  0.0722
  177SOPE   H8X20195   3.267   2.939   9.518  1.0589  0.0063  0.0420
  177SOPE   H8Y20196   3.415   3.041   9.506 -0.6530 -0.9096 -3.3456
  177SOPE   C3920197   3.230   3.118   9.399 -0.4720 -0.3981 -0.0794
  177SOPE   H9X20198   3.265   3.223   9.396 -2.1052  0.1418 -0.8755
  177SOPE   H9Y20199   3.123   3.109   9.428 -0.4161 -2.4288 -0.4059
  177SOPE  C31020200   3.272   3.067   9.260 -0.1693  0.0733  0.4273
  177SOPE  H10X20201   3.259   2.958   9.244  0.5856  0.1015 -0.3496
  177SOPE  H10Y20202   3.381   3.084   9.250 -0.0326 -0.7856  0.4613
  177SOPE  C31120203   3.197   3.138   9.144  0.7388 -0.2519 -0.2291
  177SOPE  H11X20204   3.190   3.244   9.175  0.8965 -0.1934 -0.3968
  177SOPE  H11Y20205   3.095   3.099   9.125  1.0118  0.6425 -3.7803
  177SOPE  C31220206   3.282   3.141   9.012  0.6215 -1.0132  0.4032
  177SOPE  H12X20207   3.312   3.034   9.005  1.4387 -0.6865 -1.3371
  177SOPE  H12Y20208   3.380   3.192   9.010  0.6242 -1.0111  0.5815
  177SOPE  C31320209   3.200   3.190   8.887  0.4116  0.3451  0.7271
  177SOPE  H13X20210   3.150   3.283   8.918 -0.1511  0.2192  0.1963
  177SOPE  H13Y20211   3.131   3.111   8.852  1.0852 -1.5656  3.5128
  177SOPE  C31420212   3.297   3.210   8.768 -0.6632  0.1178  0.0187
  177SOPE  H14X20213   3.336   3.115   8.725  2.6754  1.1834  0.4875
  177SOPE  H14Y20214   3.375   3.272   8.818 -1.3366 -1.3794  3.0109
  177SOPE  C31520215   3.233   3.277   8.653 -0.4913 -0.0046  0.6693
  177SOPE  H15X20216   3.188   3.377   8.672 -0.1587  0.4684 -0.9034
  177SOPE  H15Y20217   3.163   3.211   8.598  1.7983 -2.1180  0.1808
  177SOPE  C31620218   3.351   3.304   8.551  0.4918 -0.6324  0.1360
  177SOPE  H16X20219   3.441   3.348   8.597 -0.3246  1.6057 -0.3637
  177SOPE  H16Y20220   3.309   3.375   8.477 -3.2893 -2.3955  0.4595
  177SOPE  C31720221   3.390   3.177   8.472  0.2425  0.7385  0.8902
  177SOPE  H17X20222   3.301   3.127   8.429  1.1265 -1.9973  2.1754
  177SOPE  H17Y20223   3.432   3.100   8.539 -1.5293 -1.2025 -0.1865
  177SOPE  C31820224   3.490   3.195   8.358 -0.0829  0.1860  0.4000
  177SOPE  H18X20225   3.586   3.246   8.383 -0.6726  1.4133  0.2328
  177SOPE  H18Y20226   3.446   3.259   8.278 -1.2875 -0.4111  0.5636
  177SOPE  H18Z20227   3.513   3.097   8.311 -2.2064 -0.0286 -0.2581
  178SOPE     N20228   1.597   2.334  10.852 -0.3336  0.1656 -0.2933
  178SOPE   HN120229   1.592   2.430  10.814  0.4983  0.1753 -0.3862
  178SOPE   HN220230   1.502   2.313  10.889 -0.7398  0.7908 -0.9927
  178SOPE   HN320231   1.676   2.317  10.918  1.6417  0.5162 -2.5146
  178SOPE   C1220232   1.607   2.239  10.737 -0.1064 -0.4045  0.1604
  178SOPE  H12A20233   1.710   2.259  10.700  0.0005 -2.4202 -0.6546
  178SOPE  H12B20234   1.544   2.276  10.653  0.6993  1.6490  0.4256
  178SOPE   C1120235   1.589   2.098  10.779  0.4395  0.0984 -0.2080
  178SOPE  H11A20236   1.641   2.089  10.877  0.6369 -1.1121 -0.4149
  178SOPE  H11B20237   1.626   2.025  10.704 -3.3803 -0.6535 -1.4615
  178SOPE     P20238   1.348   2.013  10.694  0.1194  0.3935  0.1994
  178SOPE   O1320239   1.254   2.126  10.671  0.0938 -0.4041 -0.3160
  178SOPE   O1420240   1.287   1.898  10.760 -0.1633  0.2303 -0.1377
  178SOPE   O1220241   1.451   2.065  10.804 -0.8366  0.2448 -0.2639
  178SOPE   O1120242   1.437   1.977  10.565 -0.2143  0.3684 -0.0050
  178SOPE    C120243   1.416   2.057  10.446 -0.1159 -0.1440 -0.6541
  178SOPE    HA20244   1.514   2.075  10.396  0.7307  2.4556  1.7870
  178SOPE    HB20245   1.376   2.160  10.462  4.0869  1.5895 -0.5481
  178SOPE    C220246   1.351   1.967  10.337 -1.0396 -1.0680 -0.2815
  178SOPE    HS20247   1.251   1.939  10.378 -1.6897  2.7795  1.0212
  178SOPE   O2120248   1.440   1.851  10.319  0.2668 -0.4495 -0.0530
  178SOPE   C2120249   1.396   1.748  10.255 -0.0791  0.5150 -0.5178
  178SOPE   O2220250   1.279   1.729  10.227 -0.3360 -0.3912  0.5812
  178SOPE   C2220251   1.515   1.673  10.222 -0.3779 -0.2108 -0.3839
  178SOPE   H2R20252   1.563   1.638  10.316  0.0151 -2.4726 -1.4168
  178SOPE   H2S20253   1.578   1.742  10.161 -0.6143 -0.4251 -0.8731
  178SOPE    C320254   1.340   2.053  10.205 -0.3476  0.7627 -0.0148
  178SOPE    HX20255   1.443   2.090  10.184  0.3656 -1.3570 -0.3412
  178SOPE    HY20256   1.286   2.148  10.226 -1.7075 -0.2557  1.2383
  178SOPE   O3120257   1.290   1.982  10.094 -0.7061  0.4137 -0.1824
  178SOPE   C3120258   1.169   1.950  10.098  0.3646  0.1237 -0.3671
  178SOPE   O3220259   1.092   1.967  10.192  0.2153  0.0055  0.2274
  178SOPE   C3220260   1.126   1.892   9.960  0.0298 -0.3434  0.1346
  178SOPE   H2X20261   1.020   1.917   9.942  0.1191 -1.8530 -2.8961
  178SOPE   H2Y20262   1.140   1.782   9.955  0.2382 -0.2970 -0.4651
  178SOPE   C2320263   1.480   1.546  10.132  0.1628  0.4325  0.2055
  178SOPE   H3R20264   1.409   1.478  10.184  0.4773 -0.5603 -0.6721
  178SOPE   H3S20265   1.575   1.491  10.116 -0.0478  0.5871 -1.6463
  178SOPE   C2420266   1.419   1.584   9.995  0.5036  0.1179  0.0422
  178SOPE   H4R20267   1.327   1.646   9.998 -1.0745 -2.2240  1.1220
  178SOPE   H4S20268   1.491   1.655   9.948 -1.7438  1.9342 -0.7103
  178SOPE   C2520269   1.407   1.468   9.901 -0.6795  0.5297 -0.5491
  178SOPE   H5R20270   1.507   1.422   9.888  0.2942  1.9031  1.7148
  178SOPE   H5S20271   1.341   1.389   9.943  0.1982 -0.2685 -0.6289
  178SOPE   C2620272   1.366   1.515   9.766  0.8985  0.0984 -0.1726
  178SOPE   H6R20273   1.351   1.422   9.706 -0.6738 -0.1157  0.5189
  178SOPE   H6S20274   1.272   1.574   9.764  0.4508 -0.6321 -1.9645
  178SOPE   C2720275   1.484   1.571   9.686 -0.3106 -0.3473  0.3269
  178SOPE   H7R20276   1.509   1.670   9.730  0.9657 -1.5374  2.3393
  178SOPE   H7S20277   1.575   1.507   9.687 -0.7251 -0.9779 -0.8384
  178SOPE   C2820278   1.444   1.600   9.539 -0.4941  0.8424 -0.0240
  178SOPE   H8R20279   1.345   1.649   9.547 -0.8195  0.1928 -0.0360
  178SOPE   H8S20280   1.528   1.662   9.500  2.4951 -1.7164  2.0650
  178SOPE   C2920281   1.427   1.481   9.451 -0.7625  0.0874  0.1738
  178SOPE   H9120282   1.373   1.395   9.494  0.1769 -0.5991 -0.0237
  178SOPE  C21020283   1.476   1.465   9.322 -0.2894 -0.0498 -0.6969
  178SOPE  H10120284   1.461   1.366   9.276 -0.4213  0.3591 -1.5480
  178SOPE  C21120285   1.544   1.576   9.244  0.6115  0.2519  0.5297
  178SOPE  H11R20286   1.614   1.634   9.308 -0.6691  2.1015  0.2837
  178SOPE  H11S20287   1.469   1.650   9.208  0.1003 -0.3238  0.4066
  178SOPE  C21220288   1.619   1.522   9.122 -0.0537 -0.2111 -0.4406
  178SOPE  H12R20289   1.712   1.465   9.142 -0.4595 -1.4690 -2.0964
  178SOPE  H12S20290   1.660   1.612   9.071 -0.4360  0.0021 -0.3814
  178SOPE  C21320291   1.535   1.452   9.018 -0.0907  0.7911 -0.8188
  178SOPE  H13R20292   1.452   1.523   9.000  0.6546  1.6300 -0.9260
  178SOPE  H13S20293   1.498   1.354   9.058  1.1904  1.1994  1.4491
  178SOPE  C21420294   1.593   1.448   8.877 -0.8032  0.4143 -0.1765
  178SOPE  H14R20295   1.689   1.393   8.881 -0.1181  1.5822 -0.2015
  178SOPE  H14S20296   1.624   1.552   8.852 -0.2204  0.6192  1.3045
  178SOPE  C21520297   1.498   1.401   8.766 -0.0419 -0.3372 -0.6534
  178SOPE  H15R20298   1.409   1.465   8.746 -0.3833 -1.0248 -1.3526
  178SOPE  H15S20299   1.473   1.295   8.787 -1.4311 -0.3165 -2.0478
  178SOPE  C21620300   1.561   1.407   8.629 -0.1917  0.0469  0.5570
  178SOPE  H16R20301   1.568   1.515   8.605  0.9108 -0.0770  0.2973
  178SOPE  H16S20302   1.491   1.352   8.562 -2.1689  1.6747  1.2032
  178SOPE  C21720303   1.701   1.345   8.615 -0.0457  0.5502  0.0593
  178SOPE  H17R20304   1.704   1.250   8.673  1.1200  0.5565  0.0037
  178SOPE  H17S20305   1.775   1.413   8.661  1.6668 -0.1700 -1.5978
  178SOPE  C21820306   1.735   1.324   8.467  0.0369  0.9181 -0.7827
  178SOPE  H18R20307   1.831   1.268   8.465  0.4435  1.6328 -1.4793
  178SOPE  H18S20308   1.752   1.421   8.415  0.0109  2.3600  1.8151
  178SOPE  H18T20309   1.658   1.269   8.409 -0.4045  1.0523 -0.3284
  178SOPE   C3320310   1.197   1.942   9.834  0.3492  0.1104 -0.2380
  178SOPE   H3X20311   1.305   1.914   9.838 -0.2637 -2.4957 -1.4298
  178SOPE   H3Y20312   1.188   2.053   9.828 -1.6470  0.0348  1.0022
  178SOPE   C3420313   1.149   1.885   9.697  0.1092  0.4540 -0.2154
  178SOPE   H4X20314   1.050   1.921   9.662 -0.9758 -1.2602  1.0322
  178SOPE   H4Y20315   1.136   1.775   9.695 -1.8477  0.6798 -1.6336
  178SOPE   C3520316   1.245   1.929   9.580  0.0636 -0.3447  0.0545
  178SOPE   H5X20317   1.342   1.875   9.589  0.2404  0.1502  1.2198
  178SOPE   H5Y20318   1.268   2.035   9.601  0.0030 -0.4516  0.6548
  178SOPE   C3620319   1.178   1.912   9.438 -0.2851 -0.1605  0.0517
  178SOPE   H6X20320   1.071   1.944   9.435 -0.6678 -1.5147 -1.2128
  178SOPE   H6Y20321   1.176   1.802   9.424 -1.5323  0.1017 -2.1072
  178SOPE   C3720322   1.250   1.961   9.315  0.2692  0.0279 -0.5712
  178SOPE   H7X20323   1.356   1.925   9.319  0.0882 -0.3186  1.1827
  178SOPE   H7Y20324   1.248   2.072   9.308 -1.8383  0.0688  0.5683
  178SOPE   C3820325   1.193   1.902   9.182 -0.3625  0.1374  0.1861
  178SOPE   H8X20326   1.093   1.947   9.162  0.7386  2.8282  0.5442
  178SOPE   H8Y20327   1.186   1.791   9.195  0.0515 -0.0076 -0.7806
  178SOPE   C3920328   1.286   1.944   9.061 -0.1048  0.7293 -0.1129
  178SOPE   H9X20329   1.371   1.873   9.065 -0.1363  0.6054 -1.4641
  178SOPE   H9Y20330   1.327   2.044   9.088 -0.8450  1.4198 -1.4807
  178SOPE  C31020331   1.213   1.931   8.929  0.8341  0.0428 -0.0620
  178SOPE  H10X20332   1.124   1.996   8.916  0.1832 -0.9588 -0.6321
  178SOPE  H10Y20333   1.171   1.828   8.928 -1.6516  0.9330  3.8124
  178SOPE  C31120334   1.308   1.948   8.813  0.5766 -0.6960  0.1695
  178SOPE  H11X20335   1.273   1.890   8.725  0.5637 -0.0644 -0.2494
  178SOPE  H11Y20336   1.407   1.906   8.842  1.0873  0.0027 -0.5406
  178SOPE  C31220337   1.327   2.095   8.782 -0.5867 -0.7454  0.0753
  178SOPE  H12X20338   1.345   2.152   8.875  0.5685 -1.3049  0.2113
  178SOPE  H12Y20339   1.233   2.132   8.734  0.0827  1.4298  0.4032
  178SOPE  C31320340   1.447   2.126   8.693 -0.4683 -0.2936  0.4835
  178SOPE  H13X20341   1.433   2.066   8.601 -1.9261 -0.6836  0.9537
  178SOPE  H13Y20342   1.526   2.096   8.765 -0.1754  0.6797  0.5859
  178SOPE  C31420343   1.470   2.277   8.647 -0.1266  0.3442 -0.4255
  178SOPE  H14X20344   1.574   2.285   8.607  0.4486 -2.1936  0.4551
  178SOPE  H14Y20345   1.478   2.349   8.731  0.2051  0.5029 -0.5855
  178SOPE  C31520346   1.372   2.326   8.542 -0.0808 -0.1880  0.5407
  178SOPE  H15X20347   1.271   2.292   8.574 -0.4471 -0.3678 -0.7664
  178SOPE  H15Y20348   1.415   2.280   8.450 -0.6778  1.4124 -0.5661
  178SOPE  C31620349   1.371   2.481   8.521 -0.1156  0.2169  0.5137
  178SOPE  H16X20350   1.341   2.519   8.621  1.3764  1.3799  0.5417
  178SOPE  H16Y20351   1.290   2.502   8.448  0.1444 -0.2753  0.0730
  178SOPE  C31720352   1.515   2.536   8.482  0.9747 -0.0164  0.2067
  178SOPE  H17X20353   1.557   2.483   8.394 -1.4829 -2.0807  0.2208
  178SOPE  H17Y20354   1.588   2.523   8.565  2.3929 -2.9540 -1.3914
  178SOPE  C31820355   1.506   2.688   8.461 -0.5999  0.0768  0.3295
  178SOPE  H18X20356   1.608   2.732   8.473 -0.5816 -0.1064  0.8695
  178SOPE  H18Y20357   1.440   2.731   8.539 -1.6080 -2.6273  1.0226
  178SOPE  H18Z20358   1.468   2.719   8.361  0.2474  1.0093  0.2933
  179SOPE     N20359   6.673   2.390   6.516  0.1326  0.1126  0.3867
  179SOPE   HN120360   6.707   2.339   6.600 -0.0695  0.4310  0.6635
  179SOPE   HN220361   6.661   2.311   6.450 -0.1836  1.2615 -0.9634
  179SOPE   HN320362   6.749   2.453   6.482  0.0280 -0.1187 -0.2746
  179SOPE   C1220363   6.543   2.465   6.551  0.4630  0.2572 -0.4519
  179SOPE  H12A20364   6.467   2.383   6.556 -0.5544  1.3092  2.0227
  179SOPE  H12B20365   6.524   2.521   6.457  0.1957 -0.2868 -0.7273
  179SOPE   C1120366   6.568   2.552   6.675  0.2414  0.4037 -0.0688
  179SOPE  H11A20367   6.655   2.621   6.669 -0.7351  1.5596 -1.1388
  179SOPE  H11B20368   6.592   2.478   6.754  0.8136 -1.5273 -1.9751
  179SOPE     P20369   6.415   2.764   6.640  0.4062  0.2334  0.4920
  179SOPE   O1320370   6.281   2.804   6.685  0.5219  0.0643  0.3496
  179SOPE   O1420371   6.440   2.767   6.496  0.5901  0.2963  0.0792
  179SOPE   O1220372   6.447   2.622   6.693  0.2627  0.1390 -0.4414
  179SOPE   O1120373   6.519   2.850   6.717 -0.0957 -0.2830 -0.0238
  179SOPE    C120374   6.523   2.852   6.862  0.1123 -0.1088  0.4513
  179SOPE    HA20375   6.618   2.812   6.904 -1.0971 -1.7599  1.6809
  179SOPE    HB20376   6.442   2.790   6.905 -0.4303 -1.5043 -2.4465
  179SOPE    C220377   6.507   2.987   6.918 -0.7206 -0.5621 -0.1323
  179SOPE    HS20378   6.591   3.047   6.878 -1.5957  0.7921  0.0134
  179SOPE   O2120379   6.512   2.989   7.060  0.1629 -0.2517  0.0996
  179SOPE   C2120380   6.634   2.991   7.111 -0.2639  0.1433 -0.2571
  179SOPE   O2220381   6.738   2.984   7.047 -0.7058  0.4457 -0.7433
  179SOPE   C2220382   6.623   3.006   7.262 -0.4544  0.5280 -0.2350
  179SOPE   H2R20383   6.544   2.935   7.296 -0.2521  0.0328 -0.7977
  179SOPE   H2S20384   6.578   3.101   7.299  0.2600  1.0314 -0.6384
  179SOPE    C320385   6.373   3.050   6.859  0.7779  0.2747 -0.4587
  179SOPE    HX20386   6.289   2.995   6.906 -0.2474  1.6943 -0.6079
  179SOPE    HY20387   6.361   3.038   6.749 -1.5032  1.0231 -0.3119
  179SOPE   O3120388   6.364   3.189   6.900  0.3564 -0.0665 -0.0843
  179SOPE   C3120389   6.431   3.283   6.841 -0.0499 -0.6517  0.0375
  179SOPE   O3220390   6.492   3.279   6.738 -0.1198 -0.1102 -0.3252
  179SOPE   C3220391   6.398   3.411   6.918 -0.9220 -1.1726  0.0967
  179SOPE   H2X20392   6.330   3.403   7.005 -1.5540  2.6157  0.0419
  179SOPE   H2Y20393   6.343   3.471   6.842 -1.3459 -2.1812 -0.4087
  179SOPE   C2320394   6.752   2.973   7.331  0.3837 -0.0744  0.2802
  179SOPE   H3R20395   6.836   3.046   7.326  0.8384 -0.6910 -1.1049
  179SOPE   H3S20396   6.801   2.885   7.283  0.5266 -0.7414  1.6198
  179SOPE   C2420397   6.727   2.944   7.480  0.3417 -0.1726  0.6596
  179SOPE   H4R20398   6.699   3.037   7.533  0.7510 -0.9590  2.3004
  179SOPE   H4S20399   6.641   2.875   7.490  0.3247 -0.4847 -1.3923
  179SOPE   C2520400   6.836   2.870   7.557 -0.1788 -0.5561 -0.2422
  179SOPE   H5R20401   6.838   2.765   7.520 -0.5290 -0.8102  0.4525
  179SOPE   H5S20402   6.934   2.922   7.552 -0.2422 -0.5123 -1.0559
  179SOPE   C2620403   6.808   2.867   7.711 -0.0155 -0.6308  0.5628
  179SOPE   H6R20404   6.861   2.951   7.759 -1.9575  0.5907  0.6260
  179SOPE   H6S20405   6.699   2.865   7.734 -0.3098  0.1557 -0.7196
  179SOPE   C2720406   6.869   2.739   7.773  0.6007  0.8275 -0.6217
  179SOPE   H7R20407   6.794   2.663   7.743  1.1745 -0.0385  0.1018
  179SOPE   H7S20408   6.974   2.734   7.736  1.0832 -1.1149  0.9433
  179SOPE   C2820409   6.880   2.745   7.922  0.2027 -0.3033 -0.0140
  179SOPE   H8R20410   6.952   2.667   7.955  3.1583  1.7622 -1.3663
  179SOPE   H8S20411   6.932   2.840   7.945 -2.2150  1.4583 -1.6437
  179SOPE   C2920412   6.747   2.725   7.991  0.4351  0.5847 -0.1676
  179SOPE   H9120413   6.710   2.823   8.025 -0.2862  0.4787 -0.6242
  179SOPE  C21020414   6.687   2.616   8.038  0.2419  0.1773 -0.6974
  179SOPE  H10120415   6.588   2.620   8.087 -0.0960  1.8694 -1.4666
  179SOPE  C21120416   6.725   2.477   8.012  0.3521  0.4469 -0.4612
  179SOPE  H11R20417   6.827   2.476   7.969  1.2906 -0.0153  1.7425
  179SOPE  H11S20418   6.660   2.428   7.936  1.1162  0.9942 -1.4863
  179SOPE  C21220419   6.735   2.388   8.141 -0.0618 -0.8108 -0.7490
  179SOPE  H12R20420   6.810   2.430   8.211 -0.8935 -1.1121  0.3458
  179SOPE  H12S20421   6.751   2.288   8.097 -2.4152 -1.7083  0.3035
  179SOPE  C21320422   6.598   2.382   8.214  0.2294 -0.2212  0.1818
  179SOPE  H13R20423   6.524   2.336   8.145  0.2800 -2.4459  1.5606
  179SOPE  H13S20424   6.575   2.488   8.239 -0.5387  0.2897 -2.5060
  179SOPE  C21420425   6.598   2.293   8.341  0.2638  0.2150 -0.3942
  179SOPE  H14R20426   6.640   2.355   8.422  1.0168  0.0677 -0.6633
  179SOPE  H14S20427   6.680   2.218   8.341 -0.5402 -0.6855 -0.3145
  179SOPE  C21520428   6.458   2.225   8.381  0.9928 -0.3635  0.2988
  179SOPE  H15R20429   6.378   2.301   8.396  1.6616  0.5184 -0.5373
  179SOPE  H15S20430   6.468   2.157   8.468 -0.4183 -0.2318  0.5814
  179SOPE  C21620431   6.417   2.131   8.266 -0.2689  0.0404 -0.0493
  179SOPE  H16R20432   6.499   2.060   8.241  1.4140  1.8969  0.0892
  179SOPE  H16S20433   6.401   2.184   8.170  0.7402  1.2707  0.4633
  179SOPE  C21720434   6.305   2.034   8.311  0.5819  0.7202 -0.0405
  179SOPE  H17R20435   6.225   2.094   8.359  0.4851  3.1619 -3.1143
  179SOPE  H17S20436   6.344   1.962   8.387  0.5491  0.6756 -0.0661
  179SOPE  C21820437   6.243   1.940   8.203 -0.3403  0.0678  0.1000
  179SOPE  H18R20438   6.322   1.893   8.140 -0.3555 -0.8566  0.7545
  179SOPE  H18S20439   6.192   2.013   8.137  0.7124  1.3399  0.6645
  179SOPE  H18T20440   6.166   1.871   8.244  0.2512 -0.1822  0.8101
  179SOPE   C3320441   6.528   3.490   6.953 -0.9332 -0.4782 -0.0590
  179SOPE   H3X20442   6.506   3.595   6.983  1.5061 -0.4201  1.6669
  179SOPE   H3Y20443   6.601   3.499   6.870 -1.9814  2.0731 -0.7750
  179SOPE   C3420444   6.591   3.425   7.079  0.0438  0.2896 -0.6503
  179SOPE   H4X20445   6.602   3.315   7.080  0.1754  0.3080  0.4815
  179SOPE   H4Y20446   6.524   3.450   7.164 -0.9744 -1.2222 -0.9875
  179SOPE   C3520447   6.727   3.486   7.107 -0.4869 -0.0310 -1.0188
  179SOPE   H5X20448   6.709   3.595   7.118  1.6965  0.4516 -1.8107
  179SOPE   H5Y20449   6.805   3.478   7.028 -0.5722  0.7867 -1.1867
  179SOPE   C3620450   6.800   3.441   7.237  0.3528 -0.3633 -0.0815
  179SOPE   H6X20451   6.905   3.477   7.245  0.4091  0.7068 -4.1832
  179SOPE   H6Y20452   6.813   3.332   7.219  0.6050 -0.0672 -1.7952
  179SOPE   C3720453   6.719   3.452   7.364 -1.0417  0.5127  0.9435
  179SOPE   H7X20454   6.623   3.396   7.363 -0.7243 -0.0837 -2.3520
  179SOPE   H7Y20455   6.714   3.557   7.401 -0.2693  1.0172 -0.3237
  179SOPE   C3820456   6.801   3.396   7.483  0.7279 -0.9258  0.3809
  179SOPE   H8X20457   6.901   3.443   7.487  0.2920  0.0124  0.4946
  179SOPE   H8Y20458   6.810   3.289   7.458  1.9148 -0.6180 -0.5359
  179SOPE   C3920459   6.733   3.404   7.609  0.3277  0.0240 -0.7641
  179SOPE   H9X20460   6.622   3.403   7.599  0.2825 -0.1649 -0.2566
  179SOPE   H9Y20461   6.743   3.500   7.663 -1.0718 -0.2450  0.0061
  179SOPE  C31020462   6.773   3.279   7.686  0.2600 -0.0041  0.0930
  179SOPE  H10X20463   6.879   3.260   7.661  0.3413 -0.4733  0.7902
  179SOPE  H10Y20464   6.718   3.187   7.657  1.4624  0.5101 -4.2255
  179SOPE  C31120465   6.769   3.298   7.843  0.4898  0.3072  0.1039
  179SOPE  H11X20466   6.668   3.338   7.865  2.1214  2.7199  3.4978
  179SOPE  H11Y20467   6.827   3.387   7.876 -0.4623 -0.1912  3.2072
  179SOPE  C31220468   6.812   3.177   7.924 -0.0949 -0.3520 -0.9353
  179SOPE  H12X20469   6.910   3.146   7.882  0.9126 -1.2409  1.9648
  179SOPE  H12Y20470   6.740   3.094   7.909 -0.2502 -0.6983  1.6469
  179SOPE  C31320471   6.833   3.209   8.065  0.3188  0.8652 -0.7391
  179SOPE  H13X20472   6.746   3.265   8.105 -1.1079 -0.9905 -1.1953
  179SOPE  H13Y20473   6.922   3.273   8.083  0.6861 -0.2295  1.4509
  179SOPE  C31420474   6.853   3.080   8.146  0.3723  0.7011 -0.1582
  179SOPE  H14X20475   6.939   3.019   8.111  1.1556  0.7935  1.5121
  179SOPE  H14Y20476   6.774   3.003   8.131  1.6263 -0.9943  1.5779
  179SOPE  C31520477   6.860   3.102   8.298  0.3733  0.2970 -0.1571
  179SOPE  H15X20478   6.767   3.153   8.330  0.9382 -0.9157  3.6267
  179SOPE  H15Y20479   6.939   3.177   8.320 -1.6164  3.2231 -2.5242
  179SOPE  C31620480   6.878   2.973   8.382 -0.8800 -0.4789  0.3872
  179SOPE  H16X20481   6.793   2.902   8.382 -1.0426 -0.2859  1.4648
  179SOPE  H16Y20482   6.889   2.986   8.491  0.1783  0.0858  0.2215
  179SOPE  C31720483   7.005   2.897   8.337 -0.0678 -0.0009  1.2892
  179SOPE  H17X20484   7.092   2.965   8.335  0.7625 -0.9522  3.6603
  179SOPE  H17Y20485   6.985   2.859   8.234  0.2035  0.7718  0.9546
  179SOPE  C31820486   7.044   2.775   8.424  0.3179  0.2633 -0.1744
  179SOPE  H18X20487   7.087   2.801   8.523 -0.5014  1.7988 -0.2117
  179SOPE  H18Y20488   7.113   2.703   8.373  2.1673  1.1378  1.0441
  179SOPE  H18Z20489   6.950   2.721   8.449  0.2769  0.7214  0.6525
  180SOPE     N20490   5.741   2.499   6.073 -0.3178 -0.4830 -0.7362
  180SOPE   HN120491   5.779   2.536   5.984 -2.3298  1.3785 -0.8636
  180SOPE   HN220492   5.781   2.563   6.145  0.8594 -1.1223 -0.8150
  180SOPE   HN320493   5.753   2.398   6.094 -0.6542 -0.2598  0.5924
  180SOPE   C1220494   5.593   2.517   6.067  0.6778  0.5622 -0.4303
  180SOPE  H12A20495   5.547   2.454   6.146 -0.0970  1.3445 -0.2539
  180SOPE  H12B20496   5.570   2.469   5.969  1.6011 -3.6822  1.3247
  180SOPE   C1120497   5.561   2.667   6.067  0.1455 -0.6493 -0.4226
  180SOPE  H11A20498   5.466   2.684   6.012  0.1675  1.3350  0.1268
  180SOPE  H11B20499   5.631   2.729   6.008 -0.2921  1.6599  1.3723
  180SOPE     P20500   5.421   2.688   6.297  0.3116 -0.0238 -0.1723
  180SOPE   O1320501   5.316   2.605   6.233 -0.7864  0.0335 -0.1151
  180SOPE   O1420502   5.369   2.819   6.343  0.2959 -0.0413 -0.5107
  180SOPE   O1220503   5.549   2.713   6.200  0.4291  0.1772 -0.9346
  180SOPE   O1120504   5.477   2.615   6.415  0.8863  0.2192 -0.3131
  180SOPE    C120505   5.591   2.670   6.483 -0.2545 -0.2406  0.0302
  180SOPE    HA20506   5.620   2.772   6.449  0.4379 -0.4315  0.0311
  180SOPE    HB20507   5.682   2.610   6.464  0.5490  1.2041 -0.8292
  180SOPE    C220508   5.575   2.668   6.633  0.1004  0.1594  0.5381
  180SOPE    HS20509   5.675   2.697   6.672  0.7553 -1.8011  0.3859
  180SOPE   O2120510   5.523   2.537   6.671 -0.4240 -0.3313 -0.6333
  180SOPE   C2120511   5.575   2.479   6.777 -0.1184 -0.1545 -0.0384
  180SOPE   O2220512   5.681   2.514   6.827  0.6290 -0.1333 -0.4623
  180SOPE   C2220513   5.492   2.358   6.805 -0.7941  0.1522  0.5802
  180SOPE   H2R20514   5.471   2.301   6.712 -1.2851  0.5014  0.4713
  180SOPE   H2S20515   5.397   2.388   6.854 -1.0498 -0.8632  0.7142
  180SOPE    C320516   5.472   2.777   6.677 -0.0751 -0.1276  0.1396
  180SOPE    HX20517   5.381   2.726   6.638  1.5017 -0.6814 -3.0333
  180SOPE    HY20518   5.481   2.868   6.614  1.3878 -0.6891 -0.4849
  180SOPE   O3120519   5.464   2.782   6.820  0.0475 -0.1888 -0.4111
  180SOPE   C3120520   5.566   2.831   6.888 -0.3064 -0.0280 -0.0501
  180SOPE   O3220521   5.668   2.872   6.836  0.2703  0.2526  0.9409
  180SOPE   C3220522   5.532   2.833   7.032  0.0778 -0.5616 -0.7665
  180SOPE   H2X20523   5.435   2.783   7.056  0.2105 -1.3648 -1.8533
  180SOPE   H2Y20524   5.520   2.941   7.052  2.4926 -0.5553  0.9341
  180SOPE   C2320525   5.555   2.272   6.914  0.5722  0.3417  1.1048
  180SOPE   H3R20526   5.608   2.336   6.988 -1.0584  0.6862  1.9878
  180SOPE   H3S20527   5.634   2.214   6.862  1.7702  2.7543  0.1161
  180SOPE   C2420528   5.457   2.182   6.988 -0.0153  0.0689 -0.6854
  180SOPE   H4R20529   5.365   2.240   7.008 -0.5970 -1.2566  0.5425
  180SOPE   H4S20530   5.429   2.096   6.924 -1.6200 -0.9045  1.2718
  180SOPE   C2520531   5.514   2.116   7.116  0.2087 -0.2778  0.9270
  180SOPE   H5R20532   5.428   2.052   7.144 -0.7141  1.0348  1.1474
  180SOPE   H5S20533   5.598   2.051   7.084  1.8108  2.0325  0.3125
  180SOPE   C2620534   5.544   2.223   7.217 -1.0741 -0.0952 -0.1781
  180SOPE   H6R20535   5.566   2.166   7.310 -1.1680 -0.2413 -0.2441
  180SOPE   H6S20536   5.639   2.277   7.200 -0.6473 -0.1962  1.7294
  180SOPE   C2720537   5.433   2.322   7.242  0.6025 -0.0082 -0.4786
  180SOPE   H7R20538   5.434   2.399   7.162 -0.6646 -0.7160 -1.1842
  180SOPE   H7S20539   5.339   2.263   7.235  0.7184 -0.2710  0.1608
  180SOPE   C2820540   5.467   2.397   7.375 -0.5569  0.5087 -0.4553
  180SOPE   H8R20541   5.578   2.399   7.381 -0.6045  0.7728  0.4359
  180SOPE   H8S20542   5.425   2.500   7.372 -2.7315 -0.3450  0.0676
  180SOPE   C2920543   5.410   2.319   7.497  0.4278  0.2383 -0.2363
  180SOPE   H9120544   5.303   2.295   7.491  0.3584  0.6097 -0.5146
  180SOPE  C21020545   5.481   2.267   7.599  0.1520 -0.1894 -0.1232
  180SOPE  H10120546   5.427   2.224   7.684  1.6009  1.2130  1.5331
  180SOPE  C21120547   5.634   2.282   7.635  0.2622  0.4109 -0.0874
  180SOPE  H11R20548   5.657   2.391   7.630 -1.0244  0.7100  0.3927
  180SOPE  H11S20549   5.695   2.229   7.560  0.4967 -1.5227  1.4293
  180SOPE  C21220550   5.664   2.222   7.775 -0.3401 -0.2747 -0.8976
  180SOPE  H12R20551   5.772   2.244   7.789 -0.3379 -0.6042 -0.3659
  180SOPE  H12S20552   5.646   2.112   7.776  0.9412 -0.5496 -3.2338
  180SOPE  C21320553   5.589   2.289   7.898 -0.3609  0.2980 -0.1409
  180SOPE  H13R20554   5.487   2.306   7.859  0.1085  1.5752 -0.8356
  180SOPE  H13S20555   5.635   2.387   7.924  0.8484  0.1326 -1.5527
  180SOPE  C21420556   5.572   2.201   8.024 -0.5737  0.0445 -0.0222
  180SOPE  H14R20557   5.522   2.110   7.987  1.9999 -0.5968 -2.1027
  180SOPE  H14S20558   5.498   2.253   8.089 -1.8667  0.3181 -1.6860
  180SOPE  C21520559   5.704   2.154   8.102  0.0400 -0.3706 -0.3196
  180SOPE  H15R20560   5.768   2.245   8.103  1.2548 -1.2042  1.8731
  180SOPE  H15S20561   5.745   2.072   8.038  0.9154  0.0549 -0.3163
  180SOPE  C21620562   5.671   2.084   8.233  0.0872  1.0650  0.1057
  180SOPE  H16R20563   5.607   2.147   8.298 -0.0799 -0.6195  1.6186
  180SOPE  H16S20564   5.768   2.072   8.285  0.4903  1.1513 -0.6080
  180SOPE  C21720565   5.610   1.950   8.207 -0.3293 -0.5047 -0.0898
  180SOPE  H17R20566   5.681   1.878   8.161 -0.0715  0.1177 -0.6670
  180SOPE  H17S20567   5.520   1.961   8.142 -1.1243 -0.3383  1.0244
  180SOPE  C21820568   5.559   1.882   8.341 -0.1709 -0.2813 -0.3808
  180SOPE  H18R20569   5.488   1.950   8.393  0.3040 -0.7053  0.8501
  180SOPE  H18S20570   5.653   1.861   8.398  0.0476  1.4709 -0.0547
  180SOPE  H18T20571   5.509   1.786   8.319 -0.8767  0.3880 -1.7768
  180SOPE   C3320572   5.643   2.789   7.130 -0.3015 -0.4167  0.3121
  180SOPE   H3X20573   5.729   2.858   7.121 -0.2005 -0.7058 -1.1193
  180SOPE   H3Y20574   5.675   2.685   7.108  2.8903  0.1223  2.1365
  180SOPE   C3420575   5.607   2.809   7.276  0.4414 -0.3051 -1.3486
  180SOPE   H4X20576   5.507   2.764   7.292  1.3210 -2.0711 -0.6365
  180SOPE   H4Y20577   5.615   2.919   7.289  1.0198 -0.5449  0.5753
  180SOPE   C3520578   5.702   2.729   7.369  0.1410 -0.3451 -0.1312
  180SOPE   H5X20579   5.802   2.776   7.371  0.6018 -1.3426  2.7223
  180SOPE   H5Y20580   5.711   2.626   7.327 -1.6798 -0.6500  0.1593
  180SOPE   C3620581   5.649   2.723   7.516 -0.2815 -0.6638  0.3816
  180SOPE   H6X20582   5.552   2.669   7.515 -1.3349  1.1970 -0.1944
  180SOPE   H6Y20583   5.651   2.819   7.572 -1.1342 -1.5470  1.9734
  180SOPE   C3720584   5.760   2.646   7.595  0.2856 -0.0873  0.1471
  180SOPE   H7X20585   5.858   2.698   7.588 -1.1126  2.8036  1.2308
  180SOPE   H7Y20586   5.774   2.543   7.554  1.6687  0.9686 -2.1242
  180SOPE   C3820587   5.729   2.630   7.748  0.1081 -0.0151 -0.0216
  180SOPE   H8X20588   5.810   2.572   7.797  2.0403  1.8658 -0.8917
  180SOPE   H8Y20589   5.631   2.579   7.746 -1.0704  2.1975 -1.3480
  180SOPE   C3920590   5.710   2.764   7.820 -0.3231  0.4484  0.7027
  180SOPE   H9X20591   5.624   2.824   7.781 -0.4629 -0.4542 -0.3957
  180SOPE   H9Y20592   5.803   2.824   7.825 -0.4207  0.6229  0.4456
  180SOPE  C31020593   5.682   2.728   7.970  0.7427  0.1212 -0.5687
  180SOPE  H10X20594   5.595   2.662   7.986 -0.6821  1.3063 -3.1399
  180SOPE  H10Y20595   5.648   2.822   8.018 -2.1315 -1.1650  0.0017
  180SOPE  C31120596   5.807   2.671   8.040 -0.6662 -0.6368 -0.7746
  180SOPE  H11X20597   5.885   2.750   8.041 -1.1523 -0.1376  1.8609
  180SOPE  H11Y20598   5.844   2.580   7.988  0.8534 -1.3853  1.4991
  180SOPE  C31220599   5.778   2.642   8.186  0.0257  0.0133 -0.4915
  180SOPE  H12X20600   5.746   2.742   8.223  1.2542  0.5425 -0.8353
  180SOPE  H12Y20601   5.858   2.618   8.259 -1.5771  1.5762  1.8852
  180SOPE  C31320602   5.671   2.535   8.216 -0.2074  0.0534 -0.1586
  180SOPE  H13X20603   5.709   2.438   8.176  0.2291  0.6913 -1.3235
  180SOPE  H13Y20604   5.582   2.551   8.151  0.3599 -0.4763 -1.0902
  180SOPE  C31420605   5.620   2.528   8.360 -0.7082 -0.3041  0.1603
  180SOPE  H14X20606   5.556   2.617   8.377  0.8015  0.9576 -0.6221
  180SOPE  H14Y20607   5.706   2.536   8.429  0.2327 -2.5210 -0.7006
  180SOPE  C31520608   5.527   2.398   8.381  0.0726 -0.2663  0.4374
  180SOPE  H15X20609   5.582   2.307   8.411  0.2444 -0.0378  0.8136
  180SOPE  H15Y20610   5.478   2.367   8.286  0.1548 -2.3891  1.0795
  180SOPE  C31620611   5.416   2.415   8.488 -0.0734 -0.5675 -0.4337
  180SOPE  H16X20612   5.340   2.490   8.455 -0.8781 -0.6263  1.2661
  180SOPE  H16Y20613   5.464   2.437   8.585 -1.1713 -1.9947  0.4523
  180SOPE  C31720614   5.343   2.279   8.498 -0.3928 -0.2680 -0.2190
  180SOPE  H17X20615   5.406   2.190   8.521 -1.4413 -0.8988  0.2626
  180SOPE  H17Y20616   5.290   2.273   8.401 -1.2659  0.6066  0.1881
  180SOPE  C31820617   5.225   2.288   8.604  1.0218 -0.4436 -0.2486
  180SOPE  H18X20618   5.253   2.335   8.701  1.7810 -0.0335 -0.6660
  180SOPE  H18Y20619   5.183   2.186   8.621 -1.5162  0.2910 -1.8885
  180SOPE  H18Z20620   5.143   2.347   8.559  0.7297  0.3440  1.2539
  181SOPE     N20621   5.465   1.406   6.036  0.2627 -0.6104 -0.6087
  181SOPE   HN120622   5.521   1.401   6.123 -0.5317 -2.2934 -0.1834
  181SOPE   HN220623   5.476   1.308   6.002 -2.0039 -0.7853 -0.8900
  181SOPE   HN320624   5.525   1.461   5.971  0.5854 -0.2710 -0.0313
  181SOPE   C1220625   5.321   1.451   6.052  0.2848  0.5468 -0.2853
  181SOPE  H12A20626   5.287   1.473   5.948  1.5761  0.2913 -0.7646
  181SOPE  H12B20627   5.304   1.541   6.115 -3.1776  0.4466 -0.9474
  181SOPE   C1120628   5.241   1.322   6.096  0.3097  0.5827  0.1091
  181SOPE  H11A20629   5.141   1.352   6.134  0.6171  0.1363  1.2762
  181SOPE  H11B20630   5.297   1.287   6.185  1.9624 -0.3336 -1.2566
  181SOPE     P20631   5.328   1.095   5.991  0.1203 -0.1620  0.0624
  181SOPE   O1320632   5.459   1.155   5.988 -0.6174  0.4068 -0.1787
  181SOPE   O1420633   5.284   1.012   5.877  0.2699  0.1465 -0.3630
  181SOPE   O1220634   5.227   1.212   6.007 -0.2351 -0.1243  0.1359
  181SOPE   O1120635   5.307   1.008   6.120  0.0531 -0.3901 -0.5664
  181SOPE    C120636   5.406   1.020   6.220  0.6481 -0.0091 -0.2165
  181SOPE    HA20637   5.452   1.120   6.232 -0.1542  0.2809  0.5409
  181SOPE    HB20638   5.471   0.931   6.209 -0.3277 -0.7113 -0.3727
  181SOPE    C220639   5.344   1.001   6.361  0.5308 -0.4107  0.6093
  181SOPE    HS20640   5.299   0.899   6.360  0.1769 -0.2562  0.4956
  181SOPE   O2120641   5.250   1.102   6.385 -0.0144  0.8717 -0.5295
  181SOPE   C2120642   5.122   1.071   6.386  0.0562 -0.5058  0.1195
  181SOPE   O2220643   5.077   0.957   6.378 -0.0346  0.2627  0.3364
  181SOPE   C2220644   5.031   1.201   6.412  0.4514  0.1753 -0.4157
  181SOPE   H2R20645   5.062   1.271   6.331 -1.5354  1.2654 -0.2626
  181SOPE   H2S20646   5.055   1.240   6.514  3.0871  1.3084 -1.4230
  181SOPE    C320647   5.452   1.010   6.470  0.1700 -0.0089  0.2659
  181SOPE    HX20648   5.501   1.110   6.471 -0.6421  0.4012  1.5754
  181SOPE    HY20649   5.533   0.934   6.475  0.6320  0.3524 -1.6313
  181SOPE   O3120650   5.373   0.998   6.591 -0.1298  0.8601 -0.6772
  181SOPE   C3120651   5.368   0.879   6.646 -0.3858  0.3537  0.6731
  181SOPE   O3220652   5.410   0.773   6.597  0.3390  0.0038 -0.2407
  181SOPE   C3220653   5.313   0.883   6.782  0.4651  0.0328  0.1298
  181SOPE   H2X20654   5.297   0.779   6.819 -0.2190 -0.3530 -1.2012
  181SOPE   H2Y20655   5.213   0.931   6.777 -1.1559 -3.3552 -1.6733
  181SOPE   C2320656   4.878   1.193   6.396 -0.0941  0.3585  0.4072
  181SOPE   H3R20657   4.850   1.111   6.326 -0.2515 -0.3846  1.3305
  181SOPE   H3S20658   4.844   1.285   6.343  1.5260 -0.1203 -1.5440
  181SOPE   C2420659   4.801   1.195   6.530 -0.0595 -0.3821  0.1256
  181SOPE   H4R20660   4.839   1.279   6.591  1.0440 -0.6403 -0.1953
  181SOPE   H4S20661   4.691   1.210   6.516  0.3602  1.7061 -1.2001
  181SOPE   C2520662   4.822   1.072   6.626 -0.1910  0.0707  0.5349
  181SOPE   H5R20663   4.743   1.005   6.586 -0.3784 -0.3268  1.5526
  181SOPE   H5S20664   4.920   1.029   6.596 -1.2011 -0.4507 -2.1831
  181SOPE   C2620665   4.809   1.089   6.774 -0.0840  0.4610  0.0003
  181SOPE   H6R20666   4.874   1.172   6.810 -1.4196  0.9014  1.4573
  181SOPE   H6S20667   4.705   1.115   6.803  0.6827  2.6147  0.9062
  181SOPE   C2720668   4.847   0.955   6.845 -0.0128 -0.5129 -0.2002
  181SOPE   H7R20669   4.755   0.902   6.878  0.1916 -0.7109  0.0611
  181SOPE   H7S20670   4.893   0.896   6.763  2.0971 -0.0278  0.6155
  181SOPE   C2820671   4.943   0.971   6.966  0.4309 -0.6119 -0.0420
  181SOPE   H8R20672   5.036   1.026   6.943 -0.9112  1.6100 -0.2705
  181SOPE   H8S20673   4.887   1.021   7.048 -1.6625 -4.7019  1.1866
  181SOPE   C2920674   4.986   0.835   7.023 -0.4019  0.0439 -0.2830
  181SOPE   H9120675   5.018   0.757   6.952 -1.7242 -2.4690  1.8224
  181SOPE  C21020676   4.991   0.806   7.158 -0.0031  0.0428  0.0348
  181SOPE  H10120677   5.009   0.702   7.188 -0.2643  0.0092  0.0726
  181SOPE  C21120678   4.950   0.892   7.272 -0.4041  0.1800  0.1079
  181SOPE  H11R20679   4.843   0.886   7.303 -0.6442  0.1081 -0.7201
  181SOPE  H11S20680   4.975   0.998   7.251 -1.0689  0.0037 -1.6718
  181SOPE  C21220681   5.019   0.882   7.404  0.4275 -0.0612 -0.5464
  181SOPE  H12R20682   5.127   0.906   7.395  0.2848  0.1366 -1.8876
  181SOPE  H12S20683   5.009   0.780   7.449  2.5915 -0.0375  0.0508
  181SOPE  C21320684   4.961   0.988   7.498  0.3551  0.0354 -0.1207
  181SOPE  H13R20685   4.864   0.958   7.542 -1.7507  2.2241 -3.0754
  181SOPE  H13S20686   4.951   1.083   7.442 -1.1547 -0.3108 -0.4402
  181SOPE  C21420687   5.049   1.019   7.621  0.0640 -0.0010  0.3689
  181SOPE  H14R20688   4.995   1.096   7.681 -0.6684  0.9748 -1.4660
  181SOPE  H14S20689   5.143   1.066   7.585  1.3497 -2.4617  0.4269
  181SOPE  C21520690   5.079   0.901   7.713  0.3893 -0.3768 -0.9129
  181SOPE  H15R20691   5.149   0.826   7.670  0.4134 -1.1376  0.4294
  181SOPE  H15S20692   4.982   0.853   7.734  0.2388 -0.5444 -1.9534
  181SOPE  C21620693   5.141   0.941   7.847 -0.1353  0.2047  0.4295
  181SOPE  H16R20694   5.205   1.028   7.820  0.1946 -0.2847 -0.4045
  181SOPE  H16S20695   5.198   0.858   7.893  2.9186  2.0464  0.1435
  181SOPE  C21720696   5.040   0.985   7.946 -0.6216 -0.1502  0.2128
  181SOPE  H17R20697   4.989   0.896   7.991  0.5431 -1.1950 -0.5048
  181SOPE  H17S20698   4.962   1.053   7.906  1.9788  1.6222 -2.0431
  181SOPE  C21820699   5.095   1.055   8.073 -0.3794 -0.0831 -0.4011
  181SOPE  H18R20700   5.140   1.153   8.049  1.1826 -0.4235  1.0275
  181SOPE  H18S20701   5.179   0.996   8.117  0.9738  1.3881 -0.9754
  181SOPE  H18T20702   5.011   1.089   8.138  0.7912  1.4829  0.3135
  181SOPE   C3320703   5.405   0.957   6.884 -0.3886 -0.0949  0.1979
  181SOPE   H3X20704   5.397   1.066   6.863 -1.2671  0.0249  1.1551
  181SOPE   H3Y20705   5.511   0.925   6.878 -0.2859  0.3663 -0.7158
  181SOPE   C3420706   5.359   0.921   7.023  0.1908  0.6173 -0.0304
  181SOPE   H4X20707   5.354   0.811   7.043  1.3306  0.5671 -0.0213
  181SOPE   H4Y20708   5.254   0.951   7.045 -0.1000 -0.5276  0.1791
  181SOPE   C3520709   5.437   0.991   7.126  0.4124  0.0487 -0.3382
  181SOPE   H5X20710   5.460   1.093   7.089 -0.3196  0.3341 -0.0192
  181SOPE   H5Y20711   5.537   0.945   7.141  0.7258  0.9185  0.3264
  181SOPE   C3620712   5.359   1.015   7.256 -0.1609  0.8594  0.3757
  181SOPE   H6X20713   5.329   0.917   7.299  2.1621 -0.2844 -0.5069
  181SOPE   H6Y20714   5.267   1.070   7.229  0.0375  0.3936 -1.2471
  181SOPE   C3720715   5.448   1.076   7.362  0.2740 -0.1891 -0.3416
  181SOPE   H7X20716   5.381   1.117   7.440  0.4347 -0.1239 -0.2385
  181SOPE   H7Y20717   5.505   1.160   7.318 -0.2166 -0.6459 -1.8808
  181SOPE   C3820718   5.556   0.978   7.416  0.8028  0.2462 -0.2034
  181SOPE   H8X20719   5.642   0.966   7.347  0.9846  0.1586  0.0355
  181SOPE   H8Y20720   5.516   0.875   7.424  2.5117 -0.5054 -1.1106
  181SOPE   C3920721   5.624   1.023   7.544 -0.7701 -0.2888 -0.0746
  181SOPE   H9X20722   5.638   1.134   7.539 -0.9872 -0.1745  1.5791
  181SOPE   H9Y20723   5.723   0.973   7.555  0.4271  2.3042  1.6790
  181SOPE  C31020724   5.547   0.975   7.664  0.0989 -0.2796  1.2009
  181SOPE  H10X20725   5.537   0.865   7.660  0.8690 -0.3651  1.6154
  181SOPE  H10Y20726   5.442   1.005   7.641  0.4599 -0.2944 -0.4915
  181SOPE  C31120727   5.606   1.024   7.796  0.0389 -0.6064 -0.3831
  181SOPE  H11X20728   5.581   1.132   7.803 -0.4661 -0.6070 -2.1082
  181SOPE  H11Y20729   5.713   0.996   7.786 -0.3753 -3.1655  1.6933
  181SOPE  C31220730   5.547   0.960   7.926 -0.3758 -0.0473  0.0730
  181SOPE  H12X20731   5.523   0.859   7.885  1.8613  0.2339 -2.0710
  181SOPE  H12Y20732   5.455   1.019   7.947  1.0340  2.8061 -1.5083
  181SOPE  C31320733   5.641   0.957   8.044 -0.4253  0.0792 -0.4463
  181SOPE  H13X20734   5.665   1.063   8.069  1.1471 -0.4384  0.2841
  181SOPE  H13Y20735   5.738   0.907   8.022 -0.9396 -0.7358 -0.8625
  181SOPE  C31420736   5.569   0.894   8.151 -0.3964  0.2569  0.2918
  181SOPE  H14X20737   5.538   0.791   8.122  0.8049 -0.0451  0.0586
  181SOPE  H14Y20738   5.475   0.952   8.161 -0.9434 -0.5782  0.0566
  181SOPE  C31520739   5.638   0.905   8.281  0.0498 -0.1783 -0.2014
  181SOPE  H15X20740   5.659   1.010   8.309 -0.9273  0.6880 -2.6333
  181SOPE  H15Y20741   5.736   0.853   8.285  0.3371  0.2052 -1.8207
  181SOPE  C31620742   5.555   0.833   8.391 -0.3469  0.0538 -0.0588
  181SOPE  H16X20743   5.541   0.723   8.383 -2.1077  0.3642 -1.8274
  181SOPE  H16Y20744   5.451   0.870   8.377 -0.8509 -1.5415 -0.6184
  181SOPE  C31720745   5.603   0.860   8.535  0.4204 -0.0327 -0.8172
  181SOPE  H17X20746   5.527   0.835   8.612 -1.6014  0.8239 -2.4747
  181SOPE  H17Y20747   5.625   0.968   8.547 -1.1843  0.3876 -1.5136
  181SOPE  C31820748   5.725   0.772   8.573  0.1886 -0.3312  0.7378
  181SOPE  H18X20749   5.756   0.810   8.673  0.3705  1.0067  0.1872
  181SOPE  H18Y20750   5.804   0.783   8.496 -0.1251  0.2939  0.4952
  181SOPE  H18Z20751   5.694   0.666   8.585  1.8236 -0.7854  1.1264
  182SOPE     N20752   6.086   2.970   6.596 -0.2982  0.3514  0.2153
  182SOPE   HN120753   5.996   2.917   6.601  0.4218 -0.9368 -0.2464
  182SOPE   HN220754   6.157   2.900   6.624 -1.2634 -0.8847 -0.3317
  182SOPE   HN320755   6.094   3.047   6.665  2.9675  1.1408 -0.9810
  182SOPE   C1220756   6.112   3.027   6.459  0.2050  0.6705 -0.2823
  182SOPE  H12A20757   6.211   3.075   6.473 -0.2862  1.2012  1.6239
  182SOPE  H12B20758   6.034   3.104   6.440 -0.3351  0.4358  0.9129
  182SOPE   C1120759   6.124   2.919   6.354 -0.3386 -0.3073  0.1074
  182SOPE  H11A20760   6.211   2.852   6.369 -1.0130 -0.7071  2.4123
  182SOPE  H11B20761   6.156   2.974   6.262 -0.0081  1.8291  1.4676
  182SOPE     P20762   5.994   2.711   6.259 -0.2658  0.3052  0.4331
  182SOPE   O1320763   6.038   2.720   6.123 -0.3251  0.0409 -0.7159
  182SOPE   O1420764   5.865   2.641   6.278 -0.2101 -0.0173  0.1823
  182SOPE   O1220765   6.000   2.856   6.327 -0.0973  0.1481  0.7260
  182SOPE   O1120766   6.106   2.616   6.330  0.3826 -0.2615  0.6380
  182SOPE    C120767   6.107   2.605   6.470  0.1140  0.2327  0.2186
  182SOPE    HA20768   6.115   2.700   6.526  1.5422 -0.7281  1.7158
  182SOPE    HB20769   6.205   2.564   6.503 -0.5626 -0.2576  1.6563
  182SOPE    C220770   5.993   2.523   6.536  0.3404 -0.0901  0.0078
  182SOPE    HS20771   5.900   2.576   6.508 -1.0854 -1.5810  1.8190
  182SOPE   O2120772   5.997   2.521   6.674 -0.2948 -0.3059  0.3691
  182SOPE   C2120773   5.971   2.633   6.743 -0.5231 -0.3952  0.4645
  182SOPE   O2220774   5.935   2.741   6.693 -0.7022  0.0554 -0.0818
  182SOPE   C2220775   5.991   2.600   6.890  0.4335 -0.1805  0.2112
  182SOPE   H2R20776   5.976   2.491   6.903 -0.9435 -0.1999 -1.4265
  182SOPE   H2S20777   5.916   2.647   6.958 -1.8355 -2.7651 -0.4314
  182SOPE    C320778   5.993   2.375   6.485 -0.4768 -0.1581  0.2469
  182SOPE    HX20779   6.097   2.338   6.503 -0.2810 -0.8168 -2.1029
  182SOPE    HY20780   5.956   2.380   6.381 -0.3477 -0.5565  0.1801
  182SOPE   O3120781   5.899   2.289   6.564 -0.8274  0.1250  0.2770
  182SOPE   C3120782   5.898   2.170   6.537 -0.3811 -1.0724  0.0335
  182SOPE   O3220783   5.985   2.116   6.467  0.2647 -0.1171  0.2224
  182SOPE   C3220784   5.777   2.100   6.597  0.0007  0.2523  0.3189
  182SOPE   H2X20785   5.691   2.122   6.530 -0.5922 -1.9551  0.2876
  182SOPE   H2Y20786   5.758   2.139   6.699  1.1538  0.9727  0.2688
  182SOPE   C2320787   6.135   2.641   6.932 -0.5017  0.0038  0.7582
  182SOPE   H3R20788   6.138   2.752   6.939  0.2149  0.1582 -1.5637
  182SOPE   H3S20789   6.202   2.613   6.848  0.1611  0.4242  1.1396
  182SOPE   C2420790   6.181   2.572   7.062 -0.3222  0.4133 -0.7989
  182SOPE   H4R20791   6.119   2.599   7.151 -2.3814 -2.6270 -1.2590
  182SOPE   H4S20792   6.154   2.468   7.034 -0.4324  0.5482 -1.1959
  182SOPE   C2520793   6.337   2.585   7.080 -0.3658 -0.1298 -0.0974
  182SOPE   H5R20794   6.375   2.563   6.977  0.5480  0.0559  0.1958
  182SOPE   H5S20795   6.355   2.691   7.105 -1.4061  0.3483 -1.2891
  182SOPE   C2620796   6.405   2.510   7.193  0.2685  0.3447  0.0070
  182SOPE   H6R20797   6.354   2.528   7.290 -1.1423 -1.9825 -0.2866
  182SOPE   H6S20798   6.396   2.400   7.183 -0.9975  0.2821  1.7276
  182SOPE   C2720799   6.553   2.551   7.214 -0.1280 -0.5964  0.5470
  182SOPE   H7R20800   6.556   2.657   7.249 -2.0037 -0.7803  1.3204
  182SOPE   H7S20801   6.591   2.492   7.300 -1.8858 -2.1102  0.3135
  182SOPE   C2820802   6.644   2.537   7.094  0.8213 -0.7025 -0.4614
  182SOPE   H8R20803   6.611   2.617   7.024 -0.4698  1.7625  2.8215
  182SOPE   H8S20804   6.745   2.575   7.119  0.2608 -0.8153  2.0871
  182SOPE   C2920805   6.645   2.397   7.036 -0.5770 -0.2039  0.1953
  182SOPE   H9120806   6.556   2.367   6.978 -0.1472  0.3850 -0.7771
  182SOPE  C21020807   6.743   2.311   7.048  0.1485  1.0328  0.3014
  182SOPE  H10120808   6.727   2.210   7.009 -0.1572  1.1955 -0.0023
  182SOPE  C21120809   6.881   2.337   7.118  0.2743  0.2739 -0.2883
  182SOPE  H11R20810   6.899   2.443   7.144 -1.1711  0.4262  0.1459
  182SOPE  H11S20811   6.966   2.308   7.052  1.1671  2.0621  0.0479
  182SOPE  C21220812   6.897   2.255   7.254 -0.0072  0.6112  0.1991
  182SOPE  H12R20813   7.000   2.238   7.293 -0.9217 -1.0771  1.9536
  182SOPE  H12S20814   6.857   2.154   7.233  0.7657  0.2031  0.6248
  182SOPE  C21320815   6.819   2.324   7.370 -0.4329  0.4584  0.3346
  182SOPE  H13R20816   6.716   2.333   7.329  0.0468 -0.0410 -0.9886
  182SOPE  H13S20817   6.855   2.425   7.398  1.7622 -0.4983  1.0010
  182SOPE  C21420818   6.824   2.236   7.494 -0.7273 -0.0998 -0.1556
  182SOPE  H14R20819   6.854   2.134   7.460 -0.1991 -0.0232  0.0924
  182SOPE  H14S20820   6.724   2.225   7.541 -0.8126  1.9846  0.2109
  182SOPE  C21520821   6.919   2.280   7.606 -0.7078  0.3463  0.7332
  182SOPE  H15R20822   6.877   2.375   7.645 -2.7613 -0.4525  0.4886
  182SOPE  H15S20823   7.025   2.299   7.577 -0.7503  0.1071  0.4228
  182SOPE  C21620824   6.934   2.177   7.721 -0.4661  0.5057  0.1158
  182SOPE  H16R20825   6.981   2.084   7.683 -0.4977 -0.1769  1.6934
  182SOPE  H16S20826   6.833   2.148   7.756 -0.3872  0.5585  0.3883
  182SOPE  C21720827   7.011   2.229   7.847 -0.4711  0.5251 -0.0323
  182SOPE  H17R20828   6.952   2.300   7.910 -1.2147 -1.5401  1.6885
  182SOPE  H17S20829   7.103   2.278   7.811 -2.3278  2.4845 -2.2651
  182SOPE  C21820830   7.051   2.118   7.940  0.0577 -0.5684 -0.2530
  182SOPE  H18R20831   7.138   2.059   7.905  0.5605 -0.5831  0.9959
  182SOPE  H18S20832   6.955   2.067   7.962 -0.9287  1.8843  1.3932
  182SOPE  H18T20833   7.069   2.166   8.038  0.9984 -2.4329  0.5048
  182SOPE   C3320834   5.805   1.948   6.603  0.7270  0.2506 -0.5785
  182SOPE   H3X20835   5.904   1.927   6.650  0.9578  1.7731 -0.3660
  182SOPE   H3Y20836   5.833   1.908   6.503 -1.4779 -0.9319 -0.7585
  182SOPE   C3420837   5.687   1.872   6.655  0.2329  0.9905 -0.1486
  182SOPE   H4X20838   5.617   1.867   6.569  0.0471  2.7466 -0.1298
  182SOPE   H4Y20839   5.627   1.944   6.715  0.3832  0.5076  0.5830
  182SOPE   C3520840   5.704   1.733   6.711 -0.0760  0.6621  0.0709
  182SOPE   H5X20841   5.772   1.682   6.640  0.9653  1.6555  0.3327
  182SOPE   H5Y20842   5.599   1.697   6.720  0.1986 -0.2442 -0.3399
  182SOPE   C3620843   5.790   1.730   6.848  0.0465 -0.0777 -0.1261
  182SOPE   H6X20844   5.897   1.735   6.819  0.5885  1.2876  1.9780
  182SOPE   H6Y20845   5.776   1.621   6.863  2.3261 -0.3365  0.3530
  182SOPE   C3720846   5.749   1.818   6.964  0.0873  0.0946  0.2881
  182SOPE   H7X20847   5.640   1.805   6.981  0.3733 -2.8440  0.2034
  182SOPE   H7Y20848   5.765   1.923   6.934  0.5055 -0.0587 -0.0247
  182SOPE   C3820849   5.849   1.789   7.082 -0.8836 -0.3512  0.1120
  182SOPE   H8X20850   5.947   1.828   7.048  0.3516 -2.6889  0.8774
  182SOPE   H8Y20851   5.852   1.679   7.096  3.0864 -0.2587  0.6318
  182SOPE   C3920852   5.817   1.870   7.210  0.0286  0.3704 -0.1706
  182SOPE   H9X20853   5.800   1.979   7.193 -0.6247  0.8614  3.2317
  182SOPE   H9Y20854   5.913   1.861   7.265 -0.1726 -0.7823 -0.0002
  182SOPE  C31020855   5.707   1.823   7.308  0.5069 -0.6249  0.5570
  182SOPE  H10X20856   5.680   1.725   7.262  1.1844  0.4917 -2.3042
  182SOPE  H10Y20857   5.620   1.892   7.313 -0.1574 -1.4071 -0.0010
  182SOPE  C31120858   5.761   1.797   7.449  0.1629  0.7765  0.1381
  182SOPE  H11X20859   5.848   1.729   7.432  1.4717  2.1409  1.2746
  182SOPE  H11Y20860   5.703   1.742   7.526  1.3991 -1.1281 -0.2349
  182SOPE  C31220861   5.822   1.924   7.507 -0.4437 -0.9381  0.5217
  182SOPE  H12X20862   5.759   2.011   7.476  1.4803  0.1886 -0.2892
  182SOPE  H12Y20863   5.925   1.943   7.470 -1.4641 -0.0925 -1.9927
  182SOPE  C31320864   5.830   1.927   7.664  0.9433 -0.5980  0.3917
  182SOPE  H13X20865   5.738   1.872   7.694 -0.3586  1.1322 -0.3505
  182SOPE  H13Y20866   5.836   2.034   7.692 -2.4965  0.2300 -1.8064
  182SOPE  C31420867   5.944   1.856   7.739  0.5134 -0.4748  0.1078
  182SOPE  H14X20868   6.041   1.887   7.696  0.4878  0.0774  0.4455
  182SOPE  H14Y20869   5.941   1.746   7.724 -1.8893 -0.5944  1.0900
  182SOPE  C31520870   5.936   1.868   7.891 -0.3444 -0.6980 -0.7936
  182SOPE  H15X20871   5.839   1.828   7.928 -1.0200  1.8610  0.3476
  182SOPE  H15Y20872   5.938   1.976   7.917 -2.0987 -0.4185 -1.7170
  182SOPE  C31620873   6.055   1.802   7.966 -0.1408 -0.2397  0.6670
  182SOPE  H16X20874   6.031   1.827   8.071 -0.5920 -3.6488  1.4094
  182SOPE  H16Y20875   6.141   1.857   7.921 -0.1930  0.1986  1.1027
  182SOPE  C31720876   6.055   1.651   7.958 -0.9123 -0.1659  0.1936
  182SOPE  H17X20877   6.090   1.608   7.861 -1.1483  2.2761 -1.0369
  182SOPE  H17Y20878   5.947   1.630   7.968 -1.5104  1.3053 -2.6822
  182SOPE  C31820879   6.131   1.582   8.068  0.4359  0.5832 -0.1991
  182SOPE  H18X20880   6.114   1.472   8.057 -2.3537  1.0535 -0.9104
  182SOPE  H18Y20881   6.083   1.601   8.166  2.5896 -1.4795  1.3176
  182SOPE  H18Z20882   6.240   1.602   8.064  0.3493  1.4454  1.3560
  183SOPE     N20883   1.139   0.239   6.233 -0.3374  0.2289 -0.1258
  183SOPE   HN120884   1.081   0.320   6.262 -0.3691  0.5719 -1.1299
  183SOPE   HN220885   1.192   0.256   6.145 -0.9528 -1.8913 -0.9367
  183SOPE   HN320886   1.090   0.150   6.212 -1.9719  0.9840  0.4673
  183SOPE   C1220887   1.231   0.203   6.345  0.8283 -0.3315 -0.4823
  183SOPE  H12A20888   1.164   0.175   6.428  0.7298  0.7556 -0.1801
  183SOPE  H12B20889   1.287   0.294   6.376 -1.1235  0.1878  1.6025
  183SOPE   C1120890   1.337   0.099   6.311 -0.1481 -0.4707  0.5512
  183SOPE  H11A20891   1.292   0.005   6.272  0.0237 -0.3457  0.0523
  183SOPE  H11B20892   1.384   0.060   6.404  1.0891  1.4543  0.7463
  183SOPE     P20893   1.539   0.247   6.254 -0.1139 -0.5662  0.1958
  183SOPE   O1320894   1.506   0.371   6.184  0.4343 -0.5302 -0.0448
  183SOPE   O1420895   1.675   0.187   6.224 -0.2355 -0.5814 -0.2707
  183SOPE   O1220896   1.437   0.143   6.219  0.0402  0.5012  0.1939
  183SOPE   O1120897   1.523   0.269   6.411  0.0290 -0.2272  0.2016
  183SOPE    C120898   1.528   0.406   6.454  0.4137 -0.1481  0.1793
  183SOPE    HA20899   1.431   0.460   6.454 -0.0855 -0.9138  3.4203
  183SOPE    HB20900   1.597   0.474   6.399 -1.3636  1.6984  0.1955
  183SOPE    C220901   1.564   0.417   6.603 -0.0996 -0.1819 -0.6714
  183SOPE    HS20902   1.561   0.524   6.634 -0.7871 -0.4968  0.3682
  183SOPE   O2120903   1.697   0.368   6.627 -0.2098  0.0388 -0.2930
  183SOPE   C2120904   1.800   0.441   6.598  0.2529 -0.6771 -0.1663
  183SOPE   O2220905   1.804   0.555   6.549  0.1940 -0.0226  0.1414
  183SOPE   C2220906   1.924   0.366   6.637  0.0602 -0.1755  0.1886
  183SOPE   H2R20907   1.977   0.360   6.540 -2.2293  0.8091 -1.1469
  183SOPE   H2S20908   1.899   0.261   6.664  0.6414 -0.6412 -1.0287
  183SOPE    C320909   1.450   0.336   6.681  0.4162  0.2347  0.0349
  183SOPE    HX20910   1.470   0.229   6.658  1.3768 -0.0744  2.2477
  183SOPE    HY20911   1.354   0.362   6.631  1.0197  1.3956 -0.5394
  183SOPE   O3120912   1.449   0.365   6.820 -0.1518  0.5949  0.1925
  183SOPE   C3120913   1.530   0.273   6.897  0.2549 -0.0625 -0.9777
  183SOPE   O3220914   1.594   0.185   6.857 -0.4555  0.2841  0.3698
  183SOPE   C3220915   1.500   0.305   7.045  0.2232 -0.2142  0.5543
  183SOPE   H2X20916   1.395   0.270   7.053 -0.2303  1.4452  2.2344
  183SOPE   H2Y20917   1.504   0.415   7.060  3.2141 -0.2195  0.0719
  183SOPE   C2320918   2.006   0.447   6.751  0.1161  0.2628  0.1196
  183SOPE   H3R20919   1.988   0.556   6.736 -0.8121  0.1816  0.6109
  183SOPE   H3S20920   2.114   0.427   6.736  0.7140  1.5897  2.4762
  183SOPE   C2420921   1.966   0.416   6.896  0.3277  0.7252  0.1044
  183SOPE   H4R20922   1.866   0.465   6.900 -0.1765 -0.0918 -1.7234
  183SOPE   H4S20923   1.946   0.309   6.915  0.2515  0.5928 -0.6781
  183SOPE   C2520924   2.051   0.477   7.006 -0.2171  0.4119 -0.5740
  183SOPE   H5R20925   2.152   0.430   7.013  0.6250  1.8995 -2.2676
  183SOPE   H5S20926   2.056   0.584   6.975 -3.1772 -0.5590 -4.8123
  183SOPE   C2620927   1.977   0.477   7.143  0.1802 -0.6038 -0.0795
  183SOPE   H6R20928   1.867   0.493   7.131 -0.1959 -3.1960 -0.2778
  183SOPE   H6S20929   2.003   0.374   7.173 -2.0219 -1.5157 -1.1973
  183SOPE   C2720930   2.032   0.577   7.243  0.6156  0.9871  0.0189
  183SOPE   H7R20931   2.141   0.590   7.231  0.8385 -2.5541 -2.4610
  183SOPE   H7S20932   1.982   0.673   7.215 -1.8786 -0.8104 -1.9164
  183SOPE   C2820933   2.011   0.550   7.395  0.0334  0.3966  0.3365
  183SOPE   H8R20934   2.059   0.631   7.455 -0.4415  1.2716 -0.4497
  183SOPE   H8S20935   1.902   0.535   7.409 -0.1574 -0.3991 -1.8691
  183SOPE   C2920936   2.077   0.416   7.426  0.0748 -0.1647  0.3315
  183SOPE   H9120937   2.030   0.327   7.380  0.2179 -0.9329  1.6449
  183SOPE  C21020938   2.171   0.381   7.514  0.1984  0.1003 -0.2352
  183SOPE  H10120939   2.203   0.276   7.526  1.6557  0.5904  0.3119
  183SOPE  C21120940   2.225   0.472   7.615  0.9085  0.7800 -0.4180
  183SOPE  H11R20941   2.162   0.563   7.613  2.8730  2.2421  1.8269
  183SOPE  H11S20942   2.326   0.496   7.577  0.6391  0.4746 -1.3548
  183SOPE  C21220943   2.218   0.406   7.757  0.3528 -0.2761  0.6154
  183SOPE  H12R20944   2.288   0.319   7.766  0.7559  0.1036  1.2476
  183SOPE  H12S20945   2.112   0.377   7.774  0.6571 -1.2282  0.9461
  183SOPE  C21320946   2.256   0.499   7.875  0.4556 -0.2600 -0.2946
  183SOPE  H13R20947   2.232   0.603   7.844 -1.1508 -0.5367 -0.0060
  183SOPE  H13S20948   2.366   0.498   7.895  0.5509 -0.5200 -0.8252
  183SOPE  C21420949   2.187   0.481   8.015 -0.6915  0.1368  0.0405
  183SOPE  H14R20950   2.227   0.566   8.075  0.1214  1.7183 -2.6453
  183SOPE  H14S20951   2.221   0.390   8.068  1.6745  0.8534 -0.1663
  183SOPE  C21520952   2.034   0.498   8.016  0.3337 -0.5643 -0.1808
  183SOPE  H15R20953   1.990   0.416   7.956  0.2319 -2.5243  2.4775
  183SOPE  H15S20954   2.004   0.591   7.964  2.2366  1.4755  2.2322
  183SOPE  C21620955   1.967   0.513   8.155 -0.5825 -0.6689 -0.1531
  183SOPE  H16R20956   2.030   0.586   8.211 -1.0863  0.7627 -1.3930
  183SOPE  H16S20957   1.972   0.420   8.216 -1.3179 -0.3828  0.3617
  183SOPE  C21720958   1.828   0.570   8.153  0.3626  0.2052 -0.2587
  183SOPE  H17R20959   1.751   0.515   8.095  0.0081 -0.9459  1.2846
  183SOPE  H17S20960   1.825   0.665   8.095  1.7572 -0.5383 -1.5484
  183SOPE  C21820961   1.776   0.598   8.298 -0.0309  0.1763 -0.1800
  183SOPE  H18R20962   1.832   0.683   8.344  0.4913 -0.4859  0.4128
  183SOPE  H18S20963   1.775   0.510   8.365 -2.4879  1.0708  1.0144
  183SOPE  H18T20964   1.669   0.626   8.291 -0.3028 -1.1443 -1.4737
  183SOPE   C3320965   1.594   0.237   7.136 -0.3059  0.3991  0.3465
  183SOPE   H3X20966   1.699   0.227   7.103  0.2104  1.1396  1.7101
  183SOPE   H3Y20967   1.570   0.129   7.135 -0.6185  0.4450 -2.4868
  183SOPE   C3420968   1.589   0.298   7.281 -0.3960  0.5025  0.6671
  183SOPE   H4X20969   1.487   0.281   7.321  0.2282 -2.0635  1.2617
  183SOPE   H4Y20970   1.608   0.407   7.274 -1.9609  0.7023 -0.6801
  183SOPE   C3520971   1.697   0.241   7.372 -0.3970 -0.5447  1.0158
  183SOPE   H5X20972   1.793   0.282   7.333 -1.5198  0.6096 -0.5806
  183SOPE   H5Y20973   1.693   0.131   7.361 -1.4349 -0.4935  0.8654
  183SOPE   C3620974   1.684   0.277   7.519  0.2609 -0.3300 -0.0671
  183SOPE   H6X20975   1.579   0.266   7.553  0.5901  0.0745  1.1123
  183SOPE   H6Y20976   1.705   0.385   7.532 -3.1859  0.4941 -0.7626
  183SOPE   C3720977   1.773   0.198   7.618 -0.0105 -0.6334 -0.2980
  183SOPE   H7X20978   1.880   0.183   7.593 -0.0254  0.2444 -0.8914
  183SOPE   H7Y20979   1.739   0.093   7.629 -1.3001 -0.4799 -2.6660
  183SOPE   C3820980   1.783   0.254   7.764  0.4245  1.0200  0.8194
  183SOPE   H8X20981   1.713   0.340   7.773 -1.4350 -0.4435  0.7833
  183SOPE   H8Y20982   1.883   0.298   7.782  0.3335  1.0600  1.2585
  183SOPE   C3920983   1.745   0.153   7.875  0.0948  0.1967 -0.6876
  183SOPE   H9X20984   1.805   0.061   7.857 -0.9055 -0.5575 -0.2496
  183SOPE   H9Y20985   1.638   0.131   7.857 -0.0784  1.0892 -0.7917
  183SOPE  C31020986   1.756   0.214   8.011  0.1139  0.1392 -0.4049
  183SOPE  H10X20987   1.700   0.310   8.012 -0.5883 -0.2533 -1.1258
  183SOPE  H10Y20988   1.856   0.247   8.047 -0.9917  1.9606  1.0802
  183SOPE  C31120989   1.712   0.118   8.126 -0.1883 -0.2358  0.0945
  183SOPE  H11X20990   1.780   0.030   8.118  0.2020  0.0416  0.3527
  183SOPE  H11Y20991   1.612   0.079   8.096 -0.9017  0.4625  1.5031
  183SOPE  C31220992   1.709   0.188   8.262  0.6494 -0.3824 -0.1730
  183SOPE  H12X20993   1.624   0.259   8.260 -0.2164 -1.3925  0.3830
  183SOPE  H12Y20994   1.798   0.252   8.280 -1.0305  1.3838  2.1341
  183SOPE  C31320995   1.691   0.097   8.385  0.0797 -0.0494 -0.3989
  183SOPE  H13X20996   1.769   0.018   8.390 -0.0162 -0.0247  2.6663
  183SOPE  H13Y20997   1.596   0.039   8.379  1.1613 -1.9168  0.4327
  183SOPE  C31420998   1.663   0.183   8.513 -0.7942  0.6951  0.9781
  183SOPE  H14X20999   1.584   0.256   8.484 -0.8385 -0.4961 -2.0694
  183SOPE  H14Y21000   1.750   0.244   8.547  0.0970  1.0511 -1.7918
  183SOPE  C31521001   1.609   0.096   8.625 -0.3021  1.0926 -0.2955
  183SOPE  H15X21002   1.701   0.062   8.678 -1.4290  0.4189  1.2550
  183SOPE  H15Y21003   1.558   0.005   8.586  1.0333  0.7482 -1.3183
  183SOPE  C31621004   1.518   0.162   8.728 -0.3327 -0.0493 -0.3926
  183SOPE  H16X21005   1.442   0.218   8.668 -0.8534  0.5571  0.8280
  183SOPE  H16Y21006   1.573   0.244   8.779 -3.0665  1.8633 -0.3849
  183SOPE  C31721007   1.432   0.074   8.821 -0.6973 -0.3446  0.1242
  183SOPE  H17X21008   1.501   0.002   8.868 -1.0493 -1.1724 -0.6144
  183SOPE  H17Y21009   1.354   0.011   8.772  1.2316 -2.5173 -0.2194
  183SOPE  C31821010   1.384   0.151   8.948  1.2173  0.1979 -0.5024
  183SOPE  H18X21011   1.342   0.076   9.019  3.6528  1.4109  2.2986
  183SOPE  H18Y21012   1.310   0.231   8.926 -0.7364 -0.4885  3.2739
  183SOPE  H18Z21013   1.473   0.194   8.998  0.7036  1.0017 -0.2727
  184SOPE     N21014   1.035   1.199   6.341  0.5094 -0.0768 -0.0263
  184SOPE   HN121015   1.045   1.302   6.340  1.2164 -0.1479 -1.5159
  184SOPE   HN221016   0.953   1.175   6.283  0.2739 -3.2396  1.4839
  184SOPE   HN321017   1.037   1.154   6.435  0.5506 -1.5467 -0.7170
  184SOPE   C1221018   1.158   1.144   6.268 -0.2508  0.3878 -0.3675
  184SOPE  H12A21019   1.246   1.137   6.335 -0.6091 -1.8830 -0.0976
  184SOPE  H12B21020   1.177   1.215   6.185  0.5246 -0.6112 -1.0516
  184SOPE   C1121021   1.120   1.012   6.205  0.2199 -0.2116  0.3479
  184SOPE  H11A21022   1.209   0.952   6.178  0.4908 -0.0823  0.9666
  184SOPE  H11B21023   1.068   1.023   6.107  0.6791 -0.3979  0.0834
  184SOPE     P21024   0.942   0.829   6.249 -0.1152  0.4328  0.0409
  184SOPE   O1321025   0.999   0.714   6.173  0.1368  0.0178 -0.1162
  184SOPE   O1421026   0.835   0.911   6.185  0.7215 -0.1251 -0.4480
  184SOPE   O1221027   1.050   0.929   6.298 -0.1044 -0.0602 -0.1767
  184SOPE   O1121028   0.878   0.775   6.393  0.2351 -0.1255  0.5570
  184SOPE    C121029   0.885   0.855   6.513 -0.9095  0.0291 -0.4224
  184SOPE    HA21030   0.857   0.961   6.496 -0.6766  0.1184 -0.2439
  184SOPE    HB21031   0.989   0.842   6.549  0.1803  0.6375 -3.2405
  184SOPE    C221032   0.780   0.804   6.620 -0.5119 -0.3479  0.1192
  184SOPE    HS21033   0.717   0.894   6.635 -2.0118 -1.1669 -1.2173
  184SOPE   O2121034   0.849   0.756   6.740 -0.1602 -0.0277  0.2013
  184SOPE   C2121035   0.913   0.845   6.816  0.5141  0.3801  0.2710
  184SOPE   O2221036   0.912   0.963   6.810  0.1792  0.2573  0.1352
  184SOPE   C2221037   1.000   0.765   6.915  0.4997 -0.1372  0.0428
  184SOPE   H2R21038   1.033   0.834   6.995  0.2773  0.2170 -0.1730
  184SOPE   H2S21039   1.095   0.731   6.867  0.7015 -0.8661  0.9398
  184SOPE    C321040   0.695   0.694   6.562 -0.2359 -0.3390 -0.2498
  184SOPE    HX21041   0.768   0.611   6.550  0.7955  0.6298 -0.7295
  184SOPE    HY21042   0.642   0.704   6.464  0.8540 -0.3320 -0.8480
  184SOPE   O3121043   0.598   0.644   6.658 -0.1299 -0.1441 -0.0377
  184SOPE   C3121044   0.482   0.713   6.666  0.2069  1.2724  0.3257
  184SOPE   O3221045   0.443   0.794   6.582  0.1135  0.2740  0.1504
  184SOPE   C3221046   0.418   0.662   6.800  0.0384 -0.0518  0.9093
  184SOPE   H2X21047   0.420   0.552   6.784 -0.9168 -0.1399  1.3860
  184SOPE   H2Y21048   0.308   0.678   6.796 -0.2675 -1.9975  1.2943
  184SOPE   C2321049   0.929   0.637   6.975 -0.1210 -0.2094 -0.2708
  184SOPE   H3R21050   0.954   0.556   6.903  1.9542 -0.4695  0.6999
  184SOPE   H3S21051   0.819   0.640   6.986 -0.0471  1.1298  0.1623
  184SOPE   C2421052   0.988   0.599   7.115 -0.7593  0.0323 -0.3131
  184SOPE   H4R21053   1.018   0.687   7.175  2.3283 -1.2991  0.1971
  184SOPE   H4S21054   0.906   0.546   7.169  1.0975 -1.0498  1.5281
  184SOPE   C2521055   1.103   0.506   7.093 -0.0216 -0.1914 -0.5867
  184SOPE   H5R21056   1.075   0.410   7.045  0.6901  0.5252 -2.4922
  184SOPE   H5S21057   1.184   0.542   7.026  0.6181  0.1343  0.3529
  184SOPE   C2621058   1.179   0.463   7.222  0.3882  0.1054 -0.0329
  184SOPE   H6R21059   1.267   0.397   7.207  0.1940 -0.6000  1.7385
  184SOPE   H6S21060   1.221   0.557   7.265 -2.8474  0.1975  3.0897
  184SOPE   C2721061   1.103   0.382   7.330  0.0233  0.5350 -0.4150
  184SOPE   H7R21062   0.994   0.405   7.336 -0.2360 -0.9760  1.0398
  184SOPE   H7S21063   1.104   0.275   7.302 -0.8650  0.4408 -0.0931
  184SOPE   C2821064   1.157   0.395   7.475 -0.0980  0.3404 -0.0312
  184SOPE   H8R21065   1.263   0.362   7.479 -1.0940 -2.7978  1.7636
  184SOPE   H8S21066   1.157   0.504   7.499 -0.3438 -0.4109  3.7674
  184SOPE   C2921067   1.072   0.318   7.576 -0.2157 -0.2089 -0.6173
  184SOPE   H9121068   0.965   0.322   7.548 -0.1483  1.0387 -0.7674
  184SOPE  C21021069   1.116   0.243   7.679  0.1677 -0.6156  0.1331
  184SOPE  H10121070   1.039   0.193   7.738  0.0083 -1.7607 -1.0097
  184SOPE  C21121071   1.257   0.231   7.712 -0.4251  0.1636  0.4863
  184SOPE  H11R21072   1.323   0.268   7.631  0.2712  1.6526  1.7006
  184SOPE  H11S21073   1.273   0.121   7.726  1.4020  0.5503  1.6657
  184SOPE  C21221074   1.319   0.304   7.832 -0.7082 -0.4806  0.7241
  184SOPE  H12R21075   1.303   0.413   7.829 -0.6231 -0.4833 -0.0903
  184SOPE  H12S21076   1.430   0.299   7.826 -0.7452  0.1385 -0.5722
  184SOPE  C21321077   1.286   0.246   7.971  0.9364 -0.5509  0.2413
  184SOPE  H13R21078   1.291   0.135   7.972  2.8633 -0.4644  2.1680
  184SOPE  H13S21079   1.185   0.280   8.003  1.4774  1.2403  0.0871
  184SOPE  C21421080   1.376   0.280   8.087 -0.3041 -0.5610  0.2819
  184SOPE  H14R21081   1.384   0.388   8.112  1.7567 -0.8395  0.9173
  184SOPE  H14S21082   1.475   0.245   8.051 -0.3302  0.3218 -0.6539
  184SOPE  C21521083   1.334   0.206   8.215  0.4523 -1.0172 -0.3372
  184SOPE  H15R21084   1.418   0.159   8.269 -0.0628  0.1945  1.5389
  184SOPE  H15S21085   1.263   0.122   8.196 -2.3341  0.5793  2.6952
  184SOPE  C21621086   1.262   0.293   8.327 -0.2360 -1.1546 -0.1521
  184SOPE  H16R21087   1.168   0.332   8.283 -1.6826 -2.5352  1.6646
  184SOPE  H16S21088   1.326   0.376   8.365 -1.9082 -0.1208  0.4724
  184SOPE  C21721089   1.232   0.205   8.443  0.4702 -0.3398  0.3592
  184SOPE  H17R21090   1.322   0.146   8.469 -0.1168 -2.3825 -2.1230
  184SOPE  H17S21091   1.171   0.122   8.401  1.1121 -0.7418  0.2249
  184SOPE  C21821092   1.180   0.267   8.572  0.7662 -0.3658 -0.0569
  184SOPE  H18R21093   1.246   0.345   8.615  1.6091 -1.4632  0.6736
  184SOPE  H18S21094   1.174   0.180   8.642  0.9854 -0.1287  0.2589
  184SOPE  H18T21095   1.081   0.309   8.545  0.2111 -2.8644 -2.0952
  184SOPE   C3321096   0.484   0.711   6.924 -0.2125  0.3595  0.3792
  184SOPE   H3X21097   0.466   0.820   6.923 -1.8000  0.1567 -3.2042
  184SOPE   H3Y21098   0.594   0.696   6.917 -0.3581 -0.8115  0.4107
  184SOPE   C3421099   0.427   0.647   7.047  0.2213 -0.4797  0.1958
  184SOPE   H4X21100   0.429   0.536   7.043  1.1744 -0.4393 -0.4223
  184SOPE   H4Y21101   0.320   0.675   7.063 -0.8090 -3.0869 -1.7774
  184SOPE   C3521102   0.522   0.687   7.175  0.2507  0.7195  0.6919
  184SOPE   H5X21103   0.566   0.787   7.158 -1.2119  1.3692  0.6462
  184SOPE   H5Y21104   0.609   0.619   7.162  0.3399  1.3229 -2.3383
  184SOPE   C3621105   0.449   0.666   7.304 -0.3102  0.2496  0.8718
  184SOPE   H6X21106   0.422   0.559   7.319  0.8365 -0.5630 -2.4286
  184SOPE   H6Y21107   0.361   0.724   7.269 -0.8680 -0.4871  1.0442
  184SOPE   C3721108   0.527   0.710   7.428  0.0344  0.2794  0.3559
  184SOPE   H7X21109   0.550   0.818   7.424  0.4354  0.1421 -1.5488
  184SOPE   H7Y21110   0.627   0.662   7.429  1.2560  2.7988  1.3201
  184SOPE   C3821111   0.449   0.688   7.558 -0.1123  0.0267  0.5844
  184SOPE   H8X21112   0.429   0.580   7.576 -1.3431  0.2358  0.5124
  184SOPE   H8Y21113   0.354   0.744   7.549  0.1118  0.6402  1.9604
  184SOPE   C3921114   0.529   0.744   7.680  0.0763 -0.4309  0.3509
  184SOPE   H9X21115   0.521   0.852   7.658 -0.9553 -0.3105  1.2598
  184SOPE   H9Y21116   0.633   0.706   7.690  0.0188 -0.4359  0.9688
  184SOPE  C31021117   0.453   0.723   7.812 -0.2637  0.3165 -0.1106
  184SOPE  H10X21118   0.427   0.615   7.819 -1.2382  0.7117  3.0672
  184SOPE  H10Y21119   0.360   0.783   7.799 -1.3623 -1.3050  0.1374
  184SOPE  C31121120   0.537   0.772   7.931 -0.0346 -0.2135  0.2005
  184SOPE  H11X21121   0.579   0.872   7.907  1.7032 -1.0815 -0.4526
  184SOPE  H11Y21122   0.625   0.708   7.949  2.1984  2.3844 -1.1571
  184SOPE  C31221123   0.473   0.787   8.070  0.5062 -0.2093 -0.2033
  184SOPE  H12X21124   0.419   0.693   8.092  1.6094 -1.0543 -1.0685
  184SOPE  H12Y21125   0.402   0.873   8.064 -0.9098 -1.4476 -1.8157
  184SOPE  C31321126   0.567   0.817   8.190  0.2645 -0.0854  0.3015
  184SOPE  H13X21127   0.606   0.728   8.244  0.9409 -0.6636 -1.1350
  184SOPE  H13Y21128   0.511   0.870   8.270  1.2088  0.5389  0.5573
  184SOPE  C31421129   0.683   0.909   8.156 -0.7834 -0.6296 -0.9107
  184SOPE  H14X21130   0.648   1.000   8.102  0.1789  0.9977  1.1345
  184SOPE  H14Y21131   0.753   0.850   8.094  0.3928 -0.6511  0.4241
  184SOPE  C31521132   0.754   0.936   8.291 -0.0311  0.0606 -0.0298
  184SOPE  H15X21133   0.796   0.846   8.341 -3.1729 -0.1341  2.4181
  184SOPE  H15Y21134   0.699   0.995   8.366  0.0983  1.2198 -0.8380
  184SOPE  C31621135   0.870   1.037   8.264 -0.2816 -0.3195 -0.1013
  184SOPE  H16X21136   0.832   1.132   8.221 -2.9022 -0.6638  1.3696
  184SOPE  H16Y21137   0.929   0.977   8.192  1.5131  1.9942 -0.6060
  184SOPE  C31721138   0.958   1.072   8.384 -0.3944 -0.5654  0.4308
  184SOPE  H17X21139   0.994   0.978   8.431 -1.8338 -2.7297 -2.7119
  184SOPE  H17Y21140   0.887   1.114   8.459 -0.1466  0.2188  0.2345
  184SOPE  C31821141   1.078   1.160   8.350  0.0950  0.4806  0.3823
  184SOPE  H18X21142   1.167   1.117   8.299 -1.5313 -0.0293 -2.1480
  184SOPE  H18Y21143   1.113   1.204   8.445 -1.2746  1.0377  0.6428
  184SOPE  H18Z21144   1.036   1.247   8.295 -0.3096  0.1389  0.1431
  185SAPI   C1221145   4.251   4.524  10.941 -0.8556  0.4319 -0.2492
  185SAPI    H221146   4.219   4.562  10.842  0.2114 -0.8784 -1.1229
  185SAPI    O221147   4.330   4.409  10.906  0.3222  0.2279 -0.0771
  185SAPI   HO221148   4.292   4.364  10.831 -0.3809 -0.9958  1.0147
  185SAPI   C1321149   4.321   4.637  11.016 -0.3905 -0.4564 -0.0163
  185SAPI    H321150   4.250   4.722  11.005  4.0994  3.6666  1.0392
  185SAPI    O321151   4.425   4.684  10.938 -0.2490 -0.2438 -0.3891
  185SAPI   HO321152   4.491   4.615  10.932  2.2819  2.0690 -0.1851
  185SAPI   C1421153   4.361   4.597  11.153 -0.0476 -0.3437 -0.3258
  185SAPI    H421154   4.417   4.501  11.145 -0.1921 -0.3174 -1.7627
  185SAPI    O421155   4.441   4.705  11.220 -0.2814 -0.0074 -0.3012
  185SAPI   HO421156   4.530   4.678  11.198  0.2845  0.3152  1.5096
  185SAPI   C1521157   4.242   4.555  11.230  0.1206 -0.1080  0.4804
  185SAPI    H521158   4.185   4.649  11.245 -0.9569 -0.6280 -0.3846
  185SAPI    O521159   4.263   4.511  11.359  0.2426 -0.3830 -0.3254
  185SAPI   HO521160   4.337   4.556  11.401  0.4657 -0.6459 -0.4346
  185SAPI   C1621161   4.163   4.450  11.158 -0.4617 -0.3420 -0.2088
  185SAPI    H621162   4.229   4.361  11.154  0.1041  0.0474  0.4361
  185SAPI    O621163   4.041   4.417  11.222 -0.3797  0.5485  0.0970
  185SAPI   HO621164   4.007   4.496  11.265 -1.1272  1.1069 -1.4687
  185SAPI   C1121165   4.126   4.500  11.019 -0.0785  0.3117 -0.1399
  185SAPI    H121166   4.082   4.600  11.038 -1.7797 -0.7026  1.4534
  185SAPI     P21167   3.881   4.450  10.928  0.2463 -0.4289 -0.2084
  185SAPI   O1321168   3.842   4.583  10.981 -0.0790  0.0155  0.3599
  185SAPI   O1421169   3.810   4.337  10.989 -0.7464  0.5568 -0.2407
  185SAPI   O1221170   4.043   4.420  10.932 -0.1556  0.0907 -0.0029
  185SAPI   O1121171   3.845   4.454  10.768  0.2817 -0.1448 -0.5136
  185SAPI    C121172   3.943   4.439  10.672  0.6597  0.0565 -0.3282
  185SAPI    HA21173   3.916   4.495  10.580  1.6255 -0.9129 -1.2107
  185SAPI    HB21174   4.042   4.483  10.699  0.4241 -0.8220  2.0748
  185SAPI    C221175   3.968   4.291  10.629  0.2272 -0.2496  0.7760
  185SAPI    HS21176   3.996   4.227  10.716  0.2469  0.2413  1.1291
  185SAPI   O2121177   4.070   4.288  10.524  0.6930  0.3676 -0.9902
  185SAPI   C2121178   4.189   4.306  10.573 -0.1224 -0.3513 -0.1693
  185SAPI   O2221179   4.222   4.304  10.690 -0.0505  0.3180  1.0183
  185SAPI   C2221180   4.291   4.342  10.463 -0.3516  0.5067  0.3705
  185SAPI   H2R21181   4.236   4.403  10.388  2.2001  1.7968 -0.5243
  185SAPI   H2S21182   4.371   4.395  10.520 -0.0734  0.3099  0.1690
  185SAPI    C321183   3.831   4.229  10.580 -0.7682  0.2639  0.6538
  185SAPI    HX21184   3.755   4.270  10.651 -0.6511  0.8723  0.4343
  185SAPI    HY21185   3.832   4.120  10.602  0.3833 -0.0063 -0.7050
  185SAPI   O3121186   3.796   4.270  10.445 -0.1018 -0.4864 -0.1413
  185SAPI   C3121187   3.796   4.176  10.357 -0.3414 -0.2466  0.3685
  185SAPI   O3221188   3.839   4.058  10.366 -0.2860  0.8474 -0.1680
  185SAPI   C3221189   3.737   4.235  10.218  0.0457 -0.2586 -0.5235
  185SAPI   H2X21190   3.730   4.346  10.219 -1.7972 -0.3552 -0.3164
  185SAPI   H2Y21191   3.630   4.204  10.218  0.7286 -2.6875 -0.2120
  185SAPI   C2321192   4.348   4.215  10.389 -0.1413 -0.6312  0.4313
  185SAPI   H3R21193   4.379   4.142  10.466  2.2169  0.0387  0.1694
  185SAPI   H3S21194   4.431   4.238  10.319 -1.5453  0.4427 -0.9283
  185SAPI   C2421195   4.244   4.141  10.291  0.0726 -0.7385  0.4151
  185SAPI   H4R21196   4.223   4.196  10.196  1.2642  2.7383  2.0717
  185SAPI   H4S21197   4.153   4.145  10.354  0.5174 -1.1171  1.0857
  185SAPI   C2521198   4.259   3.995  10.254  0.1592  0.0772 -0.6276
  185SAPI   H5R21199   4.302   3.925  10.328  0.5014  0.2001 -0.7084
  185SAPI   C2621200   4.221   3.944  10.139 -0.3194  0.3161  0.4033
  185SAPI   H6R21201   4.241   3.837  10.129  2.2041  0.9086 -1.3429
  185SAPI   C2721202   4.156   4.014  10.018  0.4545 -0.8322  0.1303
  185SAPI   H7R21203   4.066   4.069  10.051  0.1166 -1.5851  0.4740
  185SAPI   H7S21204   4.121   3.941   9.942 -1.2529 -0.1300  0.2352
  185SAPI   C2821205   4.243   4.112   9.933 -0.4156  0.1297  0.3783
  185SAPI   H8R21206   4.330   4.141   9.994  1.4230 -1.2589 -1.4940
  185SAPI   C2921207   4.241   4.138   9.800  0.1274 -0.3483  0.1011
  185SAPI   H9R21208   4.317   4.209   9.766 -0.4982  0.0679 -0.4233
  185SAPI  C21021209   4.139   4.081   9.704 -0.2158 -0.1531 -0.4981
  185SAPI  H10R21210   4.104   4.157   9.631  0.6574  1.0551  0.3209
  185SAPI  H10S21211   4.049   4.039   9.752 -0.6343  1.3882  0.1015
  185SAPI  C21121212   4.216   3.965   9.644 -0.3052 -0.5635  0.4683
  185SAPI  H11R21213   4.235   3.875   9.704  2.0489 -1.2681 -1.2762
  185SAPI  C21221214   4.246   3.940   9.517 -0.5246 -0.3262  0.0387
  185SAPI  H12R21215   4.302   3.852   9.483  1.5114  1.2642 -0.8640
  185SAPI  C21321216   4.200   4.023   9.399 -0.4288  0.0299 -1.1715
  185SAPI  H13R21217   4.281   4.025   9.323  0.5308 -2.0519 -0.2447
  185SAPI  H13S21218   4.170   4.122   9.440  1.1481 -1.4518  3.9525
  185SAPI  C21421219   4.079   3.968   9.324  0.0995  0.4180  0.0815
  185SAPI  H14R21220   3.984   3.987   9.377  0.7540  1.5628  0.8616
  185SAPI  C21521221   4.069   3.931   9.194 -0.3602  0.8132  0.1399
  185SAPI  H15R21222   3.972   3.888   9.166  1.0744  1.6066 -7.0008
  185SAPI  C21621223   4.176   3.927   9.083 -0.1901 -0.0147  0.5081
  185SAPI  H16R21224   4.254   3.848   9.090 -1.0225 -0.8962 -0.0212
  185SAPI  H16S21225   4.228   4.025   9.075 -1.0985  0.4796  0.4906
  185SAPI  C21721226   4.106   3.900   8.949 -0.5343  0.0348  0.4410
  185SAPI  H17R21227   4.016   3.962   8.930  0.4140  0.3939 -3.3757
  185SAPI  H17S21228   4.071   3.794   8.953 -1.0326  0.2121  0.8593
  185SAPI  C21821229   4.198   3.919   8.824  0.3605  0.0504  0.2850
  185SAPI  H18R21230   4.255   3.825   8.807 -0.8025 -0.7070  0.5160
  185SAPI  H18S21231   4.263   4.002   8.859  0.9548 -1.7043  3.5664
  185SAPI  C21921232   4.135   3.953   8.691 -0.0297 -0.1495  0.1632
  185SAPI  H19R21233   4.058   4.032   8.695 -1.3783 -1.4709  0.9662
  185SAPI  H19S21234   4.064   3.876   8.654  0.0759 -0.1353 -0.0662
  185SAPI  C22021235   4.231   3.954   8.574  0.6535 -0.8485 -0.3722
  185SAPI  H20R21236   4.304   4.037   8.577  0.2841 -0.4663 -1.8310
  185SAPI  H20S21237   4.159   3.966   8.491 -1.5551  0.1237  1.6253
  185SAPI  H20T21238   4.277   3.853   8.567  1.6976 -0.4118  0.0810
  185SAPI   C3321239   3.800   4.168  10.095  0.6178  0.5907  0.6628
  185SAPI   H3X21240   3.788   4.058  10.102  0.1120  0.6730  1.1152
  185SAPI   H3Y21241   3.909   4.190  10.099  0.7221 -0.0552  1.8942
  185SAPI   C3421242   3.731   4.219   9.965 -0.4356  0.5783 -0.4382
  185SAPI   H4X21243   3.767   4.324   9.954  0.4688  0.2496 -0.6820
  185SAPI   H4Y21244   3.621   4.204   9.965 -0.5695  1.5353 -0.4705
  185SAPI   C3521245   3.791   4.166   9.832 -0.3983  0.1410  0.1502
  185SAPI   H5X21246   3.773   4.058   9.818  0.6487 -0.0419  0.1802
  185SAPI   H5Y21247   3.902   4.174   9.841 -0.4532 -0.0740  1.0313
  185SAPI   C3621248   3.737   4.249   9.716  0.0856  0.2824  0.1085
  185SAPI   H6X21249   3.787   4.348   9.720  0.3171  0.1212  1.6265
  185SAPI   H6Y21250   3.627   4.270   9.719  0.0855  0.3581 -0.4593
  185SAPI   C3721251   3.782   4.180   9.589  0.2936  0.0410  0.0761
  185SAPI   H7X21252   3.732   4.084   9.610  1.6250 -0.3763  1.4489
  185SAPI   H7Y21253   3.892   4.164   9.581  0.2704  0.4146 -1.1314
  185SAPI   C3821254   3.734   4.238   9.459  0.2175 -0.3443 -0.5033
  185SAPI   H8X21255   3.769   4.343   9.465  1.8164 -0.8805 -0.0367
  185SAPI   H8Y21256   3.625   4.234   9.436 -0.3355  0.0744  1.8956
  185SAPI   C3921257   3.797   4.170   9.327 -0.4050  0.1253 -0.5696
  185SAPI   H9X21258   3.783   4.060   9.338 -0.5955  0.2222  0.2040
  185SAPI   H9Y21259   3.907   4.182   9.315 -0.4467 -0.8024 -1.9758
  185SAPI  C31021260   3.727   4.215   9.200  0.3629  0.2863 -0.2342
  185SAPI  H10X21261   3.748   4.324   9.203  0.0140  0.3232  1.3916
  185SAPI  H10Y21262   3.616   4.209   9.210  0.2707  0.5128 -1.0871
  185SAPI  C31121263   3.784   4.146   9.079  0.1208 -0.1368  0.2272
  185SAPI  H11X21264   3.779   4.035   9.083  0.5898 -0.3094 -2.6234
  185SAPI  H11Y21265   3.894   4.166   9.073 -0.1619  0.9607 -1.8050
  185SAPI  C31221266   3.727   4.220   8.952  0.5700 -0.4989 -0.1195
  185SAPI  H12X21267   3.733   4.327   8.983  3.0600 -0.5667 -0.2830
  185SAPI  H12Y21268   3.623   4.184   8.939  1.6410 -2.6885 -3.2411
  185SAPI  C31321269   3.799   4.196   8.816 -0.4181 -0.0532 -1.0358
  185SAPI  H13X21270   3.824   4.089   8.796  1.1295  0.2425 -0.7602
  185SAPI  H13Y21271   3.900   4.243   8.814 -0.5399  0.2843  0.4753
  185SAPI  C31421272   3.711   4.257   8.702 -0.6003  0.9868  0.1560
  185SAPI  H14X21273   3.697   4.366   8.718 -0.8229  1.0300 -0.3207
  185SAPI  H14Y21274   3.608   4.214   8.709 -0.2956  0.3061  0.5916
  185SAPI  C31521275   3.770   4.232   8.563 -0.0485  0.0936 -0.5441
  185SAPI  H15X21276   3.877   4.202   8.561 -0.0875 -0.3378  2.0018
  185SAPI  H15Y21277   3.753   4.317   8.493 -2.6880 -2.0343 -2.6016
  185SAPI  C31621278   3.701   4.110   8.486  0.6183 -0.1479  0.8762
  185SAPI  H16X21279   3.605   4.146   8.443  1.3382 -0.6989 -1.2695
  185SAPI  H16Y21280   3.689   4.021   8.552  0.6948  0.0250  1.1206
  185SAPI  C31721281   3.785   4.074   8.368  0.5758 -0.0281  0.3356
  185SAPI  H17X21282   3.876   4.028   8.412  0.6209  0.2366  0.5186
  185SAPI  H17Y21283   3.813   4.165   8.311 -0.2215 -0.1184 -0.2108
  185SAPI  C31821284   3.717   3.974   8.274 -0.0738  0.3218  0.5141
  185SAPI  H18X21285   3.730   3.869   8.306 -0.6067 -0.1541 -0.8192
  185SAPI  H18Y21286   3.764   3.977   8.174 -2.2764 -0.8287 -0.5832
  185SAPI  H18Z21287   3.607   3.993   8.280 -0.1311  1.1729 -2.4847
  186SAPI   C1221288   4.278   1.867  10.539  0.7514  0.0362 -0.0360
  186SAPI    H221289   4.326   1.960  10.501 -0.0752  0.9959  1.2493
  186SAPI    O221290   4.150   1.915  10.577  0.5090  0.1545  0.0954
  186SAPI   HO221291   4.166   1.999  10.621 -0.9643  0.1748  0.6338
  186SAPI   C1321292   4.263   1.770  10.424 -0.6904  0.5035  0.2525
  186SAPI    H321293   4.367   1.745  10.397 -0.2849  1.6219  0.7336
  186SAPI    O321294   4.214   1.838  10.303 -0.6455 -0.1296 -0.0539
  186SAPI   HO321295   4.134   1.889  10.321 -1.0875  0.1389 -2.6122
  186SAPI   C1421296   4.191   1.639  10.462 -0.0904  0.0341  0.7439
  186SAPI    H421297   4.085   1.665  10.485 -0.1331  0.4687  0.0920
  186SAPI    O421298   4.188   1.548  10.358  0.5362  0.1282  0.6086
  186SAPI   HO421299   4.115   1.571  10.301 -0.1149 -4.1697 -0.5106
  186SAPI   C1521300   4.257   1.576  10.587  0.9209  0.0112 -0.0732
  186SAPI    H521301   4.356   1.539  10.553 -0.6229 -2.2277 -2.2065
  186SAPI    O521302   4.184   1.460  10.626  1.0979  0.2990 -0.2735
  186SAPI   HO521303   4.240   1.426  10.697 -2.5792  0.3831  2.8489
  186SAPI   C1621304   4.274   1.676  10.697 -0.2638  0.2037 -0.1185
  186SAPI    H621305   4.177   1.702  10.746 -1.0658 -0.6304 -1.2417
  186SAPI    O621306   4.346   1.613  10.806 -0.5661 -0.2759 -0.2723
  186SAPI   HO621307   4.438   1.600  10.783 -0.5420  0.3200 -0.5189
  186SAPI   C1121308   4.349   1.804  10.652 -0.4193 -0.2385  0.5621
  186SAPI    H121309   4.444   1.761  10.615 -0.5983  0.8530 -1.2284
  186SAPI     P21310   4.525   1.938  10.784  0.0534 -0.0067  0.3282
  186SAPI   O1321311   4.615   1.826  10.759  0.0309  0.1734 -0.1635
  186SAPI   O1421312   4.529   2.002  10.913  0.2848  0.5589  0.1368
  186SAPI   O1221313   4.369   1.887  10.763 -0.1007 -0.2777  0.1964
  186SAPI   O1121314   4.542   2.047  10.673 -0.1181 -0.0972  0.0188
  186SAPI    C121315   4.669   2.117  10.645 -0.4370  0.1757 -0.4268
  186SAPI    HA21316   4.667   2.222  10.681  0.0611  0.0888 -0.1472
  186SAPI    HB21317   4.751   2.069  10.702 -0.9479  2.0860  2.0208
  186SAPI    C221318   4.701   2.099  10.494 -0.1513  0.9281  0.9284
  186SAPI    HS21319   4.799   2.147  10.474 -0.6520  0.5785 -2.6671
  186SAPI   O2121320   4.599   2.155  10.408  0.6023  0.4665  0.1603
  186SAPI   C2121321   4.580   2.281  10.402 -0.6783 -0.9886  0.3808
  186SAPI   O2221322   4.634   2.369  10.468  0.6171 -0.2833  0.0931
  186SAPI   C2221323   4.475   2.312  10.289  0.0567  0.6785  0.4697
  186SAPI   H2R21324   4.509   2.396  10.225  1.7104  0.9376  1.6395
  186SAPI   H2S21325   4.463   2.218  10.231 -1.0226  1.6289 -0.9065
  186SAPI    C321326   4.728   1.945  10.443  0.0022 -0.5442 -0.3237
  186SAPI    HX21327   4.638   1.882  10.456 -0.4171  0.2376  0.5918
  186SAPI    HY21328   4.789   1.893  10.520 -1.9953 -0.7222  1.1647
  186SAPI   O3121329   4.782   1.940  10.312 -0.1719 -0.2257 -0.8846
  186SAPI   C3121330   4.843   1.831  10.269 -0.4544  0.0868  0.1634
  186SAPI   O3221331   4.851   1.724  10.330  0.0724  0.1171  0.2668
  186SAPI   C3221332   4.888   1.849  10.126  0.3930  0.5743 -0.3465
  186SAPI   H2X21333   4.996   1.869  10.143  0.3419 -1.2959  2.6675
  186SAPI   H2Y21334   4.830   1.934  10.085  2.8133  2.7401  0.5915
  186SAPI   C2321335   4.335   2.343  10.348  0.7924  0.2018  0.1346
  186SAPI   H3R21336   4.338   2.448  10.384 -0.8320  0.6712 -1.0166
  186SAPI   H3S21337   4.309   2.274  10.431  0.6720 -0.7495 -0.6856
  186SAPI   C2421338   4.223   2.319  10.243  0.3024  0.7984  0.3637
  186SAPI   H4R21339   4.129   2.316  10.301  0.9896  0.8407  1.4981
  186SAPI   H4S21340   4.240   2.220  10.194  1.6572  0.5216  1.3485
  186SAPI   C2521341   4.228   2.422  10.135 -0.5660  0.5252  0.1415
  186SAPI   H5R21342   4.217   2.528  10.165  0.0126  0.2385  1.3892
  186SAPI   C2621343   4.227   2.400  10.000  0.2605 -0.4857  0.2243
  186SAPI   H6R21344   4.233   2.492   9.940 -1.6117 -0.7627 -0.4176
  186SAPI   C2721345   4.228   2.269   9.928  0.6125  0.0020  0.1331
  186SAPI   H7R21346   4.241   2.181   9.994  0.8971  0.3094  0.4933
  186SAPI   H7S21347   4.302   2.258   9.846  1.1366 -0.0919  0.6093
  186SAPI   C2821348   4.093   2.249   9.857 -0.3140  0.4369 -0.4987
  186SAPI   H8R21349   4.026   2.168   9.890  1.3848 -0.6877  0.3125
  186SAPI   C2921350   4.057   2.310   9.739 -0.6138  0.0446  0.1522
  186SAPI   H9R21351   3.964   2.284   9.685  0.2106 -1.4530 -0.5889
  186SAPI  C21021352   4.121   2.410   9.650  0.2304  0.2314 -0.6514
  186SAPI  H10R21353   4.155   2.357   9.558 -0.6462 -0.1331 -0.7665
  186SAPI  H10S21354   4.204   2.455   9.709 -1.5818  0.8832  1.4436
  186SAPI  C21121355   4.037   2.531   9.614  0.2974 -0.1478  0.1810
  186SAPI  H11R21356   3.957   2.556   9.685 -1.1246 -1.8881 -0.7768
  186SAPI  C21221357   4.033   2.592   9.492 -0.3639  0.1515  0.1026
  186SAPI  H12R21358   3.963   2.676   9.480  1.3529  1.5409 -0.4538
  186SAPI  C21321359   4.119   2.559   9.370  0.8250 -0.2173 -0.0830
  186SAPI  H13R21360   4.062   2.469   9.337 -3.3439  1.5126  1.9960
  186SAPI  H13S21361   4.217   2.522   9.407  1.5544  2.6504  0.9332
  186SAPI  C21421362   4.138   2.676   9.271 -0.0005 -0.0993 -0.0347
  186SAPI  H14R21363   4.148   2.775   9.319  1.4155 -0.7280  1.0094
  186SAPI  C21521364   4.144   2.665   9.139  0.1625 -0.3951 -0.0451
  186SAPI  H15R21365   4.142   2.761   9.084  2.2550  0.2961  1.0257
  186SAPI  C21621366   4.134   2.541   9.059  0.2964  0.2483 -0.8101
  186SAPI  H16R21367   4.154   2.457   9.129 -0.2469  1.3595  0.6975
  186SAPI  H16S21368   4.204   2.534   8.973  0.8616  2.8447 -0.6118
  186SAPI  C21721369   3.981   2.521   9.019  0.2378  0.0806 -0.2389
  186SAPI  H17R21370   3.924   2.514   9.114 -1.4482  0.3601 -1.2136
  186SAPI  H17S21371   3.967   2.417   8.983 -0.1939 -0.9174  2.6469
  186SAPI  C21821372   3.921   2.624   8.929 -0.5780  0.4081 -0.3437
  186SAPI  H18R21373   3.918   2.713   8.994  3.4669  0.6635 -0.3632
  186SAPI  H18S21374   3.814   2.595   8.922 -0.5760  0.5159 -0.8321
  186SAPI  C21921375   3.984   2.651   8.793 -0.8995 -0.0440 -0.6416
  186SAPI  H19R21376   4.075   2.714   8.790 -1.3296  0.6345  0.2584
  186SAPI  H19S21377   3.909   2.716   8.744  0.2943  2.7060  1.0417
  186SAPI  C22021378   4.016   2.531   8.711 -0.3714  0.4083  0.2682
  186SAPI  H20R21379   3.921   2.478   8.692 -0.6630  0.5518  1.3285
  186SAPI  H20S21380   4.074   2.453   8.765 -2.0754 -1.4654 -0.5202
  186SAPI  H20T21381   4.063   2.566   8.616 -1.4095  0.6450 -0.1699
  186SAPI   C3321382   4.871   1.725  10.043 -0.3243 -0.9049 -0.3721
  186SAPI   H3X21383   4.764   1.698  10.034 -0.9908  1.5307 -0.0731
  186SAPI   H3Y21384   4.924   1.634  10.079  1.2801  0.8726  1.9036
  186SAPI   C3421385   4.924   1.752   9.898  0.3024  0.2932 -0.4572
  186SAPI   H4X21386   5.034   1.764   9.903 -0.0336  3.6503 -0.3795
  186SAPI   H4Y21387   4.878   1.845   9.859  1.9142  1.4270  0.3201
  186SAPI   C3521388   4.876   1.648   9.799 -0.0142 -0.4867  0.1878
  186SAPI   H5X21389   4.765   1.646   9.807 -0.1851 -1.0509 -2.0466
  186SAPI   H5Y21390   4.896   1.539   9.812 -3.8136 -1.1900  0.8080
  186SAPI   C3621391   4.900   1.689   9.653 -0.4877 -0.0792 -0.0911
  186SAPI   H6X21392   5.008   1.680   9.627 -0.3299  2.9415 -0.6587
  186SAPI   H6Y21393   4.864   1.792   9.633  1.0595  0.8732  1.9715
  186SAPI   C3721394   4.824   1.600   9.554  0.4666  0.7683  0.1686
  186SAPI   H7X21395   4.717   1.624   9.570  0.8425  2.0212  0.8956
  186SAPI   H7Y21396   4.839   1.490   9.550  1.1153  0.8506  0.2210
  186SAPI   C3821397   4.863   1.641   9.416  0.3228 -0.9377  0.5000
  186SAPI   H8X21398   4.972   1.622   9.411  0.1394 -1.4787 -2.9025
  186SAPI   H8Y21399   4.832   1.747   9.402  2.6866 -0.6789 -3.8132
  186SAPI   C3921400   4.790   1.555   9.313 -0.2885 -0.3063 -0.1487
  186SAPI   H9X21401   4.684   1.589   9.305  0.3920  2.3122  1.5268
  186SAPI   H9Y21402   4.792   1.447   9.338 -2.2060 -0.1837  0.6212
  186SAPI  C31021403   4.844   1.570   9.165 -0.1663  0.8639  0.7437
  186SAPI  H10X21404   4.939   1.511   9.158 -0.0373  1.1503  0.0427
  186SAPI  H10Y21405   4.856   1.675   9.130 -0.7169  0.2768 -1.2814
  186SAPI  C31121406   4.744   1.496   9.061  0.2535 -0.6501  0.0479
  186SAPI  H11X21407   4.639   1.531   9.062  0.6234  0.5160 -0.4215
  186SAPI  H11Y21408   4.752   1.387   9.080  2.4453 -0.6900 -0.9187
  186SAPI  C31221409   4.793   1.525   8.919  0.4182  0.8595  0.3071
  186SAPI  H12X21410   4.901   1.501   8.914 -0.1949 -2.0029 -0.1404
  186SAPI  H12Y21411   4.765   1.627   8.888 -0.4821  0.5259  0.0002
  186SAPI  C31321412   4.720   1.426   8.824  0.8419 -0.5498 -0.1979
  186SAPI  H13X21413   4.707   1.452   8.717  0.2607  2.8731  0.6325
  186SAPI  H13Y21414   4.615   1.429   8.861  2.1316 -0.4630  3.6595
  186SAPI  C31421415   4.770   1.279   8.841  0.1923 -0.7612  0.1035
  186SAPI  H14X21416   4.702   1.233   8.917 -0.4025  0.1437  0.1248
  186SAPI  H14Y21417   4.871   1.280   8.887 -0.2803 -1.4012  1.1853
  186SAPI  C31521418   4.751   1.200   8.714 -0.2901  0.1294 -0.1030
  186SAPI  H15X21419   4.814   1.254   8.641 -1.0443 -3.3444 -3.5058
  186SAPI  H15Y21420   4.648   1.203   8.675 -0.5787 -3.0503  0.2575
  186SAPI  C31621421   4.798   1.056   8.722  0.2499 -0.8280  0.8152
  186SAPI  H16X21422   4.751   1.018   8.816 -2.9860 -1.9831 -1.1974
  186SAPI  H16Y21423   4.909   1.057   8.719  0.2848 -1.8227  1.3828
  186SAPI  C31721424   4.756   0.970   8.607  0.0390  0.6189  0.5477
  186SAPI  H17X21425   4.801   1.004   8.511  2.4627 -1.9390  0.7023
  186SAPI  H17Y21426   4.646   0.981   8.590 -0.5669 -1.8638  2.5690
  186SAPI  C31821427   4.798   0.819   8.626  0.7079  0.2939  1.1803
  186SAPI  H18X21428   4.908   0.801   8.621  0.9099  0.7901  3.5378
  186SAPI  H18Y21429   4.741   0.757   8.553  2.0679  3.0968 -2.3824
  186SAPI  H18Z21430   4.770   0.785   8.728 -0.3585  2.7254  1.7133
  187SAPI   C1221431   0.285   3.487   6.382 -0.2185  0.4721  0.7384
  187SAPI    H221432   0.289   3.572   6.453 -2.2311  1.7462 -0.6277
  187SAPI    O221433   0.365   3.387   6.442  0.3005  0.3433  0.1357
  187SAPI   HO221434   0.406   3.424   6.520  0.2564  0.9491 -0.1267
  187SAPI   C1321435   0.145   3.442   6.362  0.2880 -0.3775  0.7183
  187SAPI    H321436   0.091   3.529   6.319  0.0277  0.3476  2.4398
  187SAPI    O321437   0.079   3.424   6.486 -0.2461 -0.0284  1.1900
  187SAPI   HO321438   0.119   3.362   6.548 -0.2587 -0.0099  1.2161
  187SAPI   C1421439   0.142   3.317   6.280 -0.6895 -1.0584  0.3218
  187SAPI    H421440   0.210   3.242   6.326  2.3395 -0.1993 -2.5917
  187SAPI    O421441   0.006   3.273   6.266  0.0768 -0.2915  0.7921
  187SAPI   HO421442  -0.027   3.264   6.356 -0.3078  1.3175  0.8379
  187SAPI   C1521443   0.199   3.344   6.148  0.8754 -0.0118  0.5973
  187SAPI    H521444   0.134   3.416   6.095  2.1106  1.5185  1.1142
  187SAPI    O521445   0.201   3.219   6.066  0.5002 -0.6160 -0.5964
  187SAPI   HO521446   0.220   3.144   6.123  1.7403  1.0507  1.2559
  187SAPI   C1621447   0.343   3.402   6.156  0.4299  0.2143  0.2553
  187SAPI    H621448   0.415   3.330   6.200 -0.2284  1.2295  3.0953
  187SAPI    O621449   0.394   3.435   6.030  0.1096 -0.1050 -0.3883
  187SAPI   HO621450   0.400   3.531   6.029  1.9816 -0.2034 -1.8946
  187SAPI   C1121451   0.344   3.525   6.248  0.0567  0.3237 -0.5365
  187SAPI    H121452   0.281   3.604   6.203  0.9423  0.2354 -1.9639
  187SAPI     P21453   0.499   3.732   6.344 -0.4659  0.0044  0.6261
  187SAPI   O1321454   0.372   3.805   6.340 -0.4929  0.0456 -0.8861
  187SAPI   O1421455   0.620   3.800   6.289  0.2121  0.3081 -0.2583
  187SAPI   O1221456   0.475   3.584   6.262 -0.1694 -0.7466 -0.0050
  187SAPI   O1121457   0.525   3.686   6.495 -0.2310  0.0668 -0.2276
  187SAPI    C121458   0.636   3.607   6.536  0.0427 -0.2585  0.0967
  187SAPI    HA21459   0.602   3.517   6.590 -1.8678  1.0172  1.0740
  187SAPI    HB21460   0.700   3.581   6.449 -1.1527 -2.2785 -0.2013
  187SAPI    C221461   0.736   3.686   6.635 -0.7179 -0.0807 -0.6857
  187SAPI    HS21462   0.833   3.641   6.605 -1.0940 -2.1751  1.0796
  187SAPI   O2121463   0.703   3.667   6.773 -0.5368  0.0587  0.1831
  187SAPI   C2121464   0.747   3.563   6.835  0.3455 -0.1907 -0.5313
  187SAPI   O2221465   0.835   3.487   6.802 -0.5615 -0.2981 -0.4931
  187SAPI   C2221466   0.679   3.562   6.977 -0.4003  0.4384 -0.0106
  187SAPI   H2R21467   0.621   3.657   6.987 -1.8999 -0.4098 -0.3839
  187SAPI   H2S21468   0.607   3.477   6.972  0.5549 -0.4729  1.6030
  187SAPI    C321469   0.734   3.834   6.611 -0.1831  0.0257 -0.8344
  187SAPI    HX21470   0.629   3.852   6.643 -0.0077  1.3363 -0.9336
  187SAPI    HY21471   0.761   3.861   6.506  1.0752  2.0305 -0.0285
  187SAPI   O3121472   0.814   3.906   6.709  0.3075  0.9656  0.2550
  187SAPI   C3121473   0.942   3.906   6.680  0.3337  0.2226 -0.2392
  187SAPI   O3221474   0.994   3.859   6.577  0.0438  0.3284 -0.1760
  187SAPI   C3221475   1.033   3.964   6.785  0.8858 -0.3216  0.3760
  187SAPI   H2X21476   0.976   3.955   6.880 -0.5478 -1.8110 -0.6169
  187SAPI   H2Y21477   1.048   4.073   6.769 -0.4863 -0.2638 -0.5675
  187SAPI   C2321478   0.784   3.546   7.089  0.0870  0.8706 -0.5487
  187SAPI   H3R21479   0.870   3.615   7.075 -0.7316  1.9457 -0.4107
  187SAPI   H3S21480   0.823   3.442   7.083 -2.7200 -0.0814 -4.3822
  187SAPI   C2421481   0.727   3.553   7.233 -0.0283 -0.5335 -0.5941
  187SAPI   H4R21482   0.637   3.487   7.232 -0.5082  0.1029 -0.1532
  187SAPI   H4S21483   0.685   3.656   7.245 -0.5031 -0.6925 -0.8622
  187SAPI   C2521484   0.817   3.513   7.348 -0.4630  0.2437 -0.0577
  187SAPI   H5R21485   0.842   3.406   7.346  3.5378  1.1314 -1.5018
  187SAPI   C2621486   0.869   3.586   7.447 -0.2001  0.4014  0.1428
  187SAPI   H6R21487   0.938   3.528   7.509  0.8041  0.5670 -0.8072
  187SAPI   C2721488   0.848   3.736   7.487  0.5419  0.0814  0.3554
  187SAPI   H7R21489   0.739   3.751   7.473  0.3471  0.1226  1.7930
  187SAPI   H7S21490   0.900   3.793   7.407  0.7304 -1.2657 -0.4921
  187SAPI   C2821491   0.893   3.778   7.624  0.1992  0.1450  0.3180
  187SAPI   H8R21492   0.954   3.870   7.622  0.9628 -0.3649 -0.9815
  187SAPI   C2921493   0.874   3.715   7.743  0.6584 -0.4659 -0.1019
  187SAPI   H9R21494   0.919   3.761   7.833  2.5609 -0.6649 -0.9220
  187SAPI  C21021495   0.805   3.584   7.765  0.3696 -0.4889  1.1851
  187SAPI  H10R21496   0.749   3.552   7.675  0.6231 -1.5541  1.3966
  187SAPI  H10S21497   0.721   3.595   7.837 -2.2049 -0.4580 -1.7481
  187SAPI  C21121498   0.897   3.467   7.792  0.5427  0.4524 -0.3473
  187SAPI  H11R21499   0.955   3.442   7.702 -2.5262  1.4671 -2.6573
  187SAPI  C21221500   0.893   3.397   7.906  0.3906  0.6751  0.0011
  187SAPI  H12R21501   0.953   3.305   7.915  1.9282  1.5200 -1.2042
  187SAPI  C21321502   0.794   3.420   8.017 -0.2933  0.1455  0.5610
  187SAPI  H13R21503   0.689   3.396   7.987 -0.1403  1.7003 -1.3915
  187SAPI  H13S21504   0.795   3.530   8.034  0.4002  0.1999  0.1711
  187SAPI  C21421505   0.838   3.346   8.142  0.3792  0.4541 -0.7653
  187SAPI  H14R21506   0.808   3.240   8.145  0.2341  0.5356  0.9298
  187SAPI  C21521507   0.917   3.395   8.242 -0.1469 -0.0006 -0.3923
  187SAPI  H15R21508   0.926   3.335   8.334  2.7546  1.2991  0.2122
  187SAPI  C21621509   0.981   3.535   8.253 -0.1596  0.0994 -0.1399
  187SAPI  H16R21510   0.977   3.578   8.151 -1.6568 -0.1037 -0.1810
  187SAPI  H16S21511   1.088   3.525   8.284  0.0598 -2.3377 -1.5619
  187SAPI  C21721512   0.901   3.621   8.356 -0.4364 -0.2110  0.4287
  187SAPI  H17R21513   0.890   3.568   8.453  1.1006  0.5006  1.0120
  187SAPI  H17S21514   0.804   3.642   8.305 -0.1516 -0.4846 -0.2457
  187SAPI  C21821515   0.964   3.757   8.384  0.4507  0.0226  0.4275
  187SAPI  H18R21516   0.967   3.816   8.291 -0.2649 -1.2388 -0.4117
  187SAPI  H18S21517   1.072   3.753   8.414  0.3326  1.3096  1.0674
  187SAPI  C21921518   0.900   3.832   8.505 -0.3017 -0.0817  0.0044
  187SAPI  H19R21519   0.977   3.901   8.547  1.4491 -2.3075  0.5909
  187SAPI  H19S21520   0.892   3.756   8.587 -1.3185  1.0756  1.0047
  187SAPI  C22021521   0.764   3.890   8.481  0.1420 -0.4399  0.7918
  187SAPI  H20R21522   0.687   3.810   8.478 -1.7444  1.2696  1.7698
  187SAPI  H20S21523   0.768   3.958   8.393  2.5665 -0.3563  0.9490
  187SAPI  H20T21524   0.735   3.957   8.565 -0.8318  1.0218 -0.6755
  187SAPI   C3321525   1.170   3.891   6.792  0.1200 -0.0786  0.0367
  187SAPI   H3X21526   1.250   3.947   6.845 -1.4759  2.2079  0.1309
  187SAPI   H3Y21527   1.209   3.876   6.689  0.5434 -0.6338  0.2795
  187SAPI   C3421528   1.163   3.744   6.839  0.8296  0.5781 -0.5781
  187SAPI   H4X21529   1.266   3.704   6.824  1.4645  1.3834  1.4229
  187SAPI   H4Y21530   1.108   3.672   6.774  0.8942 -0.0253  0.0352
  187SAPI   C3521531   1.111   3.730   6.979 -0.2673 -0.5365 -0.3869
  187SAPI   H5X21532   1.095   3.622   7.001 -0.6797 -0.3895  0.0496
  187SAPI   H5Y21533   1.012   3.781   6.981  0.4166  0.8753 -1.6286
  187SAPI   C3621534   1.212   3.789   7.079 -0.3080  0.5177  0.0851
  187SAPI   H6X21535   1.252   3.889   7.055 -0.3306  0.5254  0.0806
  187SAPI   H6Y21536   1.294   3.714   7.082 -2.1669 -1.5602  0.7045
  187SAPI   C3721537   1.157   3.782   7.220 -0.0331  0.3244  0.2044
  187SAPI   H7X21538   1.122   3.678   7.236  0.2798 -0.0125 -1.3064
  187SAPI   H7Y21539   1.070   3.851   7.225 -0.5488 -0.3599  0.7384
  187SAPI   C3821540   1.255   3.831   7.327  0.1674 -0.6795 -0.9193
  187SAPI   H8X21541   1.299   3.931   7.308 -0.0198 -0.0809  1.5209
  187SAPI   H8Y21542   1.340   3.759   7.335 -0.1693 -0.9616  0.4035
  187SAPI   C3921543   1.185   3.822   7.466 -0.0835 -0.4339 -0.3238
  187SAPI   H9X21544   1.132   3.725   7.460 -1.9222  0.5503 -0.4737
  187SAPI   H9Y21545   1.101   3.892   7.487  0.4791  0.0271  0.4327
  187SAPI  C31021546   1.281   3.821   7.580 -0.9743 -0.5976 -0.9624
  187SAPI  H10X21547   1.340   3.915   7.572 -1.9978  0.1968  0.6752
  187SAPI  H10Y21548   1.348   3.732   7.572 -1.5603 -1.2859  1.4911
  187SAPI  C31121549   1.203   3.808   7.719  0.2148 -0.6631  0.6952
  187SAPI  H11X21550   1.148   3.712   7.729  1.1395 -1.1996  0.6421
  187SAPI  H11Y21551   1.137   3.897   7.730  1.1130  0.1302 -0.1883
  187SAPI  C31221552   1.305   3.817   7.831 -0.2202 -0.8791 -0.2346
  187SAPI  H12X21553   1.352   3.918   7.822  1.2368 -1.7102 -2.6187
  187SAPI  H12Y21554   1.373   3.730   7.816 -0.2581 -0.8643 -0.5044
  187SAPI  C31321555   1.238   3.798   7.969  0.6597 -1.0106  0.2179
  187SAPI  H13X21556   1.203   3.693   7.980 -0.6682 -0.5230  0.7380
  187SAPI  H13Y21557   1.152   3.867   7.981 -0.4147 -2.2751 -0.2068
  187SAPI  C31421558   1.329   3.842   8.081  0.8959  0.1385  0.4188
  187SAPI  H14X21559   1.362   3.948   8.071  1.3090  0.1269  1.5183
  187SAPI  H14Y21560   1.423   3.787   8.060  0.7120  0.6136 -1.7545
  187SAPI  C31521561   1.279   3.811   8.219  0.5816  0.1801 -0.2020
  187SAPI  H15X21562   1.195   3.738   8.212  0.4400  0.3415 -0.1801
  187SAPI  H15Y21563   1.237   3.904   8.263 -1.1193 -1.1028  0.9468
  187SAPI  C31621564   1.391   3.763   8.308  0.5992 -0.0017 -0.5113
  187SAPI  H16X21565   1.478   3.831   8.324  1.8100 -1.4869 -0.5824
  187SAPI  H16Y21566   1.428   3.675   8.252  0.7393  1.4977 -2.8181
  187SAPI  C31721567   1.354   3.716   8.456 -0.7562 -0.0203  0.7034
  187SAPI  H17X21568   1.268   3.780   8.487 -1.6058 -1.2530  0.9427
  187SAPI  H17Y21569   1.430   3.753   8.527 -1.7487  0.6513  1.4327
  187SAPI  C31821570   1.322   3.571   8.485 -0.4172 -0.4908 -0.0615
  187SAPI  H18X21571   1.338   3.542   8.592 -0.1316 -0.9578 -0.2284
  187SAPI  H18Y21572   1.393   3.511   8.425 -1.0760 -0.1495 -1.1880
  187SAPI  H18Z21573   1.220   3.534   8.463  0.8425 -2.2632 -3.1929
  188SAPI   C1221574   2.621   0.087   6.500 -0.6238  0.3089  0.3535
  188SAPI    H221575   2.647   0.054   6.603 -0.0634  0.6177  0.3119
  188SAPI    O221576   2.481   0.101   6.490  0.9421  0.1488 -0.3996
  188SAPI   HO221577   2.452   0.018   6.451  0.1589 -0.6731  1.8671
  188SAPI   C1321578   2.689   0.224   6.487  0.0411 -0.4081  0.3727
  188SAPI    H321579   2.795   0.195   6.503 -0.6716 -3.5649 -0.3046
  188SAPI    O321580   2.654   0.318   6.590  0.3133  0.5140  0.4305
  188SAPI   HO321581   2.565   0.349   6.577  0.6997  1.0134 -1.0986
  188SAPI   C1421582   2.659   0.283   6.351 -0.6759  0.4932  0.1062
  188SAPI    H421583   2.553   0.314   6.335 -0.6158  0.7794  0.2653
  188SAPI    O421584   2.736   0.408   6.332 -0.4675 -0.6205  0.6009
  188SAPI   HO421585   2.675   0.482   6.324  2.4898  1.6210 -2.0876
  188SAPI   C1521586   2.692   0.187   6.241 -0.2103 -0.2198 -0.3380
  188SAPI    H521587   2.803   0.194   6.243 -0.2320  0.3542 -0.9514
  188SAPI    O521588   2.660   0.240   6.114  0.1746  0.2711  0.2814
  188SAPI   HO521589   2.743   0.270   6.076  1.9023 -0.4652  3.3259
  188SAPI   C1621590   2.647   0.044   6.260 -0.3376 -0.2744 -0.3541
  188SAPI    H621591   2.537   0.039   6.244 -0.5277  2.8973 -0.2260
  188SAPI    O621592   2.711  -0.034   6.165 -0.0073 -0.3661 -0.3717
  188SAPI   HO621593   2.699  -0.124   6.195 -2.7107 -0.5066 -1.7350
  188SAPI   C1121594   2.672  -0.010   6.398  0.3975 -0.3165 -0.2110
  188SAPI    H121595   2.781  -0.017   6.419  0.5384 -0.8758 -1.1360
  188SAPI     P21596   2.676  -0.246   6.520  0.3182 -0.1152 -0.5319
  188SAPI   O1321597   2.806  -0.200   6.559  0.4051  0.0731 -0.4248
  188SAPI   O1421598   2.656  -0.383   6.474  0.3213  0.1162  0.8728
  188SAPI   O1221599   2.606  -0.131   6.415  0.7034 -0.0835 -0.4667
  188SAPI   O1121600   2.593  -0.226   6.648  0.7224  0.3149  0.2252
  188SAPI    C121601   2.459  -0.273   6.664 -0.0453  0.4071 -0.3995
  188SAPI    HA21602   2.389  -0.187   6.673 -1.8243 -1.0408  0.1542
  188SAPI    HB21603   2.420  -0.331   6.577 -0.9314 -0.7574  0.7440
  188SAPI    C221604   2.452  -0.374   6.784  0.8627 -0.0757 -0.3046
  188SAPI    HS21605   2.346  -0.393   6.810  0.9658 -0.4561 -0.1624
  188SAPI   O2121606   2.516  -0.334   6.906  0.2050  0.0523  0.0608
  188SAPI   C2121607   2.475  -0.221   6.957  0.8295 -0.0830  0.8138
  188SAPI   O2221608   2.398  -0.140   6.913 -0.1647 -0.5067  0.2293
  188SAPI   C2221609   2.557  -0.201   7.084  0.2419  0.4555  0.5141
  188SAPI   H2R21610   2.540  -0.284   7.155  0.0789  1.3252  1.4934
  188SAPI   H2S21611   2.658  -0.226   7.044 -0.4846 -0.2125 -0.9842
  188SAPI    C321612   2.517  -0.510   6.745  0.2756  0.0785 -0.1360
  188SAPI    HX21613   2.619  -0.495   6.703  0.7228  0.0738  0.9467
  188SAPI    HY21614   2.460  -0.545   6.656  0.7731 -1.1100  0.0105
  188SAPI   O3121615   2.514  -0.614   6.852  0.4195 -0.2444  0.2071
  188SAPI   C3121616   2.631  -0.614   6.920  0.2261  0.4330 -0.3316
  188SAPI   O3221617   2.735  -0.557   6.891 -0.4534  0.2725  0.0014
  188SAPI   C3221618   2.602  -0.692   7.049 -0.3808  0.8058  0.0429
  188SAPI   H2X21619   2.619  -0.798   7.018  2.1888  0.7408  1.5553
  188SAPI   H2Y21620   2.498  -0.683   7.087 -1.7384 -1.4212 -2.9264
  188SAPI   C2321621   2.548  -0.072   7.164  0.2797 -0.8928  0.0342
  188SAPI   H3R21622   2.447  -0.076   7.209  0.8692 -0.9926  1.3622
  188SAPI   H3S21623   2.555   0.022   7.106 -0.5331 -0.8298  0.0392
  188SAPI   C2421624   2.662  -0.063   7.268  0.2496  0.1204 -0.3635
  188SAPI   H4R21625   2.666   0.040   7.311 -1.9696  0.8256 -1.7625
  188SAPI   H4S21626   2.761  -0.076   7.220 -0.3620 -1.2417 -1.2758
  188SAPI   C2521627   2.658  -0.174   7.367  0.1741 -0.3493  0.4497
  188SAPI   H5R21628   2.681  -0.276   7.333 -2.7375 -1.3752  1.3750
  188SAPI   C2621629   2.626  -0.162   7.497 -0.1114  0.1986  0.7942
  188SAPI   H6R21630   2.646  -0.245   7.567 -0.4692 -0.8128 -0.2853
  188SAPI   C2721631   2.590  -0.031   7.565 -1.0310 -0.3307 -0.0021
  188SAPI   H7R21632   2.485  -0.035   7.601 -0.9628  0.3196  0.2661
  188SAPI   H7S21633   2.589   0.053   7.493  0.5982  0.2353  0.6158
  188SAPI   C2821634   2.682   0.009   7.674  0.1692 -0.3966 -0.8336
  188SAPI   H8R21635   2.740   0.095   7.638 -2.1531  1.9494  0.8737
  188SAPI   C2921636   2.687  -0.018   7.806  0.2308 -0.6887 -0.4421
  188SAPI   H9R21637   2.761   0.034   7.869 -1.2130 -0.1638  0.8582
  188SAPI  C21021638   2.597  -0.109   7.874  0.5930  0.1867 -0.3829
  188SAPI  H10R21639   2.662  -0.174   7.937  2.0445  2.1547  0.2014
  188SAPI  H10S21640   2.549  -0.184   7.809  1.0638 -2.5163  2.2636
  188SAPI  C21121641   2.490  -0.036   7.957  0.4305  0.3998  0.3090
  188SAPI  H11R21642   2.436   0.039   7.897  1.1502 -1.3656 -2.6417
  188SAPI  C21221643   2.465  -0.052   8.096 -0.4570  0.1345 -0.1020
  188SAPI  H12R21644   2.385   0.009   8.141  0.8075  1.4303  0.4325
  188SAPI  C21321645   2.530  -0.141   8.193  0.3803  0.0391  0.0432
  188SAPI  H13R21646   2.586  -0.220   8.138 -1.7268 -1.2146 -0.3838
  188SAPI  H13S21647   2.450  -0.197   8.247  0.4299 -2.4053 -2.3250
  188SAPI  C21421648   2.625  -0.074   8.294  0.4180  0.5062  0.1177
  188SAPI  H14R21649   2.724  -0.075   8.247 -0.1496 -0.2727 -1.0800
  188SAPI  C21521650   2.604  -0.018   8.415  0.7891  0.0971  0.0921
  188SAPI  H15R21651   2.688   0.037   8.458  0.0683  0.7384  0.6842
  188SAPI  C21621652   2.475   0.006   8.487 -0.3052 -0.0368 -0.1993
  188SAPI  H16R21653   2.391  -0.036   8.426  0.4297  0.1416 -1.3413
  188SAPI  H16S21654   2.450   0.113   8.505 -1.9449 -0.5260  0.6112
  188SAPI  C21721655   2.469  -0.067   8.625  0.5380  0.2287  0.2417
  188SAPI  H17R21656   2.522   0.001   8.695  1.0846  0.4369 -0.3673
  188SAPI  H17S21657   2.526  -0.162   8.624  0.4312  0.1497  1.1170
  188SAPI  C21821658   2.322  -0.086   8.668 -0.8796  0.1533  0.2373
  188SAPI  H18R21659   2.286  -0.163   8.596 -0.2906 -1.1922  1.3572
  188SAPI  H18S21660   2.259   0.001   8.640  0.6032  1.7715  1.7669
  188SAPI  C21921661   2.304  -0.127   8.818 -0.0665 -0.3443 -0.7253
  188SAPI  H19R21662   2.303  -0.039   8.886  1.3810 -0.7266 -0.1920
  188SAPI  H19S21663   2.398  -0.176   8.850 -0.8522  0.0383  2.3266
  188SAPI  C22021664   2.187  -0.203   8.840  0.4750  0.0055 -0.2011
  188SAPI  H20R21665   2.194  -0.309   8.805  1.4337 -0.2042  0.6099
  188SAPI  H20S21666   2.102  -0.155   8.787 -0.9518 -3.0671 -0.8543
  188SAPI  H20T21667   2.158  -0.205   8.948 -0.1345  1.7953 -0.3178
  188SAPI   C3321668   2.705  -0.663   7.161 -0.7076 -0.2704  0.6427
  188SAPI   H3X21669   2.704  -0.553   7.179 -0.9848 -0.0699 -0.5165
  188SAPI   H3Y21670   2.806  -0.682   7.118 -0.9772  0.8243 -0.5388
  188SAPI   C3421671   2.679  -0.746   7.286 -0.3329 -0.1798 -0.5120
  188SAPI   H4X21672   2.722  -0.848   7.280  0.3100  0.0673 -0.1739
  188SAPI   H4Y21673   2.569  -0.750   7.297 -0.2948 -0.5266 -0.2614
  188SAPI   C3521674   2.750  -0.681   7.413 -0.6366 -0.8238  0.0575
  188SAPI   H5X21675   2.697  -0.586   7.437 -0.4552 -0.9533  0.9985
  188SAPI   H5Y21676   2.855  -0.658   7.387  0.0652  1.7427  4.6359
  188SAPI   C3621677   2.748  -0.780   7.532 -0.7165  0.6180 -0.1635
  188SAPI   H6X21678   2.804  -0.872   7.508 -0.6247  0.8231 -0.7360
  188SAPI   H6Y21679   2.641  -0.805   7.548 -0.7805  0.7900 -0.3171
  188SAPI   C3721680   2.805  -0.717   7.656 -0.2431 -0.0954  0.7380
  188SAPI   H7X21681   2.898  -0.674   7.612 -1.8887  1.6630 -1.1315
  188SAPI   H7Y21682   2.832  -0.803   7.720  2.1560 -1.3370 -1.7994
  188SAPI   C3821683   2.721  -0.611   7.729  0.5554 -0.0848  0.6532
  188SAPI   H8X21684   2.616  -0.646   7.742  0.6134 -0.0188  1.3088
  188SAPI   H8Y21685   2.719  -0.524   7.661  1.1876 -1.4651 -1.1851
  188SAPI   C3921686   2.798  -0.585   7.860  0.4951 -0.5257 -0.6706
  188SAPI   H9X21687   2.907  -0.597   7.843  0.8295  0.9152  0.3920
  188SAPI   H9Y21688   2.766  -0.670   7.923 -0.7859  1.2467  1.1310
  188SAPI  C31021689   2.784  -0.447   7.930  0.3228  0.4339  0.2631
  188SAPI  H10X21690   2.682  -0.445   7.976  0.1872 -0.9381  0.0441
  188SAPI  H10Y21691   2.793  -0.371   7.849  1.2214 -0.2909 -0.3198
  188SAPI  C31121692   2.891  -0.423   8.041 -0.2003  0.2492 -0.2605
  188SAPI  H11X21693   2.982  -0.395   7.984 -1.6454  2.6180 -1.4582
  188SAPI  H11Y21694   2.910  -0.508   8.110 -0.9604  1.7312  1.8316
  188SAPI  C31221695   2.871  -0.300   8.124  0.5758  0.5803  0.9911
  188SAPI  H12X21696   2.780  -0.303   8.189 -0.7078  0.6495 -0.7664
  188SAPI  H12Y21697   2.857  -0.210   8.060  1.8728 -0.6633 -1.0792
  188SAPI  C31321698   2.978  -0.284   8.227 -0.1456 -0.3172 -0.6541
  188SAPI  H13X21699   3.080  -0.293   8.183 -0.2675  0.7774 -1.1751
  188SAPI  H13Y21700   2.974  -0.365   8.303  2.4560  0.1199 -0.0011
  188SAPI  C31421701   2.972  -0.152   8.307 -0.2312  0.0654  0.8398
  188SAPI  H14X21702   2.897  -0.167   8.388  0.0612  0.2896  1.1568
  188SAPI  H14Y21703   2.929  -0.075   8.240 -1.6538 -2.2750 -0.9807
  188SAPI  C31521704   3.110  -0.095   8.350 -0.0117 -0.0759 -0.3498
  188SAPI  H15X21705   3.165  -0.056   8.262 -1.7968  0.3386 -1.3159
  188SAPI  H15Y21706   3.163  -0.189   8.375 -0.3416 -0.5419 -1.3687
  188SAPI  C31621707   3.101  -0.001   8.470  0.3964  0.2096 -0.6122
  188SAPI  H16X21708   3.201   0.002   8.518 -0.0835  2.0669  0.3325
  188SAPI  H16Y21709   3.033  -0.049   8.544 -1.5281  4.1562  0.3287
  188SAPI  C31721710   3.050   0.139   8.433  0.3409  0.4655 -0.5989
  188SAPI  H17X21711   3.058   0.192   8.531  1.9844 -0.4095 -0.2333
  188SAPI  H17Y21712   2.947   0.144   8.394  0.6627  0.0306 -1.5178
  188SAPI  C31821713   3.134   0.197   8.314  0.1278 -0.1856  0.4444
  188SAPI  H18X21714   3.241   0.172   8.328 -0.0237 -0.7796  0.5502
  188SAPI  H18Y21715   3.120   0.307   8.311 -2.0275 -0.4611 -1.0636
  188SAPI  H18Z21716   3.096   0.155   8.218 -0.0812  1.1648 -0.0820
  189POPC     N21717   2.523   1.186  11.394  0.2690  0.4651  0.1117
  189POPC   C1221718   2.531   1.071  11.297  0.0074 -0.0121 -0.2839
  189POPC  H12A21719   2.467   0.988  11.326 -1.7400  2.4528  3.3874
  189POPC  H12B21720   2.633   1.040  11.286 -0.0970  0.2327 -1.9681
  189POPC   C1321721   2.622   1.295  11.358  0.0902  0.2078 -0.4670
  189POPC  H13A21722   2.617   1.384  11.418  0.3655 -0.1447  0.0803
  189POPC  H13B21723   2.723   1.260  11.377 -0.0595 -0.1356 -0.3147
  189POPC  H13C21724   2.611   1.314  11.252  0.6549 -1.0580 -0.7687
  189POPC   C1421725   2.387   1.242  11.410 -0.3322 -0.2704  0.0518
  189POPC  H14A21726   2.319   1.159  11.425  0.1085 -0.4397  1.1958
  189POPC  H14B21727   2.389   1.319  11.486  1.7167  0.8053 -1.0615
  189POPC  H14C21728   2.359   1.305  11.327 -1.5683 -0.8719 -0.0052
  189POPC   C1521729   2.561   1.122  11.528 -0.0928  0.3109  0.4489
  189POPC  H15A21730   2.489   1.049  11.564 -0.8487 -0.6415 -2.8015
  189POPC  H15B21731   2.590   1.184  11.611 -1.0329 -0.2041  1.1806
  189POPC  H15C21732   2.649   1.063  11.508  0.4782  1.1329  0.5745
  189POPC   C1121733   2.489   1.103  11.148 -0.1165  0.5688  0.0405
  189POPC  H11A21734   2.385   1.143  11.155 -0.4779 -0.6205  2.1485
  189POPC  H11B21735   2.508   1.008  11.095 -1.5110  0.5843 -0.5016
  189POPC     P21736   2.525   1.270  10.953 -0.8774  0.1192  0.1821
  189POPC   O1321737   2.635   1.360  10.902 -0.1512 -0.0040  0.5608
  189POPC   O1421738   2.391   1.330  10.973 -0.2733  0.8600 -0.3344
  189POPC   O1221739   2.573   1.206  11.085  0.1046  0.2109  0.3215
  189POPC   O1121740   2.502   1.161  10.847 -0.0993 -0.7603 -0.5632
  189POPC    C121741   2.604   1.086  10.781  0.6166 -0.0433 -1.1771
  189POPC    HA21742   2.555   0.994  10.741  2.1423 -1.1787 -0.4705
  189POPC    HB21743   2.679   1.050  10.854 -1.3857  0.5795  1.2288
  189POPC    C221744   2.653   1.164  10.658  0.8301 -0.0101 -0.4862
  189POPC    HS21745   2.653   1.275  10.670  2.0957 -0.1290  0.7240
  189POPC   O2121746   2.577   1.111  10.545  0.2274  0.1182  0.1821
  189POPC   C2121747   2.527   1.202  10.458  0.7888 -0.5484 -0.4560
  189POPC   O2221748   2.528   1.319  10.481  0.2220 -0.4439  0.2146
  189POPC   C2221749   2.478   1.129  10.333 -0.4201  0.0255  0.1978
  189POPC   H2R21750   2.442   1.028  10.364  0.7878 -1.7920 -3.9122
  189POPC   H2S21751   2.568   1.111  10.271 -1.2570  0.8018 -1.2657
  189POPC    C321752   2.807   1.139  10.629  0.0360 -0.3279 -0.8409
  189POPC    HX21753   2.812   1.029  10.610 -1.7490 -0.2434 -1.9155
  189POPC    HY21754   2.880   1.163  10.709  0.1713 -2.4226 -0.2941
  189POPC   O3121755   2.844   1.218  10.513  0.5820  0.5359  0.5817
  189POPC   C3121756   2.838   1.161  10.394 -0.7632 -0.0718 -0.7293
  189POPC   O3221757   2.799   1.047  10.371  0.2961 -0.7668 -0.1675
  189POPC   C3221758   2.867   1.268  10.285  0.0240 -0.4303  0.5963
  189POPC   H2X21759   2.965   1.317  10.301 -1.3630  2.2666  1.1641
  189POPC   H2Y21760   2.789   1.348  10.282  1.2072  0.6928 -1.0306
  189POPC   C2321761   2.365   1.204  10.258  0.2255 -0.0307 -0.3529
  189POPC   H3R21762   2.406   1.292  10.205 -2.5478  2.4446  1.4669
  189POPC   H3S21763   2.286   1.230  10.333  0.7956 -1.2219  0.6850
  189POPC   C2421764   2.314   1.121  10.146  0.4787  0.0625 -0.1426
  189POPC   H4R21765   2.240   1.051  10.189  1.0052  0.2775  1.1362
  189POPC   H4S21766   2.400   1.072  10.096  1.1899  3.1284 -2.0366
  189POPC   C2521767   2.244   1.203  10.032 -0.7354  0.1362  0.1522
  189POPC   H5R21768   2.316   1.282  10.002 -0.3066  0.6873  2.4649
  189POPC   H5S21769   2.160   1.259  10.078 -0.1912  2.1478 -1.2565
  189POPC   C2621770   2.203   1.116   9.909  0.2891 -0.6129  0.1359
  189POPC   H6R21771   2.113   1.165   9.868  0.2886 -0.0049  0.8549
  189POPC   H6S21772   2.175   1.015   9.946  4.7813 -1.9530  0.1789
  189POPC   C2721773   2.318   1.110   9.801  0.2356 -0.2378  0.1647
  189POPC   H7R21774   2.421   1.093   9.840  0.4646  1.0874  0.1597
  189POPC   H7S21775   2.311   1.212   9.757 -1.3461  1.2150  3.6649
  189POPC   C2821776   2.292   0.992   9.702 -0.1090  0.3232 -0.4283
  189POPC   H8R21777   2.266   0.905   9.767  1.2137  0.8588  0.8453
  189POPC   H8S21778   2.390   0.956   9.662 -0.5223 -0.9211 -0.3445
  189POPC   C2921779   2.194   1.011   9.591  0.0321  0.1414  0.6590
  189POPC   H9121780   2.090   1.022   9.626  0.6043  2.8970  1.6418
  189POPC  C21021781   2.229   1.021   9.459 -0.3783 -0.0780 -0.2104
  189POPC  H10121782   2.161   1.034   9.374 -0.0232 -0.2503 -0.5229
  189POPC  C21121783   2.377   0.994   9.410  0.5695 -0.8941  0.7507
  189POPC  H11R21784   2.432   0.903   9.442 -0.8288 -1.4383  1.6730
  189POPC  H11S21785   2.441   1.080   9.438 -0.1671 -0.0807 -0.0386
  189POPC  C21221786   2.398   1.006   9.257 -0.3073 -0.3991 -0.2959
  189POPC  H12R21787   2.508   1.012   9.245 -0.1316  2.6715  2.0645
  189POPC  H12S21788   2.350   1.102   9.228 -2.0691 -0.1907  3.0637
  189POPC  C21321789   2.349   0.903   9.155  0.0169  0.0236 -0.6181
  189POPC  H13R21790   2.240   0.882   9.157  0.1752 -0.7737  1.4878
  189POPC  H13S21791   2.390   0.805   9.186 -0.2080  0.3844  0.8835
  189POPC  C21421792   2.390   0.940   9.010 -0.3680  0.4707 -0.1359
  189POPC  H14R21793   2.363   1.047   8.993  1.1186  0.3412 -3.8030
  189POPC  H14S21794   2.323   0.895   8.933 -0.4678  0.0571  0.1913
  189POPC  C21521795   2.539   0.912   8.972  0.1726 -0.0336 -0.0997
  189POPC  H15R21796   2.551   0.803   8.985 -0.6793 -0.0014  1.0471
  189POPC  H15S21797   2.600   0.964   9.049  1.4458  0.6315 -1.5437
  189POPC  C21621798   2.587   0.958   8.836 -0.0072 -0.3121 -0.2145
  189POPC  H16R21799   2.697   0.949   8.825  0.2601  0.3491  1.7146
  189POPC  H16S21800   2.566   1.067   8.835 -1.6668 -0.6103  0.9149
  189POPC  C21721801   2.524   0.884   8.718  0.3423  0.6371  0.8882
  189POPC  H17R21802   2.413   0.880   8.722  0.2193  1.2725 -1.3956
  189POPC  H17S21803   2.561   0.780   8.713  2.4052  1.4407 -1.5689
  189POPC  C21821804   2.544   0.967   8.592 -0.7502 -0.0435  0.0693
  189POPC  H18R21805   2.502   1.069   8.602 -0.4178 -0.0403  1.7488
  189POPC  H18S21806   2.495   0.912   8.510 -2.5545  0.7132  0.6224
  189POPC  H18T21807   2.652   0.984   8.570 -0.4611 -1.9448 -0.0877
  189POPC   C3321808   2.862   1.202  10.145  0.1105  0.3043 -0.2796
  189POPC   H3X21809   2.758   1.172  10.120  0.6034 -0.7983 -1.0351
  189POPC   H3Y21810   2.917   1.106  10.137 -0.5328  0.1599 -3.6165
  189POPC   C3421811   2.901   1.283  10.026  0.2758  0.2237 -0.4447
  189POPC   H4X21812   3.008   1.306  10.044  0.6177 -1.3586 -0.3428
  189POPC   H4Y21813   2.841   1.375  10.040 -0.9827 -0.8686  1.7020
  189POPC   C3521814   2.882   1.205   9.895  0.1395 -0.4008 -0.0561
  189POPC   H5X21815   2.924   1.106   9.924 -0.6250 -0.8426 -0.4501
  189POPC   H5Y21816   2.940   1.261   9.819 -1.3902 -2.3758 -2.7635
  189POPC   C3621817   2.738   1.194   9.847 -0.4917  0.2654  0.7612
  189POPC   H6X21818   2.680   1.289   9.853 -2.0840 -0.5505 -1.1836
  189POPC   H6Y21819   2.692   1.129   9.923 -1.7969 -1.8428 -1.7539
  189POPC   C3721820   2.727   1.126   9.708  0.1316 -0.5088  0.3462
  189POPC   H7X21821   2.620   1.106   9.688  0.3236 -2.2962  1.0304
  189POPC   H7Y21822   2.795   1.039   9.702  0.9423  0.1719 -0.6998
  189POPC   C3821823   2.792   1.211   9.598  0.3105 -0.1305 -0.5476
  189POPC   H8X21824   2.898   1.234   9.621  0.5381 -1.5204 -0.1323
  189POPC   H8Y21825   2.736   1.307   9.602 -2.3662 -1.5438 -2.2881
  189POPC   C3921826   2.776   1.155   9.459 -0.5717 -0.1981 -0.2429
  189POPC   H9X21827   2.669   1.134   9.436 -0.2430 -0.9165 -1.1301
  189POPC   H9Y21828   2.822   1.055   9.465 -1.5228 -0.6401 -0.1868
  189POPC  C31021829   2.850   1.250   9.352 -0.1737 -0.1321 -0.0474
  189POPC  H10X21830   2.951   1.266   9.395  0.4579 -0.7374 -1.2952
  189POPC  H10Y21831   2.802   1.350   9.344  0.9011  0.4113  0.1419
  189POPC  C31121832   2.842   1.184   9.217 -0.2747 -0.4221 -0.1881
  189POPC  H11X21833   2.735   1.162   9.199 -0.3624  0.0866 -0.2991
  189POPC  H11Y21834   2.896   1.087   9.231  2.0285  1.1748  2.4777
  189POPC  C31221835   2.901   1.265   9.104 -0.3728  0.2748  0.2160
  189POPC  H12X21836   3.002   1.305   9.128  0.0781 -1.2428  0.9504
  189POPC  H12Y21837   2.831   1.350   9.088  0.2702  0.2528 -2.9389
  189POPC  C31321838   2.915   1.189   8.973  0.2860  0.1210  0.6506
  189POPC  H13X21839   2.825   1.125   8.962  0.6254 -0.8653  3.2173
  189POPC  H13Y21840   3.004   1.122   8.976  0.5970  0.5810  2.9328
  189POPC  C31421841   2.923   1.276   8.841 -0.1879  0.6195  0.0866
  189POPC  H14X21842   3.003   1.352   8.859 -1.5450  2.3878 -1.1525
  189POPC  H14Y21843   2.828   1.333   8.837 -0.5359  0.0771  0.5705
  189POPC  C31521844   2.964   1.190   8.727 -0.6295 -0.5011 -0.1606
  189POPC  H15X21845   2.873   1.142   8.685 -0.5510 -0.0998 -0.7941
  189POPC  H15Y21846   3.030   1.107   8.760 -0.3611  0.6338  2.2179
  189POPC  C31621847   3.038   1.259   8.610  0.2055 -0.0853 -0.3906
  189POPC  H16X21848   2.987   1.354   8.585 -2.1256 -0.8058  1.4366
  189POPC  H16Y21849   3.042   1.193   8.522 -1.4036 -1.3021  0.4271
  189POPC  H16Z21850   3.132   1.284   8.665 -0.4704  0.6765  0.4295
  190POPC     N21851   5.146   4.432  10.860  0.4942  0.4688  0.9080
  190POPC   C1221852   5.122   4.546  10.954 -0.3338 -0.5775  0.7608
  190POPC  H12A21853   5.182   4.630  10.922 -0.7114 -0.5829  0.0248
  190POPC  H12B21854   5.159   4.514  11.050  0.1724  2.2025  1.5274
  190POPC   C1321855   5.079   4.305  10.909 -0.4839  0.1166  0.0692
  190POPC  H13A21856   5.098   4.228  10.836 -0.7998  1.7876 -1.8401
  190POPC  H13B21857   5.118   4.271  11.004 -0.0758  0.1076 -0.1011
  190POPC  H13C21858   4.975   4.332  10.922 -0.4963  0.0764  0.0553
  190POPC   C1421859   5.105   4.455  10.721  0.0071 -0.2757  0.1157
  190POPC  H14A21860   4.999   4.476  10.711  0.4754  0.9321 -2.8251
  190POPC  H14B21861   5.160   4.537  10.677  0.2716  0.4581  1.7975
  190POPC  H14C21862   5.125   4.363  10.668  1.5584 -0.1634  0.4813
  190POPC   C1521863   5.297   4.411  10.862  0.5013  0.0924  0.1283
  190POPC  H15A21864   5.351   4.485  10.806  3.0545 -0.4095  1.8541
  190POPC  H15B21865   5.308   4.313  10.818  0.5092  0.0181  0.2923
  190POPC  H15C21866   5.329   4.401  10.965 -2.3096 -1.6289  0.9219
  190POPC   C1121867   4.973   4.593  10.972 -0.2870 -0.5133 -0.8832
  190POPC  H11A21868   4.931   4.616  10.872  0.9519 -2.6758 -1.9453
  190POPC  H11B21869   4.986   4.685  11.033  1.1425 -1.3305  0.0809
  190POPC     P21870   4.744   4.537  11.092 -0.0184 -0.1828  0.1471
  190POPC   O1321871   4.748   4.672  11.153  0.2539 -0.5431 -0.0100
  190POPC   O1421872   4.696   4.421  11.173  0.1402 -0.4665  0.1912
  190POPC   O1221873   4.890   4.497  11.046  0.0381 -0.5547  0.2500
  190POPC   O1121874   4.652   4.538  10.961  0.0258 -0.0445 -0.0614
  190POPC    C121875   4.663   4.437  10.858 -0.0826  0.4430  0.4122
  190POPC    HA21876   4.579   4.366  10.841  2.1494 -2.2536  0.3040
  190POPC    HB21877   4.752   4.371  10.865 -0.8537 -0.6476  0.1457
  190POPC    C221878   4.682   4.499  10.712 -1.3791  0.8264 -0.9151
  190POPC    HS21879   4.771   4.566  10.713  0.4491 -1.4450 -3.2930
  190POPC   O2121880   4.568   4.576  10.679 -0.2217 -0.0619  0.0310
  190POPC   C2121881   4.575   4.670  10.582 -0.6385 -0.8217 -0.3525
  190POPC   O2221882   4.676   4.716  10.538  0.7723  0.3496  0.3949
  190POPC   C2221883   4.428   4.716  10.550 -0.4801 -0.5376  0.0227
  190POPC   H2R21884   4.420   4.806  10.615  1.2443 -0.4249  0.0967
  190POPC   H2S21885   4.357   4.636  10.579  0.1593 -0.6635  1.2709
  190POPC    C321886   4.716   4.388  10.604 -0.4694  1.0268 -0.2492
  190POPC    HX21887   4.646   4.306  10.632  0.0144  0.2817 -1.2030
  190POPC    HY21888   4.820   4.353  10.622  0.0369  1.8009 -1.6361
  190POPC   O3121889   4.690   4.418  10.468  0.1246  0.2328  0.0298
  190POPC   C3121890   4.802   4.473  10.409  1.5346  0.0132  0.0230
  190POPC   O3221891   4.909   4.491  10.465  0.8015 -0.3208 -0.3728
  190POPC   C3221892   4.778   4.504  10.264 -0.0749  0.3389 -0.4929
  190POPC   H2X21893   4.822   4.429  10.195 -2.0494  1.2999 -2.8658
  190POPC   H2Y21894   4.832   4.600  10.247  0.0537  0.2477 -0.5909
  190POPC   C2321895   4.397   4.771  10.407  0.5181 -0.0762  0.0280
  190POPC   H3R21896   4.499   4.758  10.363  0.6507 -0.0201  0.3177
  190POPC   H3S21897   4.357   4.874  10.403  0.4757 -0.1514 -1.8067
  190POPC   C2421898   4.291   4.690  10.330  0.3007  0.2378 -0.7773
  190POPC   H4R21899   4.194   4.688  10.385  0.7365  0.1051 -0.0063
  190POPC   H4S21900   4.326   4.584  10.330 -0.6758 -0.0958 -1.1840
  190POPC   C2521901   4.271   4.743  10.187 -0.3796  0.2037 -0.2905
  190POPC   H5R21902   4.366   4.790  10.155 -0.1591 -0.5249 -0.7173
  190POPC   H5S21903   4.193   4.822  10.193 -0.0572  0.4496  0.7708
  190POPC   C2621904   4.224   4.623  10.105  0.0771 -0.0033 -0.3714
  190POPC   H6R21905   4.284   4.530  10.099  1.5581  1.1073 -3.6698
  190POPC   H6S21906   4.218   4.666  10.003  0.9112 -0.4291 -0.6010
  190POPC   C2721907   4.086   4.578  10.145 -0.3917 -1.3190  0.2237
  190POPC   H7R21908   4.014   4.658  10.173  1.7930  1.0364 -0.7303
  190POPC   H7S21909   4.086   4.522  10.241 -2.9143 -4.2083 -1.3873
  190POPC   C2821910   4.018   4.488  10.039 -0.4397 -0.0208 -0.1959
  190POPC   H8R21911   3.936   4.429  10.086 -1.4128  0.2637 -1.4968
  190POPC   H8S21912   4.088   4.405  10.016  0.5485  1.0044 -0.9853
  190POPC   C2921913   3.955   4.554   9.919 -0.9359  0.1918  0.2133
  190POPC   H9121914   3.863   4.609   9.945  0.1884  3.2832 -1.9850
  190POPC  C21021915   4.003   4.556   9.796  0.0960 -0.2644 -0.8971
  190POPC  H10121916   3.955   4.615   9.716  1.5331 -1.6399 -2.8059
  190POPC  C21121917   4.134   4.500   9.752  0.0604  0.3645  0.7401
  190POPC  H11R21918   4.122   4.421   9.676 -0.9180  0.0059  1.2575
  190POPC  H11S21919   4.204   4.466   9.832 -1.1215 -2.1037  0.7646
  190POPC  C21221920   4.215   4.604   9.667 -0.1845 -0.1184 -0.4967
  190POPC  H12R21921   4.323   4.579   9.665  0.1188  1.2512 -2.5802
  190POPC  H12S21922   4.210   4.702   9.717 -2.1205 -0.3034 -0.2992
  190POPC  C21321923   4.160   4.603   9.521 -0.2267  0.0476  0.1666
  190POPC  H13R21924   4.056   4.643   9.518 -0.7717 -1.3743 -0.5174
  190POPC  H13S21925   4.144   4.503   9.475 -0.4035  0.9215 -1.7259
  190POPC  C21421926   4.254   4.672   9.420 -0.3773  0.2641  0.1929
  190POPC  H14R21927   4.356   4.638   9.449 -0.5423  0.6026  1.1952
  190POPC  H14S21928   4.262   4.783   9.429  1.2229  0.1334  0.7023
  190POPC  C21521929   4.237   4.632   9.279 -0.0956  0.1315 -0.3356
  190POPC  H15R21930   4.289   4.534   9.272 -1.8759 -0.6852 -2.6602
  190POPC  H15S21931   4.283   4.710   9.214 -2.9715  1.4507 -0.8463
  190POPC  C21621932   4.098   4.614   9.219 -0.1910  0.3686 -0.3784
  190POPC  H16R21933   4.038   4.700   9.257 -0.2856  1.0727 -2.0641
  190POPC  H16S21934   4.052   4.522   9.261 -0.4578  0.7475  0.1688
  190POPC  C21721935   4.080   4.592   9.065 -0.5562 -0.5002  0.0322
  190POPC  H17R21936   4.139   4.503   9.034  0.0191 -0.3937  0.7829
  190POPC  H17S21937   4.122   4.679   9.010 -0.9349  0.8033  1.7425
  190POPC  C21821938   3.935   4.575   9.015 -0.5357  0.0833 -0.6157
  190POPC  H18R21939   3.861   4.641   9.065  1.1189 -1.1150  3.6191
  190POPC  H18S21940   3.897   4.473   9.037  3.8081 -1.6791 -0.6907
  190POPC  H18T21941   3.924   4.584   8.904 -1.3316 -1.2682 -0.6604
  190POPC   C3321942   4.628   4.506  10.221  0.5313 -0.0339  0.3126
  190POPC   H3X21943   4.587   4.608  10.236 -1.8638 -0.6517 -1.6890
  190POPC   H3Y21944   4.573   4.427  10.275 -0.3841 -1.8896 -3.1895
  190POPC   C3421945   4.615   4.473  10.066  0.4389  0.2021  0.4777
  190POPC   H4X21946   4.516   4.426  10.047  0.7722  0.3505 -1.7082
  190POPC   H4Y21947   4.689   4.397  10.032  0.5593  0.5846 -0.1104
  190POPC   C3521948   4.634   4.599   9.977 -0.1102 -0.6021  0.8851
  190POPC   H5X21949   4.740   4.632   9.978 -0.0962 -0.4915 -1.8469
  190POPC   H5Y21950   4.581   4.681  10.030 -2.8529 -0.4164 -2.0410
  190POPC   C3621951   4.577   4.582   9.827 -0.0527 -0.0363  1.1988
  190POPC   H6X21952   4.573   4.684   9.785 -0.5694 -0.3135  0.5593
  190POPC   H6Y21953   4.469   4.556   9.824 -0.2475  0.9807 -1.8416
  190POPC   C3721954   4.659   4.481   9.745 -0.3435 -0.2254  0.0856
  190POPC   H7X21955   4.670   4.388   9.805 -1.8985  0.9126  2.1879
  190POPC   H7Y21956   4.760   4.524   9.731 -0.3692  0.3181  1.5094
  190POPC   C3821957   4.593   4.450   9.611 -0.3737 -0.2462  0.8541
  190POPC   H8X21958   4.576   4.539   9.547  0.1881 -2.2669 -2.2084
  190POPC   H8Y21959   4.492   4.407   9.624  0.7535 -3.6878 -0.9433
  190POPC   C3921960   4.669   4.349   9.521 -0.4127 -0.5437 -0.4409
  190POPC   H9X21961   4.694   4.259   9.581  1.9537  0.6336  0.4228
  190POPC   H9Y21962   4.765   4.394   9.485 -0.3460  1.5765  2.2112
  190POPC  C31021963   4.590   4.298   9.396 -0.4209  0.2849 -0.1111
  190POPC  H10X21964   4.592   4.374   9.314  1.3883  2.1310  1.5939
  190POPC  H10Y21965   4.484   4.282   9.425 -0.2645  1.4707  1.1622
  190POPC  C31121966   4.645   4.162   9.354 -0.1918 -0.1256  0.2139
  190POPC  H11X21967   4.628   4.079   9.426  0.1104  0.0667  0.5099
  190POPC  H11Y21968   4.755   4.169   9.340 -0.3841 -0.0642 -1.2791
  190POPC  C31221969   4.575   4.124   9.219 -0.1730 -0.2951 -1.0299
  190POPC  H12X21970   4.569   4.212   9.151 -0.2541 -0.6608 -1.4976
  190POPC  H12Y21971   4.478   4.078   9.248  0.7205 -0.2624  2.2313
  190POPC  C31321972   4.663   4.018   9.146 -0.3497  0.5264  0.0911
  190POPC  H13X21973   4.672   3.927   9.208 -0.8823 -2.0294 -3.4232
  190POPC  H13Y21974   4.767   4.052   9.128  0.0082 -0.9167 -0.6437
  190POPC  C31421975   4.599   3.976   9.014 -0.0564 -0.6065 -0.1668
  190POPC  H14X21976   4.575   4.073   8.965 -0.4290 -0.6098  0.0034
  190POPC  H14Y21977   4.509   3.920   9.046 -1.0877  1.1193  0.0202
  190POPC  C31521978   4.691   3.903   8.926 -0.3814  0.1843  0.1776
  190POPC  H15X21979   4.722   3.806   8.971 -0.6721 -0.1323 -0.2990
  190POPC  H15Y21980   4.788   3.957   8.920 -0.3606 -0.1337 -3.7020
  190POPC  C31621981   4.643   3.878   8.787  0.3871  0.0510 -0.1327
  190POPC  H16X21982   4.548   3.820   8.783  0.3318 -0.1968  3.3405
  190POPC  H16Y21983   4.731   3.826   8.744  0.6469  0.8238 -0.5468
  190POPC  H16Z21984   4.628   3.975   8.735 -1.1287  2.6477  4.7613
  191POPC     N21985   5.578   5.232   6.455  0.1416  0.3288 -0.5065
  191POPC   C1221986   5.505   5.171   6.341  0.4026  0.0722 -0.3275
  191POPC  H12A21987   5.542   5.219   6.251 -1.3431  1.5884 -0.2581
  191POPC  H12B21988   5.399   5.187   6.347 -0.1224 -3.0219 -0.3405
  191POPC   C1321989   5.576   5.385   6.455  0.1315  0.6089 -0.0360
  191POPC  H13A21990   5.509   5.420   6.533 -1.0442 -1.4557 -0.0935
  191POPC  H13B21991   5.676   5.424   6.465 -0.3985  2.4897 -1.6760
  191POPC  H13C21992   5.524   5.420   6.367  0.7349  0.6026 -0.3975
  191POPC   C1421993   5.511   5.183   6.583  0.5233 -0.4691 -0.3402
  191POPC  H14A21994   5.517   5.076   6.598  0.2604 -0.1923  1.8862
  191POPC  H14B21995   5.567   5.231   6.662  1.0538  1.9136 -2.0776
  191POPC  H14C21996   5.409   5.216   6.588  0.5600 -0.4753  0.6094
  191POPC   C1521997   5.723   5.195   6.449 -0.2771  0.4160 -0.7077
  191POPC  H15A21998   5.764   5.218   6.352 -1.4693  2.1478 -0.8303
  191POPC  H15B21999   5.742   5.092   6.475 -2.7606  0.1684  0.3654
  191POPC  H15C22000   5.781   5.251   6.521 -3.1369  1.3897  0.9583
  191POPC   C1122001   5.505   5.014   6.337 -0.1467  0.4042  0.5316
  191POPC  H11A22002   5.603   4.973   6.370  0.5732  3.4395  2.3929
  191POPC  H11B22003   5.491   4.979   6.233 -0.1693 -3.2568  1.6895
  191POPC     P22004   5.254   4.969   6.386  0.6536  0.0494 -0.0416
  191POPC   O1322005   5.226   4.849   6.303  0.4453 -0.3084  0.8553
  191POPC   O1422006   5.228   5.105   6.329 -0.4315  0.1631  0.1802
  191POPC   O1222007   5.405   4.956   6.424  0.2576  0.4406 -0.1182
  191POPC   O1122008   5.187   4.956   6.527 -0.3230 -0.3208 -0.7410
  191POPC    C122009   5.201   5.033   6.640  0.7295  0.1945 -0.7815
  191POPC    HA22010   5.216   5.139   6.609 -2.0595  1.2404  1.1985
  191POPC    HB22011   5.291   5.001   6.697  0.5954 -0.6110 -1.0142
  191POPC    C222012   5.069   5.031   6.731  0.1126 -0.8298 -1.0667
  191POPC    HS22013   4.991   5.073   6.663  1.9486  1.5696 -1.7579
  191POPC   O2122014   5.079   5.111   6.851 -0.1185  0.1993 -0.8483
  191POPC   C2122015   4.967   5.137   6.910 -0.0509 -0.3567 -0.1040
  191POPC   O2222016   4.857   5.108   6.867  0.0239 -0.0920 -0.1402
  191POPC   C2222017   4.997   5.205   7.045  0.1881 -0.3998  0.7876
  191POPC   H2R22018   5.057   5.298   7.028  0.2999 -0.4948  0.6659
  191POPC   H2S22019   5.057   5.134   7.106 -0.2598 -1.4574 -0.0027
  191POPC    C322020   5.020   4.888   6.763  0.3242 -0.6461 -0.2219
  191POPC    HX22021   5.009   4.838   6.665  1.9540  2.5110 -2.0915
  191POPC    HY22022   4.919   4.884   6.809 -0.4335  0.5854 -1.7083
  191POPC   O3122023   5.114   4.826   6.850 -0.1509 -0.1299  0.3690
  191POPC   C3122024   5.204   4.747   6.802 -0.4273 -0.2104  0.4187
  191POPC   O3222025   5.209   4.710   6.687  0.0551  0.4677  0.8686
  191POPC   C3222026   5.294   4.694   6.916  0.0512 -0.2945  0.5184
  191POPC   H2X22027   5.360   4.621   6.865 -0.2861 -0.0361 -0.3035
  191POPC   H2Y22028   5.224   4.653   6.992 -2.5124 -0.1551 -1.6785
  191POPC   C2322029   4.865   5.232   7.114  0.9702  0.1798 -0.3724
  191POPC   H3R22030   4.819   5.133   7.134  0.6424  0.3863 -0.1064
  191POPC   H3S22031   4.802   5.282   7.037  2.6432  1.5179 -0.9147
  191POPC   C2422032   4.883   5.306   7.248  0.1474  0.6202  0.1278
  191POPC   H4R22033   4.953   5.250   7.314 -1.1124 -0.5544  0.4907
  191POPC   H4S22034   4.784   5.318   7.296 -0.4959  0.2144 -1.0760
  191POPC   C2522035   4.914   5.458   7.232 -0.1156  0.7267 -0.4295
  191POPC   H5R22036   4.853   5.486   7.144  1.3862  1.6140 -1.2066
  191POPC   H5S22037   5.021   5.462   7.203  0.1893 -1.6661  0.2732
  191POPC   C2622038   4.890   5.545   7.362  0.3718  0.6859 -0.2703
  191POPC   H6R22039   4.964   5.510   7.437  0.0601 -1.3457 -0.8658
  191POPC   H6S22040   4.789   5.519   7.400  0.9544  0.6708  1.3097
  191POPC   C2722041   4.884   5.694   7.331  0.2573  0.2507  0.0903
  191POPC   H7R22042   4.861   5.755   7.421  1.2173 -1.6119  1.6273
  191POPC   H7S22043   4.798   5.697   7.261  0.3556 -2.5262 -0.2168
  191POPC   C2822044   5.014   5.740   7.267  0.4039  0.3088 -0.2395
  191POPC   H8R22045   5.021   5.679   7.174  1.1213  0.7072 -0.4520
  191POPC   H8S22046   5.106   5.718   7.325 -1.0770  0.0591  2.0641
  191POPC   C2922047   5.009   5.889   7.236 -0.0207  0.3551  0.2150
  191POPC   H9122048   4.918   5.918   7.181  0.0645 -2.9214 -1.7135
  191POPC  C21022049   5.108   5.975   7.258  0.9893  0.2051  0.0532
  191POPC  H10122050   5.080   6.080   7.247 -1.1727 -0.4942 -1.4706
  191POPC  C21122051   5.242   5.951   7.318  0.1910 -0.2028  0.1762
  191POPC  H11R22052   5.317   6.008   7.260  0.1902 -0.1631  0.2158
  191POPC  H11S22053   5.276   5.845   7.313  1.2638  0.0996  0.8782
  191POPC  C21222054   5.257   5.995   7.466  0.0783 -0.1463 -0.1013
  191POPC  H12R22055   5.214   6.097   7.470  0.8719  0.2678 -1.7642
  191POPC  H12S22056   5.363   5.996   7.499 -0.7041 -1.2613  2.6067
  191POPC  C21322057   5.184   5.923   7.576 -0.0132 -0.9076  0.2331
  191POPC  H13R22058   5.202   5.814   7.573 -1.9398 -1.2503  0.5766
  191POPC  H13S22059   5.075   5.946   7.574 -0.0280 -0.8311  1.5279
  191POPC  C21422060   5.215   5.962   7.717 -0.2387  0.6302  0.6740
  191POPC  H14R22061   5.132   5.931   7.784  0.1098 -1.4041  0.1946
  191POPC  H14S22062   5.234   6.070   7.736  2.1403  0.0877  1.6457
  191POPC  C21522063   5.341   5.900   7.767 -0.1760  0.0983 -0.0455
  191POPC  H15R22064   5.433   5.945   7.724 -0.5974  1.3070  0.2936
  191POPC  H15S22065   5.338   5.794   7.734  3.2676  0.0952 -0.4609
  191POPC  C21622066   5.352   5.904   7.925  0.3395  0.2893 -0.0364
  191POPC  H16R22067   5.444   5.852   7.958  0.2666  0.4439  0.4083
  191POPC  H16S22068   5.273   5.845   7.975 -1.0288  0.1280 -2.2758
  191POPC  C21722069   5.366   6.043   7.992 -0.3596  0.2270  0.0988
  191POPC  H17R22070   5.374   6.024   8.101  3.4996 -2.6598 -0.5795
  191POPC  H17S22071   5.271   6.093   7.966 -0.6035  0.4569  1.4180
  191POPC  C21822072   5.477   6.138   7.944  0.3645 -0.3820 -0.2946
  191POPC  H18R22073   5.489   6.232   8.003 -0.1910 -0.4387 -0.0848
  191POPC  H18S22074   5.464   6.160   7.836 -1.6888 -0.4437 -0.0872
  191POPC  H18T22075   5.571   6.083   7.963  0.7570  0.4654  0.2394
  191POPC   C3322076   5.387   4.804   6.985 -0.0515  0.8978 -0.6724
  191POPC   H3X22077   5.345   4.896   7.029 -1.9187 -0.3179  0.1376
  191POPC   H3Y22078   5.446   4.844   6.899  0.4350  1.4256 -0.0963
  191POPC   C3422079   5.488   4.738   7.081  0.1265  0.3506  0.6883
  191POPC   H4X22080   5.573   4.809   7.086  0.2537  0.1466  1.5546
  191POPC   H4Y22081   5.512   4.633   7.055 -0.7373  0.0093  1.2141
  191POPC   C3522082   5.428   4.725   7.228  0.5926 -0.5319 -0.2034
  191POPC   H5X22083   5.349   4.647   7.230  0.2619 -0.2262 -0.9531
  191POPC   H5Y22084   5.372   4.815   7.259  1.6380 -1.1176  3.6173
  191POPC   C3622085   5.538   4.693   7.324  0.3095 -0.0678  0.1564
  191POPC   H6X22086   5.620   4.767   7.308 -0.5389  0.4149 -2.2103
  191POPC   H6Y22087   5.571   4.593   7.287 -0.1975  0.9767 -3.3782
  191POPC   C3722088   5.490   4.687   7.467  0.1274 -0.1844  0.3940
  191POPC   H7X22089   5.454   4.584   7.485  1.5545 -1.2016 -2.3080
  191POPC   H7Y22090   5.397   4.747   7.475 -0.6048 -1.3022  0.2193
  191POPC   C3822091   5.594   4.717   7.574  0.4254  0.8011 -0.2259
  191POPC   H8X22092   5.624   4.824   7.578 -0.9586  1.1975 -0.1226
  191POPC   H8Y22093   5.682   4.656   7.545  0.1170  1.0175 -1.6701
  191POPC   C3922094   5.552   4.677   7.716  0.2222 -0.2493  0.5332
  191POPC   H9X22095   5.520   4.571   7.716  1.0085 -0.4936  2.1209
  191POPC   H9Y22096   5.460   4.732   7.747 -0.4918 -1.1319 -0.0020
  191POPC  C31022097   5.663   4.706   7.813 -0.5648  0.4385  0.2780
  191POPC  H10X22098   5.680   4.816   7.819 -1.1518  0.5839 -0.5595
  191POPC  H10Y22099   5.760   4.663   7.781  0.4677  2.9424 -0.0804
  191POPC  C31122100   5.625   4.645   7.955  0.3512 -0.0014  0.1679
  191POPC  H11X22101   5.646   4.536   7.949  1.2186  0.2270 -1.0261
  191POPC  H11Y22102   5.518   4.667   7.976  0.0746 -1.0998 -0.0407
  191POPC  C31222103   5.719   4.699   8.066  0.1413  0.5187 -0.4495
  191POPC  H12X22104   5.714   4.810   8.075 -3.1244  0.2487  1.8826
  191POPC  H12Y22105   5.828   4.687   8.054  0.4421  1.8007  0.8239
  191POPC  C31322106   5.677   4.644   8.201  0.4870 -0.3983 -0.6015
  191POPC  H13X22107   5.666   4.533   8.204  1.6593 -0.4949  0.9620
  191POPC  H13Y22108   5.578   4.676   8.240  1.0374  0.7897 -0.1673
  191POPC  C31422109   5.776   4.683   8.314  0.0777  1.0316 -1.2696
  191POPC  H14X22110   5.818   4.783   8.290  1.5893  0.6188 -0.4458
  191POPC  H14Y22111   5.862   4.613   8.303 -0.6366 -0.0841  0.0448
  191POPC  C31522112   5.724   4.666   8.451 -0.0555  0.1356 -0.2291
  191POPC  H15X22113   5.643   4.731   8.490 -0.7678 -2.1902  2.3407
  191POPC  H15Y22114   5.806   4.686   8.523 -0.6078  1.1927  0.1036
  191POPC  C31622115   5.672   4.524   8.483  0.3495  1.6694  0.0779
  191POPC  H16X22116   5.625   4.528   8.584 -1.3280 -2.8616 -0.3987
  191POPC  H16Y22117   5.757   4.452   8.479  0.7187  2.2264 -2.4286
  191POPC  H16Z22118   5.594   4.493   8.411  1.0340 -1.3459  0.5588
  192POPC     N22119   3.616   0.736   5.857 -0.0614  0.2968 -0.5887
  192POPC   C1222120   3.524   0.852   5.879 -0.5416  0.2743 -0.0669
  192POPC  H12A22121   3.463   0.856   5.790  1.4410  0.0720 -1.4606
  192POPC  H12B22122   3.575   0.947   5.885 -1.4015  0.6664  1.3423
  192POPC   C1322123   3.543   0.611   5.875  0.0704  0.1108 -0.1469
  192POPC  H13A22124   3.596   0.526   5.834 -2.0739 -0.5066 -1.7352
  192POPC  H13B22125   3.517   0.595   5.978 -0.3771 -0.6184 -0.3653
  192POPC  H13C22126   3.459   0.615   5.807  0.4179 -0.7400 -0.6344
  192POPC   C1422127   3.683   0.749   5.725 -0.0453 -0.6114  0.6394
  192POPC  H14A22128   3.614   0.747   5.642  0.0580 -0.0564  0.5385
  192POPC  H14B22129   3.719   0.850   5.720 -1.4077 -0.1377  0.3532
  192POPC  H14C22130   3.762   0.676   5.715  1.2520  0.8968 -0.2999
  192POPC   C1522131   3.725   0.745   5.957 -0.7201 -0.3404  0.1788
  192POPC  H15A22132   3.809   0.677   5.956 -1.1235 -0.8381 -1.1524
  192POPC  H15B22133   3.683   0.733   6.056 -1.9371  0.5962 -0.2107
  192POPC  H15C22134   3.780   0.838   5.958  1.4745 -1.5999  1.2871
  192POPC   C1122135   3.426   0.834   5.990 -0.2210 -1.4068 -0.6266
  192POPC  H11A22136   3.476   0.808   6.085 -0.6056  0.0777 -0.0124
  192POPC  H11B22137   3.348   0.757   5.970 -0.0348 -1.3205 -1.7603
  192POPC     P22138   3.414   1.094   6.042  0.3480  0.2489 -0.1085
  192POPC   O1322139   3.308   1.182   6.105 -0.4670 -0.5944  0.8344
  192POPC   O1422140   3.482   1.148   5.921 -0.0069 -0.3102  0.0115
  192POPC   O1222141   3.357   0.952   5.999 -0.1879 -0.3035  0.0702
  192POPC   O1122142   3.516   1.061   6.153  0.6782  0.7624 -0.5516
  192POPC    C122143   3.483   0.986   6.275 -0.1941 -0.2662  0.0079
  192POPC    HA22144   3.526   0.884   6.269  0.8898  0.2671 -1.8406
  192POPC    HB22145   3.373   0.973   6.285 -0.3450  1.0167  0.1403
  192POPC    C222146   3.530   1.059   6.400  0.0962  0.1671 -0.1182
  192POPC    HS22147   3.495   1.164   6.389 -2.4272 -0.3443  2.4514
  192POPC   O2122148   3.671   1.056   6.412  0.5888 -0.3369  0.3538
  192POPC   C2122149   3.728   1.171   6.442  0.5989 -0.5688  0.4384
  192POPC   O2222150   3.667   1.281   6.453  0.0032  0.2572 -0.0242
  192POPC   C2222151   3.882   1.158   6.447 -0.4883 -0.3122  0.1277
  192POPC   H2R22152   3.934   1.245   6.403 -2.0497 -0.0462 -1.2286
  192POPC   H2S22153   3.909   1.068   6.389  1.8268 -0.9522  2.1315
  192POPC    C322154   3.460   0.994   6.521 -0.2626  1.1555  0.5747
  192POPC    HX22155   3.528   0.914   6.558 -0.0502  1.2014  0.2840
  192POPC    HY22156   3.361   0.954   6.491 -0.1807  2.3764 -1.4488
  192POPC   O3122157   3.427   1.085   6.627  0.6824 -0.6758 -0.0461
  192POPC   C3122158   3.516   1.104   6.726 -0.1708  0.1747  0.0384
  192POPC   O3222159   3.623   1.040   6.732  0.2452  0.0262 -0.2594
  192POPC   C3222160   3.467   1.210   6.824 -0.4182  0.5164 -0.9581
  192POPC   H2X22161   3.364   1.235   6.791 -0.8003  1.1754  0.6962
  192POPC   H2Y22162   3.530   1.301   6.817  1.1953 -0.4481  0.7810
  192POPC   C2322163   3.933   1.135   6.594  0.3138 -0.5378  0.1549
  192POPC   H3R22164   4.032   1.085   6.586  0.9926  0.9312 -0.8230
  192POPC   H3S22165   3.871   1.071   6.661 -0.3279 -0.6883 -0.5839
  192POPC   C2422166   3.944   1.274   6.660  0.1710  0.1251 -0.3419
  192POPC   H4R22167   3.846   1.325   6.661 -0.0390 -0.3097  1.4716
  192POPC   H4S22168   4.016   1.337   6.603  1.7072 -1.0994  0.2011
  192POPC   C2522169   4.017   1.260   6.794 -0.2290  0.1713  0.2343
  192POPC   H5R22170   4.122   1.233   6.768 -0.2825  1.1178 -1.0173
  192POPC   H5S22171   3.953   1.189   6.850 -0.5212 -0.9619 -1.5215
  192POPC   C2622172   4.030   1.392   6.870 -0.5618 -0.3556 -0.2283
  192POPC   H6R22173   3.923   1.416   6.890 -0.5751  0.3903 -1.1684
  192POPC   H6S22174   4.078   1.466   6.803 -2.0746  1.4941  0.6604
  192POPC   C2722175   4.117   1.379   6.998  0.1318 -0.3106  0.0733
  192POPC   H7R22176   4.160   1.477   7.027 -1.9636  1.0279 -1.2061
  192POPC   H7S22177   4.200   1.308   6.979 -0.3039 -0.1360 -2.8338
  192POPC   C2822178   4.050   1.319   7.119 -0.6024  0.4284 -0.6666
  192POPC   H8R22179   4.136   1.300   7.188 -1.3033  3.8624  1.2500
  192POPC   H8S22180   3.986   1.229   7.109  1.5339 -1.0836 -1.1361
  192POPC   C2922181   3.963   1.428   7.180  0.5750  0.1203  0.1613
  192POPC   H9122182   3.865   1.433   7.131  2.1569 -2.4943 -3.4542
  192POPC  C21022183   3.982   1.496   7.292 -0.2969 -0.1667  0.6484
  192POPC  H10122184   3.910   1.575   7.321  0.7682 -0.0648  3.1084
  192POPC  C21122185   4.103   1.480   7.373  0.8531 -0.5811  0.2094
  192POPC  H11R22186   4.199   1.496   7.320  0.1997  0.9461 -0.5452
  192POPC  H11S22187   4.101   1.375   7.409  1.3762 -0.7145 -0.1534
  192POPC  C21222188   4.116   1.563   7.507 -0.1412 -0.0852 -0.2938
  192POPC  H12R22189   4.032   1.555   7.580  0.9791  2.1264  1.3185
  192POPC  H12S22190   4.112   1.672   7.486  1.6558 -0.3198 -1.9439
  192POPC  C21322191   4.252   1.535   7.578 -0.0527  0.0390  0.2873
  192POPC  H13R22192   4.294   1.630   7.619  1.8162 -0.6099 -0.0560
  192POPC  H13S22193   4.319   1.506   7.494  2.8813  0.9643  2.2104
  192POPC  C21422194   4.232   1.429   7.692 -0.1676 -0.0945 -0.6167
  192POPC  H14R22195   4.330   1.381   7.710 -0.1077  0.9490  2.1638
  192POPC  H14S22196   4.156   1.355   7.659  1.1031 -0.6758 -2.2863
  192POPC  C21522197   4.181   1.493   7.823 -0.0659 -0.4832  0.0573
  192POPC  H15R22198   4.081   1.540   7.804 -1.1068 -2.2997  0.9500
  192POPC  H15S22199   4.251   1.558   7.878 -0.3981 -0.0088 -0.0716
  192POPC  C21622200   4.135   1.392   7.935  0.0289  0.0500  0.0932
  192POPC  H16R22201   4.079   1.307   7.891  1.8082 -0.4891 -1.2079
  192POPC  H16S22202   4.074   1.450   8.007  2.1034  1.6895  0.5961
  192POPC  C21722203   4.243   1.312   8.004 -0.0711 -0.1187 -0.1723
  192POPC  H17R22204   4.315   1.376   8.059 -1.8405  0.7799  1.1349
  192POPC  H17S22205   4.311   1.263   7.931 -0.1396  2.4225 -1.9964
  192POPC  C21822206   4.185   1.209   8.108  0.1522 -0.4005 -0.3180
  192POPC  H18R22207   4.112   1.146   8.053  2.0258 -2.2570 -0.7168
  192POPC  H18S22208   4.147   1.271   8.192 -1.4199  0.2626 -1.4817
  192POPC  H18T22209   4.261   1.134   8.137  0.7093 -0.2375 -1.3318
  192POPC   C3322210   3.469   1.159   6.969  0.1158  0.6118  0.1846
  192POPC   H3X22211   3.406   1.069   6.979  1.6135 -0.3275  1.4191
  192POPC   H3Y22212   3.430   1.234   7.041  1.1631  1.1376  0.2191
  192POPC   C3422213   3.601   1.112   7.026 -0.6746 -0.4630  0.5945
  192POPC   H4X22214   3.673   1.195   7.014  0.5211 -1.6574 -0.8301
  192POPC   H4Y22215   3.634   1.026   6.964 -0.6419  1.7194 -2.5371
  192POPC   C3522216   3.590   1.088   7.176  0.5861  0.5576 -0.3988
  192POPC   H5X22217   3.640   0.991   7.199 -0.6466  0.1719  0.7429
  192POPC   H5Y22218   3.481   1.076   7.194  1.1646  0.0914  3.1605
  192POPC   C3622219   3.643   1.207   7.252  0.1866  0.1925 -0.0960
  192POPC   H6X22220   3.579   1.293   7.224 -1.0365 -0.8202 -0.4813
  192POPC   H6Y22221   3.745   1.224   7.213  0.6371  0.0055  0.9987
  192POPC   C3722222   3.644   1.200   7.405  0.0014 -0.1757 -0.1576
  192POPC   H7X22223   3.715   1.116   7.418 -1.0081 -0.9358  0.5702
  192POPC   H7Y22224   3.541   1.173   7.437 -0.5400 -1.1000 -2.6017
  192POPC   C3822225   3.691   1.322   7.483 -0.5917 -0.8788 -0.5153
  192POPC   H8X22226   3.623   1.407   7.461  2.1505  1.2110 -1.2982
  192POPC   H8Y22227   3.796   1.342   7.452 -0.1887 -1.7763  0.2507
  192POPC   C3922228   3.690   1.294   7.635 -0.7479 -0.7603  0.0694
  192POPC   H9X22229   3.733   1.193   7.647  2.2986  0.5136  0.2264
  192POPC   H9Y22230   3.589   1.296   7.682 -1.0520 -1.8179 -0.5367
  192POPC  C31022231   3.789   1.390   7.696 -0.4195  0.1296 -0.0967
  192POPC  H10X22232   3.774   1.495   7.665  1.2391  0.8427  1.3992
  192POPC  H10Y22233   3.892   1.358   7.668 -0.0024  1.4797 -0.1557
  192POPC  C31122234   3.784   1.405   7.849 -0.8126 -0.1434 -0.6645
  192POPC  H11X22235   3.691   1.463   7.867 -1.0911 -1.1455  1.2007
  192POPC  H11Y22236   3.867   1.467   7.889 -0.9493 -0.9977  0.9767
  192POPC  C31222237   3.795   1.275   7.923 -0.2240 -0.4289 -0.1890
  192POPC  H12X22238   3.890   1.223   7.899 -1.5543 -3.3543  0.6666
  192POPC  H12Y22239   3.714   1.208   7.888 -0.0033 -1.3835  1.0720
  192POPC  C31322240   3.788   1.282   8.071  0.6496 -0.3665  0.0526
  192POPC  H13X22241   3.877   1.335   8.111  0.3848  0.7305 -0.7981
  192POPC  H13Y22242   3.780   1.180   8.114 -0.5497  0.9059  2.9608
  192POPC  C31422243   3.663   1.359   8.116 -0.7440  0.1230 -0.0756
  192POPC  H14X22244   3.575   1.312   8.067 -1.9654  1.8348  0.4301
  192POPC  H14Y22245   3.663   1.458   8.066  0.3234  0.1339 -0.0607
  192POPC  C31522246   3.658   1.375   8.262 -0.0745 -0.3398  0.3481
  192POPC  H15X22247   3.757   1.403   8.302 -0.6112  1.2907  0.5538
  192POPC  H15Y22248   3.638   1.275   8.307 -0.3380 -1.0793 -1.3593
  192POPC  C31622249   3.564   1.490   8.303 -0.3652  0.0212  0.0905
  192POPC  H16X22250   3.571   1.503   8.413  1.5236 -2.3370  0.2915
  192POPC  H16Y22251   3.459   1.471   8.271 -0.7891 -1.2303  2.1016
  192POPC  H16Z22252   3.595   1.584   8.253  0.4748 -0.7886 -0.9285
  193SOD    SOD22253   6.413   3.966   5.542 -0.0691 -0.1862 -0.3962
  194SOD    SOD22254   5.850   3.900   1.607 -0.1547  0.0697 -0.1084
  195SOD    SOD22255   4.504   0.139  15.727  0.1865  0.6566 -0.2438
  196SOD    SOD22256   3.448   5.305  11.695 -0.5273  0.6686  0.4107
  197SOD    SOD22257   4.369   5.850   5.564 -0.3186 -0.6391 -0.3114
  198SOD    SOD22258   0.291   4.204  11.095 -0.2721  0.1125 -0.2642
  199SOD    SOD22259   1.459   2.310   5.885 -0.1854  0.0240 -0.2162
  200SOD    SOD22260   2.816   3.240  10.434  0.2165 -0.2979 -0.0278
  201SOD    SOD22261   1.395   3.382   1.413 -0.1876 -0.0213 -0.4122
  202SOD    SOD22262   4.471   1.611  15.205  0.4105 -0.2574  0.1456
  203SOD    SOD22263   6.514   5.255   5.979 -0.2999 -0.2133  0.0595
  204SOD    SOD22264   1.041   0.197  16.228 -0.4904  0.3747 -0.0448
  205SOD    SOD22265   0.404   5.651  11.313 -0.5941 -0.2414 -0.0741
  206SOD    SOD22266   1.465   3.817   5.443 -0.6351  0.2485 -0.2571
  207SOD    SOD22267   0.510   2.096   5.558  0.2043 -0.0410 -0.1890
  208SOD    SOD22268   5.442   6.395   3.140  0.3909  0.4080  0.2943
  209SOD    SOD22269   4.098   1.339  10.434 -0.2264 -0.0523 -0.1961
  210SOD    SOD22270   5.461   2.909  11.608 -0.5995 -0.1925  0.3331
  211SOD    SOD22271   2.818   3.523   0.534 -0.1499  0.5097 -0.2758
  212SOD    SOD22272   3.090   6.013   3.375  0.0724 -0.2119 -0.3271
  213SOD    SOD22273   0.716   5.340   0.822 -0.1642  0.2711 -0.2890
  214SOD    SOD22274   2.506   6.347  16.808 -0.5502  0.3357  0.7583
  215SOD    SOD22275   0.933   1.516   0.027  0.2560 -0.1526  0.3603
  216SOD    SOD22276   5.995   5.623   2.970  0.3420  0.1426  0.2644
  217SOD    SOD22277   2.340   4.542  14.444 -0.4952 -0.8970  0.0336
  218SOD    SOD22278   5.978   4.836  11.444  0.3317  0.2539  0.4227
  219SOD    SOD22279   6.218   2.247   1.363 -0.2055  0.2674 -0.0724
  220SOD    SOD22280   5.377   2.359  15.732  0.1326 -0.3643 -0.2251
  221SOD    SOD22281   1.919   2.092   1.221 -0.4129 -0.2959 -0.5386
  222SOD    SOD22282   0.935   2.072  12.143  0.1958 -0.1160 -0.7621
  223SOD    SOD22283   1.388   0.964   3.395 -0.3413 -0.2256  0.0455
  224SOD    SOD22284   2.360   4.923   6.359  0.3139 -0.0143  0.4173
  225SOD    SOD22285   6.692   6.547   4.308  0.4952 -0.2383 -0.2366
  226SOD    SOD22286   3.078   6.221   0.338 -0.8708 -0.3290  0.0676
  227SOD    SOD22287   1.951   4.428   1.580  0.1137 -0.2886 -0.2863
  228SOD    SOD22288   1.856   4.850   5.770  0.1449  0.4551 -0.2573
  229SOD    SOD22289   5.781   3.937   5.692 -0.0522 -0.2998 -0.3939
  230SOD    SOD22290   6.585   6.085  17.217  0.0490 -0.4406  0.1610
  231SOD    SOD22291   0.958   2.919  14.268  0.2933  0.0819  0.5346
  232SOD    SOD22292   2.761   4.565   5.725  0.0609 -0.1460 -0.1146
  233SOD    SOD22293   2.395   1.119  12.574 -0.3909 -0.5074 -0.2039
  234SOD    SOD22294   1.645   6.010   3.679  0.1178  0.2332 -0.1290
  235SOD    SOD22295   6.659   3.902  16.998  0.5136 -0.2555 -0.4642
  236SOD    SOD22296   5.868   3.377  16.744  0.2173  0.1175  0.0056
  237SOD    SOD22297   3.793   0.831  11.439 -0.5164 -0.7062 -0.2461
  238SOD    SOD22298   4.867   3.896   0.322  0.1807 -0.0444 -0.0354
  239SOD    SOD22299   3.006   1.555   6.264 -0.0261  0.1271 -0.2938
  240SOD    SOD22300   2.487   4.401   4.169  0.4070  0.2444  0.6259
  241SOD    SOD22301   3.975   3.672  12.172 -0.1871  0.2763  0.4275
  242SOD    SOD22302   6.303   2.454  16.855 -0.0706 -0.2746  0.0889
  243SOD    SOD22303   0.741   6.064   0.984 -0.3445  0.3996  0.3242
  244SOD    SOD22304   4.633   4.195  16.695 -0.0954  0.5383 -0.2509
  245SOD    SOD22305   0.569   0.976   5.736 -0.3403  0.0692 -0.0399
  246SOD    SOD22306   6.289   2.759   3.788  0.1344  0.4476 -0.3500
  247SOD    SOD22307   4.921   4.236   2.119 -0.1955  0.3138  0.3232
  248SOD    SOD22308   2.404   6.549  11.152  0.3298  0.1848 -0.4329
  249SOD    SOD22309   3.379   1.537  15.124  0.1863  0.4953 -0.0266
  250SOD    SOD22310   5.908   1.173   4.770 -0.2402  0.3756  0.2178
  251SOD    SOD22311   4.219   5.620   3.435 -0.0492  0.3439  0.2227
  252SOD    SOD22312   2.642   0.403  15.541  0.7052 -0.6079 -0.2706
  253SOD    SOD22313   3.401   0.012  10.801 -0.2046 -0.5079  0.8366
  254SOD    SOD22314   0.684   1.531  13.804 -0.0082 -0.0026 -0.0572
  255SOD    SOD22315   2.028   4.085  14.149  0.4384 -0.3460 -0.2893
  256SOD    SOD22316   5.496   4.393   5.902  0.2835 -0.5569 -0.1978
  257SOD    SOD22317   5.633   6.684   5.960 -0.5855 -0.1939 -0.2134
  258SOD    SOD22318   4.881   5.983  12.747  0.3401  0.1471  0.3930
  259SOD    SOD22319   3.962   3.737  11.430  0.4511 -0.8946  0.2702
  260SOD    SOD22320   1.401   4.234  11.276  0.1501  0.2998  0.1865
  261SOD    SOD22321   3.942   6.067   2.838 -0.0977  0.2318  0.0174
  262SOD    SOD22322   4.325   0.151   4.235  0.1877  0.2129  0.5137
  263SOD    SOD22323   5.362   6.749  11.699  0.0176 -0.0564  0.5117
  264SOD    SOD22324   4.678   1.648  11.256 -0.1997 -0.4718 -0.0802
  265SOD    SOD22325   3.163   4.347   1.591 -0.1263 -0.2447 -0.0653
  266SOD    SOD22326   6.493   1.476   4.192 -0.2372  0.5594  0.1208
  267SOD    SOD22327   2.168   6.123  11.992  0.2423  0.1786 -0.5730
  268SOD    SOD22328   1.474   2.951   3.503 -0.4323 -0.6392  0.2319
  269SOD    SOD22329   1.382   1.870  12.764 -0.0431 -0.1182 -0.4190
  270CLA    CLA22330   1.987   6.683  15.312 -0.1999 -0.1376 -0.2894
  271CLA    CLA22331   2.388   2.550   2.391 -0.0258  0.0140  0.7485
  272CLA    CLA22332   4.974   4.003  16.461  0.4316  0.1155  0.3647
  273CLA    CLA22333   4.403   2.153  15.605  0.1589  0.0283  0.1288
  274CLA    CLA22334   5.087   5.864   3.106 -0.1368 -0.3516 -0.4559
  275CLA    CLA22335   4.955   3.926   2.552  0.1508 -0.2793 -0.3048
  276CLA    CLA22336   1.302   6.711  15.497  0.2538 -0.0762 -0.6461
  277CLA    CLA22337   6.315   5.571   3.502  0.1064  0.2119 -0.2581
  278CLA    CLA22338   1.685   4.302   0.157  0.0944  0.1881  0.2182
  279CLA    CLA22339   1.204   1.125  13.481 -0.1492 -0.0783 -0.1381
  280CLA    CLA22340   2.257   4.453   3.146 -0.1774 -0.1098  0.0715
  281CLA    CLA22341   6.332   6.174   4.715  0.4553 -0.3454 -0.1880
  282CLA    CLA22342   4.979   2.699  16.602 -0.0002  0.0647  0.2472
  283CLA    CLA22343   3.302   5.191   1.248 -0.2303 -0.3837 -0.2814
  284CLA    CLA22344   5.944   1.154  13.484 -0.0206 -0.9239 -0.0861
  285CLA    CLA22345   1.071   2.776   3.673  0.0160  0.1820 -0.0211
  286CLA    CLA22346   6.674   1.717   0.853  0.2260 -0.2865 -0.1943
  287CLA    CLA22347   4.868   0.728  13.599  0.1988 -0.4318 -0.1572
  288CLA    CLA22348   6.364   3.630   0.093  0.3467  0.1048  0.2708
  289CLA    CLA22349   0.530   2.499  16.835 -0.0889  0.2583 -0.2023
  290CLA    CLA22350   1.759   0.152   4.068 -0.2887  0.2137  0.1968
  291CLA    CLA22351   4.049   1.822   3.413 -0.2279 -0.6055 -0.0106
  292CLA    CLA22352   3.987   4.186   2.242  0.2809 -0.2059  0.0179
  293CLA    CLA22353   0.904   2.279  13.544  0.1125 -0.1488 -0.2775
  294CLA    CLA22354   6.202   6.206  15.948  0.1378 -0.0514  0.2519
  295CLA    CLA22355   3.976   5.741  14.286 -0.0894  0.1955 -0.0286
  296CLA    CLA22356   5.376   5.446  16.125 -0.0321 -0.1010  0.6362
  297CLA    CLA22357   2.058   4.145  14.414  0.0458  0.2864  0.0279
  298CLA    CLA22358   6.199   0.162   1.798 -0.1014  0.2146  0.0607
  299CLA    CLA22359   0.872   4.386   0.062 -0.0147 -0.1464  0.4783
  300CLA    CLA22360   1.425   0.481  17.125 -0.0304 -0.1225 -0.1384
  301CLA    CLA22361   3.130   3.893   4.676 -0.1808 -0.3106  0.1187
  302CLA    CLA22362   4.005   0.472  14.451  0.5590  0.1937  0.3327
  303CLA    CLA22363   4.989   5.103   3.167  0.0553 -0.2455 -0.5574
  304CLA    CLA22364   5.213   1.339   0.332 -0.4008  0.0286 -0.3125
  305CLA    CLA22365   2.847   4.809  13.998  0.1824  0.1136  0.0479
  306CLA    CLA22366   0.750   1.457   4.699  0.4959 -0.0337 -0.1984
  307CLA    CLA22367   6.212   0.762  13.534  0.3056 -0.0363  0.2327
  308CLA    CLA22368   0.465   2.068  12.948  0.2371 -0.0525 -0.2908
  309CLA    CLA22369   0.547   5.140   5.565 -0.0489  0.0924  0.1185
  310CLA    CLA22370   6.511   2.541   4.838 -0.0522 -0.0200  0.0674
  311CLA    CLA22371   1.351   1.962   1.904 -0.1103  0.1554 -0.2894
  312CLA    CLA22372   2.779   6.059   2.400  0.2280  0.2788  0.2716
  313CLA    CLA22373   2.012   5.682   1.106 -0.1825 -0.3288  0.1289
  314CLA    CLA22374   3.417   6.090  16.968 -0.2518 -0.1712  0.1161
  315CLA    CLA22375   4.958   2.565   5.217  0.0011  0.0459  0.1767
  316CLA    CLA22376   5.998   0.206  10.966  0.0811  0.2825  0.3049
  317CLA    CLA22377   1.890   6.392   0.654 -0.0471  0.1453  0.4453
  318CLA    CLA22378   1.164   0.382   2.186 -0.1785 -0.0048 -0.1776
  319CLA    CLA22379   5.086   1.998  12.301 -0.1806  0.0959 -0.2173
  320CLA    CLA22380   3.450   3.353  13.083 -0.4174 -0.3393  0.2082
  321CLA    CLA22381   0.280   3.183   0.164 -0.0722 -0.0610  0.3680
  322CLA    CLA22382   4.681   6.113   3.585  0.0059  0.1317  0.0207
  323TIP3   OH222383   4.247   4.246  15.782  0.4377  0.5163 -0.1450
  323TIP3    H122384   4.189   4.264  15.708  1.2776 -0.4269 -1.0522
  323TIP3    H222385   4.332   4.281  15.754  0.8679 -0.2760  0.1690
  324TIP3   OH222386   1.505   3.581  10.389  0.1509 -0.2512 -0.4702
  324TIP3    H122387   1.529   3.667  10.357  1.9758 -0.2112  0.9446
  324TIP3    H222388   1.580   3.552  10.440 -1.1223 -1.9420  0.5170
  325TIP3   OH222389   0.492   5.579  11.667  0.0490 -0.1417  0.4520
  325TIP3    H122390   0.547   5.638  11.615  0.5089 -0.2286  0.8386
  325TIP3    H222391   0.554   5.525  11.716 -0.3854  0.5344  1.7621
  326TIP3   OH222392   2.666   5.055  13.119  0.2623  0.2078  0.1191
  326TIP3    H122393   2.664   4.979  13.177 -0.3911  0.1154 -0.0211
  326TIP3    H222394   2.731   5.113  13.158  1.4563 -0.8184 -0.2788
  327TIP3   OH222395   1.587   5.583   2.821 -0.3181  0.6321  0.1334
  327TIP3    H122396   1.516   5.554   2.880  0.2386 -1.3048 -0.1185
  327TIP3    H222397   1.659   5.604   2.880  0.1578 -1.0726  0.1829
  328TIP3   OH222398   1.633   4.122   2.852 -0.1210  0.0207 -0.5465
  328TIP3    H122399   1.637   4.196   2.912 -0.5578 -0.1425 -0.3119
  328TIP3    H222400   1.666   4.048   2.904  1.4992  0.2906 -1.1673
  329TIP3   OH222401   4.085   5.686  12.805  0.0684 -0.2340  0.1473
  329TIP3    H122402   3.991   5.667  12.802 -0.3075  1.7882 -1.7312
  329TIP3    H222403   4.103   5.734  12.725  2.4861  0.4723  1.0646
  330TIP3   OH222404   0.841   0.511  12.215  0.4574 -0.5087 -0.5598
  330TIP3    H122405   0.758   0.558  12.207 -0.1359 -1.6406 -1.1556
  330TIP3    H222406   0.865   0.520  12.307 -0.6803 -0.7677 -0.2313
  331TIP3   OH222407   2.461   5.388   3.880 -0.1053 -0.0060  0.6092
  331TIP3    H122408   2.402   5.461   3.867  0.2413  0.2039  0.1790
  331TIP3    H222409   2.526   5.397   3.810 -1.3804 -2.0286 -0.8650
  332TIP3   OH222410   0.045   3.325  16.827 -0.3402 -0.4662  0.4177
  332TIP3    H122411   0.024   3.237  16.859 -1.5135 -0.3820 -0.0765
  332TIP3    H222412   0.091   3.367  16.899 -0.0976 -1.3589  0.7938
  333TIP3   OH222413   3.813   1.009  14.812  0.3029 -0.2523  0.9117
  333TIP3    H122414   3.844   1.083  14.759 -1.2074 -1.3684 -1.6351
  333TIP3    H222415   3.892   0.958  14.831  0.6928 -0.6831 -1.6772
  334TIP3   OH222416   0.396   6.011   5.481 -0.2657  0.0311 -0.2876
  334TIP3    H122417   0.424   6.063   5.556  0.6398 -1.6639  0.5697
  334TIP3    H222418   0.305   6.038   5.466 -0.4030  0.5072  1.3101
  335TIP3   OH222419   4.687   0.543   0.972  0.1469  0.1293 -0.2884
  335TIP3    H122420   4.655   0.453   0.976  0.3710  0.0346 -0.5943
  335TIP3    H222421   4.632   0.585   0.906 -0.1308  0.2889  0.0415
  336TIP3   OH222422   1.416   6.456  11.905  0.8570  0.3668 -0.2603
  336TIP3    H122423   1.355   6.401  11.954 -1.1116  2.6651 -0.0282
  336TIP3    H222424   1.485   6.478  11.968  0.5463 -0.1093  0.2450
  337TIP3   OH222425   1.006   1.604   0.252  0.2641  0.2877 -0.3309
  337TIP3    H122426   1.099   1.584   0.249 -0.1037 -1.3434 -2.6698
  337TIP3    H222427   0.977   1.572   0.337  1.7326  0.2925  0.1801
  338TIP3   OH222428   1.367   2.286   4.324 -0.6043  0.3006  0.3742
  338TIP3    H122429   1.385   2.381   4.323  0.1295  0.2766 -4.2465
  338TIP3    H222430   1.447   2.247   4.357 -0.9503  1.2767  2.4302
  339TIP3   OH222431   6.782   0.316   0.182 -0.6873  0.4495  1.4182
  339TIP3    H122432   6.843   0.258   0.137 -1.4903  0.2040  0.6354
  339TIP3    H222433   6.838   0.375   0.232  0.2040  0.3942  0.5037
  340TIP3   OH222434   0.662   5.256  15.750  0.4001  0.0341 -0.1202
  340TIP3    H122435   0.695   5.168  15.766 -0.9528  0.0806  3.4068
  340TIP3    H222436   0.617   5.250  15.665  0.5879 -2.5699 -0.0754
  341TIP3   OH222437   0.169   3.910   5.106 -0.3619  0.3632 -0.3384
  341TIP3    H122438   0.158   4.005   5.096 -0.0909  0.5684  1.2067
  341TIP3    H222439   0.174   3.897   5.200  0.3163 -1.1180 -0.5746
  342TIP3   OH222440   2.961   0.655   2.067 -0.4715  0.2019 -0.0757
  342TIP3    H122441   2.939   0.608   1.986  1.1988 -0.9771  0.1254
  342TIP3    H222442   2.936   0.596   2.137  1.9939 -0.5860  0.1755
  343TIP3   OH222443   2.265   6.076  15.050 -0.1384 -0.4932  0.8210
  343TIP3    H122444   2.293   6.153  15.000 -0.8086 -0.0247  1.1564
  343TIP3    H222445   2.221   6.112  15.127 -0.6392 -1.2112  0.8757
  344TIP3   OH222446   4.870   1.520   3.178 -0.1844  0.3027  0.6277
  344TIP3    H122447   4.837   1.439   3.138  0.3271 -0.1245  1.0773
  344TIP3    H222448   4.956   1.533   3.139 -0.6216  1.1025 -0.0940
  345TIP3   OH222449   2.231   2.991   4.610  0.1316 -0.2065  0.0598
  345TIP3    H122450   2.290   3.011   4.537 -0.5562 -0.4628 -0.5713
  345TIP3    H222451   2.284   3.007   4.688  1.2904 -1.1765 -0.4981
  346TIP3   OH222452   2.968   3.148   0.380  0.2984  0.4092  0.4013
  346TIP3    H122453   2.946   3.072   0.434 -0.3010  0.1246 -0.2304
  346TIP3    H222454   3.045   3.120   0.330  1.3022  0.9317  1.6332
  347TIP3   OH222455   3.686   2.150  14.816 -0.3922 -0.1162 -0.4356
  347TIP3    H122456   3.651   2.233  14.848  0.0093 -0.1174  0.0055
  347TIP3    H222457   3.780   2.158  14.828 -0.4168 -0.9219  0.2667
  348TIP3   OH222458   2.083   3.583  10.884  0.1205 -0.0451 -0.3588
  348TIP3    H122459   2.147   3.562  10.817 -1.7907  2.2633 -3.0788
  348TIP3    H222460   2.100   3.675  10.905  0.1852 -0.5273  1.7570
  349TIP3   OH222461   3.603   0.136   3.020  0.4480  0.2448 -0.2160
  349TIP3    H122462   3.568   0.223   3.041  0.1853  0.5810 -1.9434
  349TIP3    H222463   3.525   0.083   3.003  0.6765  0.3064 -1.4947
  350TIP3   OH222464   0.855   2.221   1.880  0.0782  0.5031 -0.4767
  350TIP3    H122465   0.942   2.259   1.873  0.2397  0.2124 -0.0534
  350TIP3    H222466   0.807   2.280   1.938 -0.3168  1.2186 -1.5300
  351TIP3   OH222467   0.502   5.212  17.082  0.3808  0.2570 -0.6752
  351TIP3    H122468   0.496   5.280  17.149 -0.8970 -0.9808  0.5289
  351TIP3    H222469   0.550   5.140  17.124  0.6849 -0.0437 -1.5155
  352TIP3   OH222470   3.069   4.917  13.402  0.1983  0.3657  0.1001
  352TIP3    H122471   3.164   4.911  13.408  0.4226  1.0882 -2.3073
  352TIP3    H222472   3.046   4.863  13.327 -1.4046 -0.5967  1.2522
  353TIP3   OH222473   5.220   2.862  14.655 -0.3247 -0.0081  0.1291
  353TIP3    H122474   5.272   2.916  14.596  0.7634 -1.0363  0.1304
  353TIP3    H222475   5.280   2.839  14.726 -1.1894 -0.0398  0.8681
  354TIP3   OH222476   1.684   4.137   3.917 -0.1513  0.2327  0.0673
  354TIP3    H122477   1.768   4.092   3.921  0.1828  0.9191  1.2394
  354TIP3    H222478   1.622   4.076   3.958 -0.2298 -0.2744 -0.8012
  355TIP3   OH222479   1.330   1.464  16.073  0.1747  0.4540  0.3487
  355TIP3    H122480   1.422   1.451  16.097  0.4388  0.6240 -0.5616
  355TIP3    H222481   1.315   1.400  16.004 -0.3669  0.5172  0.4080
  356TIP3   OH222482   1.213   1.783   5.887 -0.3837 -0.2433 -0.4045
  356TIP3    H122483   1.168   1.707   5.852  1.1623 -0.5889 -1.6166
  356TIP3    H222484   1.293   1.749   5.927  1.7085  1.0170 -3.3892
  357TIP3   OH222485   0.936   2.301   1.461  0.2265 -0.5476 -0.0423
  357TIP3    H122486   0.877   2.267   1.394 -1.0523  1.1592  0.1689
  357TIP3    H222487   0.913   2.252   1.540 -1.0188  0.2043  0.0699
  358TIP3   OH222488   3.648   5.910   5.183  0.3198 -0.0299 -0.2057
  358TIP3    H122489   3.641   5.990   5.130 -0.6559  0.4838  0.6715
  358TIP3    H222490   3.618   5.840   5.125  0.0497  0.4058 -0.5964
  359TIP3   OH222491   3.192   1.474   4.032  0.0591  0.5524 -0.1404
  359TIP3    H122492   3.281   1.496   4.060 -0.3932  0.2453  1.6153
  359TIP3    H222493   3.142   1.555   4.046 -0.3249  0.1835  0.6976
  360TIP3   OH222494   6.489   4.648  14.123  0.4496  0.1711  0.7925
  360TIP3    H122495   6.436   4.691  14.190  0.5331  0.2731  0.7947
  360TIP3    H222496   6.543   4.585  14.172 -0.4562 -0.7116  0.6563
  361TIP3   OH222497   0.822   1.657  15.754  0.5705  0.2919 -0.6140
  361TIP3    H122498   0.853   1.643  15.844 -0.0467  3.1863  0.1023
  361TIP3    H222499   0.901   1.659  15.701  1.1798  1.6060  0.3218
  362TIP3   OH222500   4.513   6.047  15.638  0.3511  0.2188 -0.1318
  362TIP3    H122501   4.455   5.978  15.606  0.2597  1.1587 -2.0837
  362TIP3    H222502   4.596   6.002  15.657  0.1845 -0.4967 -1.0660
  363TIP3   OH222503   3.002   2.971   6.264 -0.6986  0.3223  0.3639
  363TIP3    H122504   3.053   3.021   6.201  0.8781 -0.0356  1.3299
  363TIP3    H222505   3.020   2.879   6.241 -1.6348  0.1780  0.1528
  364TIP3   OH222506   6.306   4.035   1.607  0.8083  0.4972  0.3320
  364TIP3    H122507   6.370   4.103   1.586  0.6178 -0.1648 -2.5462
  364TIP3    H222508   6.353   3.952   1.594 -0.2226  0.0238 -0.4818
  365TIP3   OH222509   0.898   1.206   0.977  0.1016 -0.0950  0.3649
  365TIP3    H122510   0.958   1.173   0.910 -0.2278  0.9781 -0.4624
  365TIP3    H222511   0.892   1.135   1.041  0.6217 -1.0192 -0.6080
  366TIP3   OH222512   3.719   6.725   3.207  0.0815  0.8452  0.3870
  366TIP3    H122513   3.699   6.789   3.275 -1.1680  1.7850 -0.8407
  366TIP3    H222514   3.672   6.756   3.130  0.6756 -0.7411 -0.6454
  367TIP3   OH222515   3.410   2.545   0.559 -0.4636  0.2905  0.2347
  367TIP3    H122516   3.443   2.618   0.611  1.0568 -1.9664  2.5453
  367TIP3    H222517   3.328   2.521   0.601 -0.1355 -0.3920  0.4808
  368TIP3   OH222518   2.153   3.620  14.724 -0.7997 -0.7611 -0.2597
  368TIP3    H122519   2.168   3.658  14.637 -0.8073  0.6760  0.3441
  368TIP3    H222520   2.240   3.613  14.763 -0.9284  0.1103  0.2141
  369TIP3   OH222521   5.863   2.450   3.426 -0.1138  0.0412 -0.0022
  369TIP3    H122522   5.807   2.444   3.349 -0.1038  0.4709 -0.0479
  369TIP3    H222523   5.904   2.537   3.419 -0.9889  0.5560  1.0733
  370TIP3   OH222524   2.244   2.276   1.394 -0.3941  0.4229  0.3497
  370TIP3    H122525   2.276   2.302   1.307 -0.9926 -0.2516 -0.0814
  370TIP3    H222526   2.287   2.336   1.454 -0.4026  1.2678 -0.4684
  371TIP3   OH222527   0.465   3.285  14.179  0.1361 -0.4584  0.8302
  371TIP3    H122528   0.375   3.263  14.156  0.0311 -0.5007  1.2766
  371TIP3    H222529   0.502   3.203  14.212  0.7929 -0.8162 -0.7454
  372TIP3   OH222530   3.969   2.202  12.521  0.0618  0.5626  0.1727
  372TIP3    H122531   3.936   2.156  12.444  1.4226  0.0673 -0.1207
  372TIP3    H222532   3.966   2.137  12.591  1.0011  0.3236 -0.0024
  373TIP3   OH222533   1.780   2.208  12.613 -0.0032  0.0993 -0.1175
  373TIP3    H122534   1.776   2.155  12.693  1.3001 -1.8263 -1.2977
  373TIP3    H222535   1.793   2.298  12.644  0.8969 -0.6776  1.8075
  374TIP3   OH222536   3.735   3.443  12.873 -0.0243 -0.6701  0.1418
  374TIP3    H122537   3.788   3.364  12.867 -0.5838 -1.0772  0.4204
  374TIP3    H222538   3.699   3.441  12.962 -1.2770 -0.9094 -0.3525
  375TIP3   OH222539   5.805   5.874  11.783  0.2718  0.2643 -0.1329
  375TIP3    H122540   5.785   5.966  11.764 -0.6843  0.1958  0.4847
  375TIP3    H222541   5.719   5.832  11.787  0.6638 -0.4765  0.4872
  376TIP3   OH222542   4.440   3.180  13.763 -0.8178  0.1633 -0.5005
  376TIP3    H122543   4.345   3.178  13.755 -0.9250  0.0934  0.6682
  376TIP3    H222544   4.456   3.190  13.857  0.3294 -0.6459 -0.5955
  377TIP3   OH222545   3.167   4.094   3.822 -0.3690 -0.1344  0.5780
  377TIP3    H122546   3.244   4.049   3.857  0.1141  0.6799  0.5780
  377TIP3    H222547   3.153   4.167   3.883 -0.6350  0.2055  0.1105
  378TIP3   OH222548   1.444   2.383   5.506 -0.0452  0.2320 -0.2883
  378TIP3    H122549   1.352   2.362   5.492  0.0590 -0.5177  0.1003
  378TIP3    H222550   1.491   2.307   5.472  0.5036  1.2638 -1.8603
  379TIP3   OH222551   6.041   1.386   0.270 -0.0986  0.5196 -0.0042
  379TIP3    H122552   5.947   1.406   0.264  0.0650  0.9777 -1.0075
  379TIP3    H222553   6.047   1.323   0.342 -1.2211  0.2180 -0.1705
  380TIP3   OH222554   0.003   4.530  15.705  0.3249  0.6094  0.5012
  380TIP3    H122555   0.051   4.465  15.756 -1.0407 -1.1647 -0.4229
  380TIP3    H222556  -0.083   4.533  15.746 -0.5104 -0.2144 -1.1542
  381TIP3   OH222557   5.737   5.942  15.745  0.4074  0.0914 -0.2361
  381TIP3    H122558   5.822   5.920  15.707 -0.5066 -2.0744 -1.0796
  381TIP3    H222559   5.753   5.945  15.839  0.8334 -3.1067 -0.1779
  382TIP3   OH222560   1.589   4.421   2.785 -0.2914 -0.2470 -0.0435
  382TIP3    H122561   1.602   4.359   2.714  0.2933  0.2660 -0.3934
  382TIP3    H222562   1.676   4.458   2.800 -0.8348  1.2875 -0.5736
  383TIP3   OH222563   0.819   2.470   5.467 -0.1699 -0.0944 -0.1608
  383TIP3    H122564   0.867   2.495   5.388  0.7663  0.6523  0.6317
  383TIP3    H222565   0.741   2.524   5.465 -0.0409  0.0873 -0.4595
  384TIP3   OH222566   2.219   4.267  13.116 -0.0784  0.0557  0.6388
  384TIP3    H122567   2.226   4.179  13.151  0.3127 -0.0534  0.2956
  384TIP3    H222568   2.306   4.287  13.082 -0.7876 -0.3808 -1.5269
  385TIP3   OH222569   0.606   5.257   0.635  0.1560  0.1355  0.2477
  385TIP3    H122570   0.561   5.179   0.603  0.3388 -0.0134  0.3466
  385TIP3    H222571   0.587   5.325   0.571 -1.9700  0.6433  1.3704
  386TIP3   OH222572   3.133   3.135   1.163 -0.3506 -0.2783  0.1603
  386TIP3    H122573   3.223   3.102   1.165 -0.4124 -0.3845  1.5818
  386TIP3    H222574   3.094   3.092   1.087  0.9789  0.2718 -0.8578
  387TIP3   OH222575   2.950   4.131   5.064 -0.3444 -0.1950 -0.2595
  387TIP3    H122576   2.930   4.095   4.978  0.3465  0.2964 -0.6322
  387TIP3    H222577   2.886   4.201   5.076 -0.3437 -0.1648 -0.4407
  388TIP3   OH222578   2.190   1.252   0.123  0.2814 -0.1863  0.6692
  388TIP3    H122579   2.133   1.292   0.057  0.9623  0.2903  0.3662
  388TIP3    H222580   2.205   1.163   0.092  0.8336  0.1283  0.0315
  389TIP3   OH222581   3.381   3.381   1.194 -0.0581 -0.2111  0.0491
  389TIP3    H122582   3.376   3.285   1.197  0.7185 -0.2297  1.1596
  389TIP3    H222583   3.445   3.399   1.125 -1.9073 -0.4116 -1.7669
  390TIP3   OH222584   3.925   6.733  12.470 -0.8945  0.0544 -0.0990
  390TIP3    H122585   3.920   6.679  12.550  2.7395  2.2455  1.7188
  390TIP3    H222586   4.018   6.747  12.456 -1.6006  2.1577 -3.0963
  391TIP3   OH222587   2.956   6.559   5.008  0.0040 -0.3493  0.3258
  391TIP3    H122588   3.049   6.578   5.021  0.2188 -0.5857 -0.8246
  391TIP3    H222589   2.911   6.619   5.068  0.9069 -0.5883  1.2608
  392TIP3   OH222590   6.285   1.696  16.123 -0.1129 -0.5207 -0.2943
  392TIP3    H122591   6.256   1.676  16.034  1.4984 -0.6644 -0.8073
  392TIP3    H222592   6.317   1.612  16.157 -0.5427 -0.4250  0.3576
  393TIP3   OH222593   4.137   3.360   2.842 -0.0054  0.5197 -0.1301
  393TIP3    H122594   4.146   3.286   2.782 -0.4544  0.1999  0.1878
  393TIP3    H222595   4.226   3.381   2.868  0.1208  0.0135 -0.1432
  394TIP3   OH222596   2.674   2.043  17.112 -0.0770 -0.1708  0.4355
  394TIP3    H122597   2.630   1.974  17.161 -1.9550  1.6540  1.4231
  394TIP3    H222598   2.763   2.047  17.149  0.0118 -1.9519  0.4275
  395TIP3   OH222599   5.522   2.004   6.362 -0.0449 -0.2389 -0.0547
  395TIP3    H122600   5.480   2.073   6.413  1.9151  0.2651  0.9443
  395TIP3    H222601   5.454   1.973   6.302 -1.7698  0.5962  1.4387
  396TIP3   OH222602   3.010   5.966   4.134  0.7613  0.3218 -0.0567
  396TIP3    H122603   3.100   5.937   4.149  0.2414 -0.6218  1.4233
  396TIP3    H222604   2.974   5.978   4.222 -0.6783  0.2912 -0.6258
  397TIP3   OH222605   1.362   4.131   0.986 -0.6249 -0.1176 -0.0244
  397TIP3    H122606   1.371   4.059   0.924  0.9588  0.4400 -0.4832
  397TIP3    H222607   1.400   4.206   0.940  1.4223  0.1007  1.9244
  398TIP3   OH222608   0.276   5.003   0.513 -1.1039  0.2536 -0.2449
  398TIP3    H122609   0.343   5.065   0.482  1.4933 -1.8678  0.9132
  398TIP3    H222610   0.286   4.927   0.455 -2.4231 -0.1505  0.0474
  399TIP3   OH222611   5.808   3.351   2.146 -0.5221 -0.4184  0.3027
  399TIP3    H122612   5.728   3.395   2.121 -1.1480 -1.7830 -0.1590
  399TIP3    H222613   5.801   3.263   2.107  1.1585 -0.5724  0.2853
  400TIP3   OH222614   1.080   1.767  16.368  0.0154  0.9824  0.1100
  400TIP3    H122615   0.985   1.759  16.370 -0.0373  1.2437 -1.0869
  400TIP3    H222616   1.107   1.761  16.460 -0.9337 -1.7648  0.2659
  401TIP3   OH222617   5.460   0.719  16.375  0.0836 -0.2230  0.0324
  401TIP3    H122618   5.389   0.713  16.311  0.7762 -0.0831 -0.7640
  401TIP3    H222619   5.487   0.628  16.389 -1.5812 -0.4501  1.8715
  402TIP3   OH222620   6.458   3.747  15.449 -0.4541 -0.2453  0.1652
  402TIP3    H122621   6.433   3.813  15.514  0.0797  0.2901 -0.1757
  402TIP3    H222622   6.551   3.732  15.465 -0.1091  0.5536 -1.0722
  403TIP3   OH222623   1.683   3.312   3.158 -0.3414 -0.1790 -0.0437
  403TIP3    H122624   1.676   3.219   3.135  0.9208  0.1934 -2.0372
  403TIP3    H222625   1.612   3.326   3.222 -2.2996 -1.8947 -1.7526
  404TIP3   OH222626   5.058   6.070   1.587  0.3152  0.0917 -0.7290
  404TIP3    H122627   5.125   6.078   1.520  0.1169  0.4709 -0.8844
  404TIP3    H222628   4.992   6.136   1.563  0.7263  0.9173  0.3956
  405TIP3   OH222629   5.775   6.097   4.763 -0.1430  0.6184  0.4705
  405TIP3    H122630   5.685   6.097   4.795 -0.3092  1.0719  0.0257
  405TIP3    H222631   5.828   6.128   4.837 -0.0204 -2.1101  1.5714
  406TIP3   OH222632   5.219   3.696   0.028 -0.0068  0.0332  0.1352
  406TIP3    H122633   5.276   3.742  -0.034  0.3312 -1.6906 -0.8529
  406TIP3    H222634   5.163   3.642  -0.026 -0.8415 -0.2489  1.2611
  407TIP3   OH222635   0.458   2.304   2.465 -0.6749  0.5771 -0.0936
  407TIP3    H122636   0.443   2.372   2.532  1.3280  0.0929  0.8974
  407TIP3    H222637   0.377   2.300   2.416 -2.7996 -0.0950  3.2978
  408TIP3   OH222638   3.211   0.578  12.220 -0.0017  0.8490  0.3974
  408TIP3    H122639   3.280   0.614  12.164 -0.1606  0.5864  0.0357
  408TIP3    H222640   3.194   0.491  12.185  0.6235  0.2848  1.4955
  409TIP3   OH222641   5.551   4.735  11.399 -0.0853 -0.4166 -0.1857
  409TIP3    H122642   5.483   4.734  11.467 -0.5763 -1.1449 -0.6816
  409TIP3    H222643   5.503   4.747  11.317  0.4900  0.2408 -0.4326
  410TIP3   OH222644   6.185   2.278   4.900 -0.1321  0.3199  0.4688
  410TIP3    H122645   6.127   2.223   4.847  1.7731  0.3378 -1.6979
  410TIP3    H222646   6.138   2.361   4.909 -1.0785 -0.1532 -0.0079
  411TIP3   OH222647   2.614   0.130   2.859 -0.1582  0.1735 -0.3155
  411TIP3    H122648   2.534   0.162   2.817 -0.5095  1.4884  1.2741
  411TIP3    H222649   2.674   0.112   2.786 -0.6614  2.5932 -1.3937
  412TIP3   OH222650   5.275   4.339   5.856  0.3564 -0.1298 -0.2700
  412TIP3    H122651   5.222   4.335   5.935 -1.0795  1.2173 -1.1354
  412TIP3    H222652   5.258   4.256   5.812 -2.4488  0.9305 -1.3664
  413TIP3   OH222653   2.706   5.337  10.773 -0.5219 -0.2268  0.0599
  413TIP3    H122654   2.705   5.358  10.867  1.9397  1.0031 -0.1602
  413TIP3    H222655   2.668   5.414  10.732 -0.8506 -0.4353 -0.0305
  414TIP3   OH222656   4.177   2.224  12.258  0.0916 -0.2381 -0.1805
  414TIP3    H122657   4.204   2.205  12.348 -0.0678 -1.7306 -0.4251
  414TIP3    H222658   4.241   2.176  12.204 -0.6226 -0.4754 -0.8260
  415TIP3   OH222659   4.138   1.452   2.624 -0.3132 -0.0234  0.2714
  415TIP3    H122660   4.068   1.443   2.688 -2.9360 -1.3515 -2.6705
  415TIP3    H222661   4.106   1.517   2.562  2.1932  1.2657  0.2434
  416TIP3   OH222662   2.403   0.672   1.336  0.3418 -0.5323 -0.7578
  416TIP3    H122663   2.470   0.731   1.371  0.6312 -1.3089  0.0272
  416TIP3    H222664   2.341   0.730   1.292  0.9190  0.3065 -0.4860
  417TIP3   OH222665   1.893   3.371  13.975  0.2080  0.1718 -0.3555
  417TIP3    H122666   1.832   3.313  14.020  0.4390 -1.4682 -2.0910
  417TIP3    H222667   1.953   3.312  13.929  2.7189  1.7271  0.7573
  418TIP3   OH222668   1.100   0.078   3.548  0.1306 -0.0901  0.0300
  418TIP3    H122669   1.046   0.090   3.626  1.5974 -0.5956  1.1416
  418TIP3    H222670   1.037   0.074   3.476 -1.3461 -1.0433  1.3336
  419TIP3   OH222671   6.038   4.027   1.602 -0.1314  0.1060 -0.2465
  419TIP3    H122672   6.134   4.029   1.606 -0.1344 -1.1005  0.3493
  419TIP3    H222673   6.015   4.112   1.564  1.0392  1.4794  1.9894
  420TIP3   OH222674   1.576   3.551   0.226 -0.2304 -0.2861 -0.2610
  420TIP3    H122675   1.647   3.615   0.223  0.3797 -0.8938  0.7446
  420TIP3    H222676   1.502   3.598   0.263  0.1162 -0.0640  0.1520
  421TIP3   OH222677   6.440   6.096   5.007  0.4457  0.0698 -0.1106
  421TIP3    H122678   6.420   6.137   4.922  3.2395 -2.1695 -1.9564
  421TIP3    H222679   6.365   6.041   5.026  0.7107 -1.0648 -2.2339
  422TIP3   OH222680   1.644   3.671  14.691  0.5679 -0.0347  0.1993
  422TIP3    H122681   1.641   3.733  14.619 -1.0790 -0.1726  0.1234
  422TIP3    H222682   1.665   3.724  14.768 -0.5831  0.6036  0.0944
  423TIP3   OH222683   3.530   3.137  15.387 -0.4378 -0.3531 -0.1256
  423TIP3    H122684   3.600   3.122  15.323 -0.2577  1.3300 -0.3624
  423TIP3    H222685   3.469   3.196  15.342 -1.1215 -0.4206  0.6994
  424TIP3   OH222686   1.077   2.327  12.723  0.1395  0.1875  0.7115
  424TIP3    H122687   1.092   2.418  12.697  2.3978 -0.3288  0.0734
  424TIP3    H222688   1.054   2.332  12.816  0.5891  1.3738  0.7676
  425TIP3   OH222689   1.072   1.802   1.749  0.1424 -0.6272  0.3843
  425TIP3    H122690   1.033   1.804   1.662 -1.2863  0.3768  1.0361
  425TIP3    H222691   1.155   1.849   1.739 -0.5170  0.4450 -0.2143
  426TIP3   OH222692   3.037   6.153  14.646 -0.1987 -0.3541  0.2445
  426TIP3    H122693   3.130   6.133  14.636 -0.0755  0.4728 -0.2645
  426TIP3    H222694   2.993   6.094  14.584  0.2629  1.8735 -2.2692
  427TIP3   OH222695   4.060   4.375  14.844 -0.2678 -0.1885  0.6267
  427TIP3    H122696   4.066   4.461  14.886  0.4105  0.6193 -1.0902
  427TIP3    H222697   4.132   4.373  14.781 -1.3863 -1.2852 -0.6675
  428TIP3   OH222698   4.502   1.970   1.819 -0.2302 -0.3676 -0.1883
  428TIP3    H122699   4.433   1.909   1.795 -0.3294  0.1365 -1.2328
  428TIP3    H222700   4.518   1.954   1.911 -0.5099 -1.7120 -0.3709
  429TIP3   OH222701   4.922   3.688   0.420 -0.7384 -0.2908 -0.4385
  429TIP3    H122702   4.972   3.611   0.391  0.0458  0.2555 -0.5553
  429TIP3    H222703   4.942   3.697   0.513  1.4121  1.4102 -1.0187
  430TIP3   OH222704   4.324   4.635   4.829  0.0902 -0.2878  0.0160
  430TIP3    H122705   4.249   4.693   4.837 -0.9318 -1.5421 -0.2963
  430TIP3    H222706   4.381   4.677   4.765 -1.3862 -0.4057 -1.4056
  431TIP3   OH222707   1.629   5.636  11.427 -0.5004 -0.5379  0.3325
  431TIP3    H122708   1.680   5.574  11.375 -0.2444 -0.3423  0.3564
  431TIP3    H222709   1.572   5.580  11.481  0.9409 -0.7929  1.6023
  432TIP3   OH222710   2.682   5.911  15.354 -0.1002  0.5428  0.0346
  432TIP3    H122711   2.740   5.963  15.409  0.7866 -1.2013  0.7756
  432TIP3    H222712   2.722   5.914  15.267 -0.0046  1.0032  0.0929
  433TIP3   OH222713   0.153   0.925   4.238  0.1159 -0.1582 -0.2180
  433TIP3    H122714   0.088   0.982   4.280  1.9440  1.8717 -0.0249
  433TIP3    H222715   0.134   0.838   4.272 -1.7091  0.6113  0.8071
  434TIP3   OH222716   1.411   1.901   5.337 -0.7412 -0.5742 -0.7702
  434TIP3    H122717   1.384   1.954   5.411 -0.9192  0.4540 -1.5677
  434TIP3    H222718   1.334   1.849   5.315 -1.3416  0.6147 -1.5279
  435TIP3   OH222719   2.229   0.196  11.053  0.1934  0.3735 -0.2044
  435TIP3    H122720   2.230   0.215  10.959 -0.0590 -2.5585 -0.8701
  435TIP3    H222721   2.137   0.204  11.078  0.4774  2.7572  0.1949
  436TIP3   OH222722   0.565   3.816   1.600 -0.2029  0.4361 -0.3347
  436TIP3    H122723   0.490   3.871   1.575  0.6302  0.9368 -1.7966
  436TIP3    H222724   0.573   3.827   1.694 -1.2677  1.2799 -0.3322
  437TIP3   OH222725   6.401   0.207  15.446 -0.0966 -0.4248  0.3918
  437TIP3    H122726   6.430   0.116  15.441 -1.5494 -0.9736  1.5614
  437TIP3    H222727   6.457   0.248  15.512  1.7335  0.0235 -1.3758
  438TIP3   OH222728   2.511   6.478  15.250 -0.1984  0.0724 -0.1849
  438TIP3    H122729   2.541   6.388  15.237  0.0472  0.2711 -0.9651
  438TIP3    H222730   2.430   6.469  15.300  1.0470 -0.4716  1.8073
  439TIP3   OH222731   1.940   6.701  11.041 -0.0827 -0.3517 -0.1668
  439TIP3    H122732   1.995   6.719  10.966 -1.2842 -0.3849 -1.0773
  439TIP3    H222733   1.995   6.718  11.117  1.6790 -1.9547 -1.0505
  440TIP3   OH222734   4.187   6.742  12.519  0.2268  0.0163  0.5023
  440TIP3    H122735   4.167   6.678  12.587  0.2291 -0.7188 -0.1853
  440TIP3    H222736   4.195   6.825  12.566  0.7488 -0.5739  1.4695
  441TIP3   OH222737   5.023   4.515  15.060 -0.0951 -0.0967  0.2054
  441TIP3    H122738   4.951   4.528  15.121 -0.4135 -1.2374  0.0852
  441TIP3    H222739   4.991   4.448  14.999 -0.1524  1.6449 -1.7777
  442TIP3   OH222740   0.782   4.510   1.352 -0.7358 -0.4089 -0.0835
  442TIP3    H122741   0.758   4.421   1.326 -0.0061 -1.1193  1.6411
  442TIP3    H222742   0.726   4.529   1.427  1.0422 -0.4780  1.2948
  443TIP3   OH222743   6.488   0.342  15.198 -0.3807  0.8293  0.3305
  443TIP3    H122744   6.410   0.330  15.253 -0.5686  0.8852  0.0807
  443TIP3    H222745   6.555   0.374  15.258 -0.7197  1.3388  0.4376
  444TIP3   OH222746   0.304   4.087  14.118  0.1735 -0.1081 -0.4160
  444TIP3    H122747   0.225   4.046  14.082  0.7906 -0.4790 -1.3803
  444TIP3    H222748   0.312   4.169  14.069  0.9382 -0.5481 -1.0453
  445TIP3   OH222749   6.044   3.465  14.356 -0.5005 -0.0887 -0.1019
  445TIP3    H122750   6.032   3.371  14.366 -0.1209 -0.2361 -0.9747
  445TIP3    H222751   5.994   3.487  14.277  0.8472  0.1320 -0.9022
  446TIP3   OH222752   2.368   4.349   1.062  0.0638  0.1887  0.3826
  446TIP3    H122753   2.366   4.394   1.146  1.3661 -0.5584  0.8352
  446TIP3    H222754   2.460   4.324   1.050 -0.1147  0.2632 -1.2474
  447TIP3   OH222755   0.586   1.824   0.856 -0.3247 -0.6464 -0.1593
  447TIP3    H122756   0.657   1.888   0.857 -1.0021  0.1173 -0.1514
  447TIP3    H222757   0.515   1.866   0.904  0.8469 -3.3425  4.2084
  448TIP3   OH222758   5.942   5.592  15.179  0.1650 -0.6604 -0.3044
  448TIP3    H122759   5.858   5.614  15.139  0.1895 -1.3845 -0.7537
  448TIP3    H222760   5.983   5.531  15.118  1.8728  1.1746 -1.0835
  449TIP3   OH222761   6.240   5.077   0.975 -0.3892  0.3648  0.1436
  449TIP3    H122762   6.221   5.089   0.881  2.3670  0.4212 -0.4436
  449TIP3    H222763   6.264   4.985   0.983 -0.4278  0.4082  0.7857
  450TIP3   OH222764   0.690   4.973  12.489 -0.4423 -0.4065 -0.4958
  450TIP3    H122765   0.639   5.032  12.545  0.9251  0.1687  0.1466
  450TIP3    H222766   0.629   4.949  12.419 -0.9284  2.0071 -0.9358
  451TIP3   OH222767   0.882   6.186   4.773 -0.2317 -0.6649  0.2294
  451TIP3    H122768   0.928   6.262   4.808 -0.2550 -0.7936  0.5408
  451TIP3    H222769   0.928   6.111   4.810 -0.9537 -0.7910  0.8860
  452TIP3   OH222770   0.248   4.642   5.250  0.2588 -0.0637 -0.0470
  452TIP3    H122771   0.223   4.721   5.202 -2.5574 -1.1178 -0.4118
  452TIP3    H222772   0.311   4.599   5.193 -0.5343  0.3646 -1.2679
  453TIP3   OH222773   3.883   3.109   5.287 -0.1865 -0.4659  0.0306
  453TIP3    H122774   3.876   3.168   5.212  1.2378  1.4772  1.3729
  453TIP3    H222775   3.950   3.045   5.262  1.0867  0.8422  0.0605
  454TIP3   OH222776   5.219   1.417  16.853  1.1008  0.3035  0.4940
  454TIP3    H122777   5.176   1.500  16.837 -0.7883 -0.9627 -1.1006
  454TIP3    H222778   5.258   1.427  16.940 -2.4282  1.4699  2.0033
  455TIP3   OH222779   3.395   3.230   3.789  0.1723  0.0743  0.3415
  455TIP3    H122780   3.366   3.159   3.846  0.6886  0.3145  0.9089
  455TIP3    H222781   3.490   3.230   3.797  0.3530 -0.7499 -1.5699
  456TIP3   OH222782   2.531   0.647   3.094  0.2259  0.5256 -0.4767
  456TIP3    H122783   2.581   0.638   3.013  0.2383  0.8410 -0.5023
  456TIP3    H222784   2.561   0.574   3.149 -0.7773 -0.5110 -1.2824
  457TIP3   OH222785   2.748   3.874  15.246  0.2029  0.2761  0.1334
  457TIP3    H122786   2.756   3.900  15.338  0.1098 -1.9578  0.8253
  457TIP3    H222787   2.769   3.780  15.247 -1.1067 -0.0558 -1.9152
  458TIP3   OH222788   4.440   3.975   1.406 -0.3816 -0.2170 -0.0980
  458TIP3    H122789   4.400   4.043   1.460  0.2636 -1.8825  2.5401
  458TIP3    H222790   4.491   3.921   1.467  1.4096 -1.4173 -2.5478
  459TIP3   OH222791   1.273   5.821   1.629  0.3429 -0.1658 -0.2056
  459TIP3    H122792   1.205   5.826   1.562  0.4118 -0.6132 -0.3054
  459TIP3    H222793   1.260   5.736   1.671  1.0792 -0.4109 -0.4707
  460TIP3   OH222794   3.046   1.579   3.222  0.8032 -0.0063  0.8278
  460TIP3    H122795   2.996   1.649   3.263  0.9065  1.0152 -0.7282
  460TIP3    H222796   3.114   1.557   3.285  0.7672  1.2950  1.3251
  461TIP3   OH222797   2.312   2.834  12.464  0.0134 -0.0732 -0.1739
  461TIP3    H122798   2.342   2.845  12.374 -0.3743 -1.1083 -0.4399
  461TIP3    H222799   2.242   2.899  12.474 -0.2057 -0.2124 -0.7510
  462TIP3   OH222800   6.435   5.972   4.129 -0.3685 -0.0289  0.1478
  462TIP3    H122801   6.510   5.920   4.157 -0.4468  0.3234  1.0228
  462TIP3    H222802   6.366   5.951   4.191 -1.5651 -1.7074 -1.7194
  463TIP3   OH222803   2.382   0.871  14.744 -0.7005  0.4578 -0.2772
  463TIP3    H122804   2.369   0.778  14.763 -0.3882  0.9631  2.5533
  463TIP3    H222805   2.293   0.907  14.738 -0.8258 -0.0312 -1.5822
  464TIP3   OH222806   3.210   2.446   0.721 -0.9081  0.3509 -0.0924
  464TIP3    H122807   3.158   2.526   0.729 -0.3832  0.5137  2.0164
  464TIP3    H222808   3.276   2.454   0.790 -0.4848 -1.6357 -0.2540
  465TIP3   OH222809   1.863   1.272  15.079 -0.3553 -0.4251  0.1445
  465TIP3    H122810   1.870   1.359  15.119 -3.4324 -1.6876  3.6607
  465TIP3    H222811   1.810   1.286  15.001 -0.7981  0.8724  0.6685
  466TIP3   OH222812   0.898   1.174  14.742 -0.0313  0.1383 -0.6271
  466TIP3    H122813   0.992   1.191  14.731 -0.0274  0.7952  0.3286
  466TIP3    H222814   0.893   1.103  14.805 -0.1957  0.8382  0.1562
  467TIP3   OH222815   3.881   5.728   0.337 -0.2201 -0.1669 -0.0869
  467TIP3    H122816   3.806   5.706   0.282 -0.9337  1.9842 -0.0101
  467TIP3    H222817   3.956   5.689   0.291 -1.1642 -0.8752 -1.0497
  468TIP3   OH222818   2.635   0.632  16.170 -0.0440 -0.2495 -0.4647
  468TIP3    H122819   2.707   0.606  16.228  0.4471  2.1979  0.0723
  468TIP3    H222820   2.675   0.693  16.107 -1.6898  1.4701  0.0875
  469TIP3   OH222821   6.674   3.245  12.690  0.1889  0.4982  0.6697
  469TIP3    H122822   6.657   3.251  12.596 -0.8318  0.6743  0.8537
  469TIP3    H222823   6.621   3.170  12.719 -0.5680  1.2697  1.3259
  470TIP3   OH222824   5.861   1.970  10.687 -0.2958 -0.0987  0.0160
  470TIP3    H122825   5.946   1.959  10.729 -0.7518  1.0318  1.2797
  470TIP3    H222826   5.861   1.908  10.614  1.5416 -0.2107  0.1060
  471TIP3   OH222827   0.935   0.579  15.486  0.1989 -0.0254 -0.1714
  471TIP3    H122828   1.001   0.511  15.470 -0.2783 -0.6271  0.3588
  471TIP3    H222829   0.982   0.646  15.535 -0.0639 -1.4478  2.1642
  472TIP3   OH222830   3.975   4.997   0.383  0.1443 -0.0167 -0.1098
  472TIP3    H122831   3.980   5.030   0.473  0.4267 -0.0313 -0.1207
  472TIP3    H222832   4.044   5.043   0.336 -0.3216  0.3562 -0.4367
  473TIP3   OH222833   0.762   0.400   6.373  0.2654 -0.3343  0.5285
  473TIP3    H122834   0.719   0.319   6.402  0.7074 -0.7310  0.0843
  473TIP3    H222835   0.703   0.435   6.306 -0.2096  0.0097  1.1263
  474TIP3   OH222836   1.681   3.683   4.997 -0.0757 -0.9398 -0.1123
  474TIP3    H122837   1.709   3.774   4.994 -0.3396 -0.7185  2.7633
  474TIP3    H222838   1.621   3.674   4.923  0.9923  0.8391 -1.2339
  475TIP3   OH222839   1.835   6.518  16.736 -0.2140 -0.2006 -0.1814
  475TIP3    H122840   1.927   6.512  16.761 -0.9052 -0.5276  2.4802
  475TIP3    H222841   1.804   6.428  16.737 -0.7888 -0.0041 -0.1631
  476TIP3   OH222842   3.070   0.231   2.850  0.5950 -0.2462 -0.5766
  476TIP3    H122843   3.119   0.277   2.917  0.5385 -0.9771 -0.0223
  476TIP3    H222844   3.034   0.154   2.895 -1.0383  0.2558 -0.9686
  477TIP3   OH222845   1.939   1.002   1.486  0.0156  0.6133  0.4501
  477TIP3    H122846   1.864   1.035   1.436 -0.4136  0.1059  0.7457
  477TIP3    H222847   1.934   0.907   1.476  0.9981  0.6150 -0.0571
  478TIP3   OH222848   2.977   3.017  16.985 -0.0928 -0.0764 -0.3294
  478TIP3    H122849   2.887   3.026  16.954  0.0934  1.6776 -0.4556
  478TIP3    H222850   3.013   2.945  16.934 -1.6081 -1.2027  0.1731
  479TIP3   OH222851   2.894   6.131  17.127 -0.3072  0.0205  0.0333
  479TIP3    H122852   2.855   6.211  17.162 -0.7540 -0.0383 -0.3313
  479TIP3    H222853   2.980   6.158  17.096 -0.7935  0.5382 -0.8742
  480TIP3   OH222854   5.189   5.317  14.938 -0.6232  0.3322 -0.1485
  480TIP3    H122855   5.222   5.238  14.895  0.0304  1.1446 -1.1630
  480TIP3    H222856   5.097   5.320  14.915 -0.7576 -0.3710  0.2682
  481TIP3   OH222857   3.678   6.679   0.940 -0.1357  0.0972 -0.5283
  481TIP3    H122858   3.674   6.768   0.976  0.2527  0.9382 -2.4911
  481TIP3    H222859   3.594   6.640   0.963 -0.6093  1.2215 -0.2957
  482TIP3   OH222860   5.639   3.116  12.407 -0.4918  0.3983  0.3035
  482TIP3    H122861   5.571   3.183  12.403 -0.0727  0.8928  1.5804
  482TIP3    H222862   5.596   3.040  12.447 -1.1191 -0.3158 -1.6269
  483TIP3   OH222863   6.483   0.197  15.711 -0.4987 -0.0329  0.1481
  483TIP3    H122864   6.518   0.111  15.736 -0.5254  0.3392  1.4886
  483TIP3    H222865   6.494   0.251  15.788 -1.2069  0.9640 -0.4331
  484TIP3   OH222866   5.909   4.107  14.555  0.0293  0.3817 -0.0210
  484TIP3    H122867   5.876   4.038  14.498 -0.9775  0.4280  0.4903
  484TIP3    H222868   5.849   4.107  14.630  0.0060  1.8100 -0.0236
  485TIP3   OH222869   5.956   2.471   0.706 -0.3051  0.0609  0.4591
  485TIP3    H122870   5.929   2.384   0.678  2.4439 -0.3304 -1.2240
  485TIP3    H222871   5.910   2.531   0.647  0.9290 -0.5056 -1.1490
  486TIP3   OH222872   2.626   4.341  10.479  0.2113  0.1405 -0.0824
  486TIP3    H122873   2.671   4.425  10.476  0.0226  0.1977 -1.8139
  486TIP3    H222874   2.572   4.340  10.400 -2.8670  0.0812  1.9286
  487TIP3   OH222875   3.985   1.916   0.246 -0.0458 -0.1687 -0.0401
  487TIP3    H122876   3.987   1.955   0.334  0.2308  1.2488 -0.6633
  487TIP3    H222877   4.016   1.826   0.259 -0.5849 -0.1623  1.4011
  488TIP3   OH222878   3.699   1.520  11.360  0.3161 -0.0852 -0.1987
  488TIP3    H122879   3.681   1.432  11.329  0.7576 -0.4547  0.6045
  488TIP3    H222880   3.791   1.520  11.383 -0.1757 -0.0537  1.8686
  489TIP3   OH222881   0.873   5.798   5.560  0.2153  0.1157 -0.4491
  489TIP3    H122882   0.813   5.738   5.516 -0.9887  1.1349 -0.2123
  489TIP3    H222883   0.938   5.741   5.601 -0.5009 -0.9924 -0.8421
  490TIP3   OH222884   0.318   2.430   0.225  0.3371 -0.1905  0.2537
  490TIP3    H122885   0.356   2.372   0.158 -1.2700 -1.0397  0.0565
  490TIP3    H222886   0.376   2.419   0.300  1.9017  0.4135 -0.8209
  491TIP3   OH222887   4.599   0.156   1.741  0.5734  0.3787 -0.0430
  491TIP3    H122888   4.642   0.226   1.789  0.6979  0.8435 -0.8112
  491TIP3    H222889   4.506   0.165   1.764  0.5249  1.0804 -0.4718
  492TIP3   OH222890   2.010   3.677  12.991 -0.1356  0.1855 -0.0039
  492TIP3    H122891   2.034   3.677  12.899  0.8119 -1.6665  0.2145
  492TIP3    H222892   2.090   3.701  13.037 -0.0421 -0.9297  0.4376
  493TIP3   OH222893   4.140   3.854  17.203 -0.1443 -0.0741 -0.2384
  493TIP3    H122894   4.088   3.928  17.174  0.8755  1.1419  0.9570
  493TIP3    H222895   4.077   3.784  17.217 -1.3939  1.2288  0.7075
  494TIP3   OH222896   0.817   3.909  16.585 -0.1584 -0.1163  0.3641
  494TIP3    H122897   0.789   3.828  16.629  0.6130 -0.8588 -0.4921
  494TIP3    H222898   0.828   3.972  16.656 -0.0209 -0.9824  1.1220
  495TIP3   OH222899   1.079   3.984   1.529 -0.4471 -0.3538  0.1153
  495TIP3    H122900   1.107   4.050   1.592 -0.4657  2.8408 -3.0879
  495TIP3    H222901   1.159   3.959   1.483 -1.0171  0.1063 -1.1358
  496TIP3   OH222902   3.590   5.049  14.882 -0.2811 -0.3273  0.0058
  496TIP3    H122903   3.639   5.041  14.800  1.0584 -1.2739  0.8796
  496TIP3    H222904   3.588   4.961  14.917 -0.9388  0.0623  0.9486
  497TIP3   OH222905   0.956   6.446  14.613  0.3634  0.1402  0.7113
  497TIP3    H122906   1.028   6.477  14.669  0.7887  3.3954 -1.4370
  497TIP3    H222907   0.879   6.451  14.668  1.1112  1.1396  1.7041
  498TIP3   OH222908   3.545   5.302  12.246  0.5942  0.6230 -0.2153
  498TIP3    H122909   3.467   5.349  12.275 -0.3316 -1.0250  0.0856
  498TIP3    H222910   3.520   5.265  12.161  1.2310  0.5305 -0.3606
  499TIP3   OH222911   5.653   6.146  14.795 -0.5213 -0.3528  0.9632
  499TIP3    H122912   5.745   6.155  14.769 -0.8878  1.4520  0.1599
  499TIP3    H222913   5.649   6.186  14.882 -0.7173  0.4182  0.6029
  500TIP3   OH222914   0.915   3.467  11.686 -0.2859  0.1651 -0.5711
  500TIP3    H122915   0.880   3.554  11.669  0.5908  0.1222 -2.7290
  500TIP3    H222916   0.839   3.409  11.680 -0.5743  0.5791 -0.9225
  501TIP3   OH222917   1.808   3.574  15.613 -0.1716 -0.1220 -0.2148
  501TIP3    H122918   1.763   3.494  15.588 -0.1937 -0.3317  0.4933
  501TIP3    H222919   1.896   3.546  15.638  0.2054  0.2273 -1.1158
  502TIP3   OH222920   1.161   2.868   6.713  0.2537  0.4913 -0.4486
  502TIP3    H122921   1.226   2.938   6.724  0.2847  0.7484 -2.2157
  502TIP3    H222922   1.134   2.874   6.622 -2.0465  0.1779  0.1815
  503TIP3   OH222923   1.093   3.088   0.178 -0.9753 -0.4371  0.1549
  503TIP3    H122924   1.042   3.123   0.251 -1.7626  0.2133 -0.6923
  503TIP3    H222925   1.135   3.009   0.213  1.9975  2.0437  2.5587
  504TIP3   OH222926   2.877   1.321   5.709  0.0900  0.5260  0.0917
  504TIP3    H122927   2.906   1.318   5.799  0.3126 -0.6407 -0.0089
  504TIP3    H222928   2.940   1.267   5.661 -1.5682 -1.1617 -0.2900
  505TIP3   OH222929   3.498   4.000   3.585 -0.0835 -0.0147 -0.3369
  505TIP3    H122930   3.468   4.076   3.537 -0.8414 -0.6005 -0.7886
  505TIP3    H222931   3.494   3.928   3.522 -1.4517 -0.8587  0.6998
  506TIP3   OH222932   1.262   2.055   2.201 -0.1115  0.8690 -0.4735
  506TIP3    H122933   1.244   1.977   2.255  2.0502  0.5733 -0.1469
  506TIP3    H222934   1.285   2.020   2.115 -2.2035  1.2893 -1.2223
  507TIP3   OH222935   0.069   5.227  13.873  0.4131  0.0801 -0.1644
  507TIP3    H122936   0.158   5.191  13.881  0.1913  0.0259  2.2254
  507TIP3    H222937   0.075   5.313  13.915 -0.2740  0.7941 -1.5042
  508TIP3   OH222938   5.890   4.591   2.942 -0.6573  0.0041 -0.2358
  508TIP3    H122939   5.894   4.673   2.894  0.9671  1.4578  2.2766
  508TIP3    H222940   5.807   4.594   2.989 -1.3641 -0.5587 -1.4361
  509TIP3   OH222941   1.848   0.972   4.916 -0.4577  0.0793  0.5943
  509TIP3    H122942   1.887   1.001   4.998  2.0713 -0.5670 -0.3118
  509TIP3    H222943   1.803   0.890   4.938  0.1103 -0.0276  1.3737
  510TIP3   OH222944   2.839   4.051   4.404  0.5477 -0.1931  0.0115
  510TIP3    H122945   2.862   4.016   4.318  1.5525  0.5199 -0.0237
  510TIP3    H222946   2.919   4.095   4.434  0.0978 -0.1354  1.1534
  511TIP3   OH222947   5.717   0.556   3.382  0.2032 -0.3117 -0.8047
  511TIP3    H122948   5.752   0.535   3.468 -0.1663  0.2629 -0.5108
  511TIP3    H222949   5.775   0.512   3.320  0.5626 -0.5853 -0.2665
  512TIP3   OH222950   0.836   4.043   2.674  0.0259 -0.0200 -0.1420
  512TIP3    H122951   0.901   4.064   2.742 -0.0707  0.7735 -0.3022
  512TIP3    H222952   0.781   3.976   2.715  0.2921  0.0691  0.3727
  513TIP3   OH222953   0.742   1.584   4.415 -0.3241 -0.0718 -0.2665
  513TIP3    H122954   0.702   1.535   4.487  1.1190  0.4864  0.9359
  513TIP3    H222955   0.807   1.640   4.457  0.0034  0.8246 -1.9308
  514TIP3   OH222956   0.954   3.783   1.679  0.2162 -0.4090  0.0385
  514TIP3    H122957   0.971   3.827   1.762  0.6159  0.2793 -0.3962
  514TIP3    H222958   0.950   3.855   1.615 -1.6039 -0.7996 -0.3065
  515TIP3   OH222959   0.189   5.946  11.536 -0.0842  0.2031  0.2419
  515TIP3    H122960   0.190   6.014  11.604  1.0567  1.2795 -0.8369
  515TIP3    H222961   0.227   5.870  11.579 -1.4846  0.1744  1.4989
  516TIP3   OH222962   4.463   5.701   6.542 -0.1660 -0.5182  0.7531
  516TIP3    H122963   4.375   5.706   6.578 -1.2033 -1.3524 -1.5582
  516TIP3    H222964   4.468   5.772   6.478  0.4668 -1.1496  0.0892
  517TIP3   OH222965   2.194   2.685   0.061  0.4734 -0.0933 -0.3635
  517TIP3    H122966   2.226   2.601   0.093 -1.2637 -0.2989  0.8951
  517TIP3    H222967   2.160   2.666  -0.027 -0.2051 -0.7860  0.0426
  518TIP3   OH222968   3.242   0.441  11.291  0.5965 -0.0904 -0.0878
  518TIP3    H122969   3.221   0.353  11.324 -0.8288  1.0048  2.0116
  518TIP3    H222970   3.217   0.438  11.199 -1.7818 -1.1506  0.5475
  519TIP3   OH222971   1.120   0.924   0.906 -0.0547  0.6724  0.3116
  519TIP3    H122972   1.195   0.867   0.919 -0.1073  0.4934 -0.1510
  519TIP3    H222973   1.053   0.868   0.867 -0.1387  1.0178 -0.0564
  520TIP3   OH222974   3.698   1.303   0.818  0.3237 -0.0003 -0.2205
  520TIP3    H122975   3.751   1.383   0.816  0.1556  0.1240  0.2397
  520TIP3    H222976   3.613   1.332   0.852 -0.0331 -0.2020 -0.9347
  521TIP3   OH222977   5.269   5.602   0.148 -1.0328  0.5383  0.2434
  521TIP3    H122978   5.243   5.514   0.119 -1.7833  0.9981 -0.5065
  521TIP3    H222979   5.364   5.605   0.133 -0.9610 -0.2470  0.5424
  522TIP3   OH222980   1.337   4.707   5.023  0.1012  0.4517 -1.3437
  522TIP3    H122981   1.406   4.700   5.089  0.6476 -1.1046 -2.0551
  522TIP3    H222982   1.257   4.716   5.074  0.4637 -1.1856 -0.4586
  523TIP3   OH222983   5.213   1.256  15.030 -0.5477  0.5669  0.1674
  523TIP3    H122984   5.242   1.232  15.118 -2.0718 -0.1033  0.5016
  523TIP3    H222985   5.253   1.191  14.973 -0.8598  0.0277  0.5538
  524TIP3   OH222986   1.492   6.362   5.874 -0.0821 -0.4180  0.3791
  524TIP3    H122987   1.544   6.351   5.953 -0.2861 -1.2388  0.4059
  524TIP3    H222988   1.556   6.384   5.806  0.0110  1.0483  0.9108
  525TIP3   OH222989   2.063   0.738   1.760 -0.2945  0.0155  0.5244
  525TIP3    H122990   1.995   0.682   1.724 -0.2270 -0.4637  1.1324
  525TIP3    H222991   2.028   0.768   1.844 -0.2603  0.7548  0.2812
  526TIP3   OH222992   4.192   5.661  16.819 -0.3743 -0.0278  0.2524
  526TIP3    H122993   4.284   5.686  16.832  0.4344 -2.8484  0.3318
  526TIP3    H222994   4.158   5.647  16.907  0.1185 -2.2462  0.1193
  527TIP3   OH222995   0.052   0.285  13.478 -0.2877 -0.4986  0.1529
  527TIP3    H122996   0.019   0.306  13.390 -0.9241  1.3593  0.8281
  527TIP3    H222997  -0.004   0.213  13.507 -1.7353  0.5600  0.0426
  528TIP3   OH222998   5.975   5.736  15.439 -0.5213 -0.5335  0.1047
  528TIP3    H122999   5.915   5.678  15.486 -0.7447 -0.0051  0.4723
  528TIP3    H223000   5.960   5.715  15.347 -2.3689  0.6486  0.1030
  529TIP3   OH223001   1.736   4.210   3.557  0.1739  0.2166  0.0492
  529TIP3    H123002   1.748   4.119   3.586  2.7106  1.3945  2.9672
  529TIP3    H223003   1.642   4.217   3.541  0.0197 -3.0824 -0.8204
  530TIP3   OH223004   2.713   4.871   2.902  0.1653 -0.1725 -0.1243
  530TIP3    H123005   2.775   4.819   2.850 -0.8087 -0.8426 -0.6361
  530TIP3    H223006   2.642   4.810   2.922 -0.2256  0.5266  0.6425
  531TIP3   OH223007   5.151   5.290  13.828  0.4120 -0.0885  0.5093
  531TIP3    H123008   5.121   5.239  13.752  1.6634 -1.6700  1.0408
  531TIP3    H223009   5.147   5.381  13.799  0.4234 -0.6436 -1.3014
  532TIP3   OH223010   2.282   3.100  12.825 -0.1314  0.1165  0.0128
  532TIP3    H123011   2.341   3.026  12.812 -0.8934 -0.1299 -2.2979
  532TIP3    H223012   2.216   3.068  12.886  0.1266 -0.7780 -0.1692
  533TIP3   OH223013   2.869   2.318  16.741  0.2168  0.0522 -0.3108
  533TIP3    H123014   2.948   2.316  16.795  0.0388  0.4183 -0.0371
  533TIP3    H223015   2.820   2.241  16.768  0.9920 -0.7943 -1.2720
  534TIP3   OH223016   2.289   0.781   2.983  0.6525  0.3530 -0.2617
  534TIP3    H123017   2.360   0.763   3.045  0.2648 -1.2489 -0.2515
  534TIP3    H223018   2.243   0.856   3.020  0.4802 -0.5210  1.3654
  535TIP3   OH223019   2.296   6.430  16.315  0.0357  0.1571 -0.1960
  535TIP3    H123020   2.267   6.497  16.254  1.2037  0.0334 -0.9030
  535TIP3    H223021   2.322   6.356  16.260 -0.7101 -0.6764  0.5426
  536TIP3   OH223022   0.083   3.418  16.571  0.1596 -0.2946 -0.3661
  536TIP3    H123023   0.091   3.352  16.501 -0.8112 -0.8772  0.0527
  536TIP3    H223024   0.049   3.369  16.646 -0.5377  0.6831 -0.0338
  537TIP3   OH223025   2.654   2.187   2.037 -0.5812  0.1046  0.2929
  537TIP3    H123026   2.622   2.241   2.109  0.4909 -0.9241  1.5608
  537TIP3    H223027   2.658   2.247   1.962 -0.5024  1.4961  1.3928
  538TIP3   OH223028   1.966   5.831   5.466  0.2403  0.1940  0.7035
  538TIP3    H123029   1.876   5.865   5.464 -0.1762 -0.7123  2.6602
  538TIP3    H223030   1.979   5.792   5.380 -1.0091  0.9411  0.1706
  539TIP3   OH223031   1.411   5.045  13.614  0.5631 -0.0016  0.2698
  539TIP3    H123032   1.409   5.005  13.527  0.8383 -0.3533  0.4224
  539TIP3    H223033   1.401   4.971  13.674 -1.7548  0.4614  0.4940
  540TIP3   OH223034   4.350   1.545  13.182 -0.0415  0.3536 -0.7800
  540TIP3    H123035   4.305   1.628  13.169 -0.8208  0.3414  1.5569
  540TIP3    H223036   4.427   1.568  13.234 -0.2493 -0.3737 -0.1433
  541TIP3   OH223037   0.967   0.464  14.530 -0.2119  0.1425  0.1777
  541TIP3    H123038   0.881   0.490  14.563 -0.5145  1.5496 -1.6606
  541TIP3    H223039   1.027   0.530  14.564 -0.1543  0.2276 -0.0892
  542TIP3   OH223040   3.871   0.320  10.911 -0.5773  0.0192  0.1298
  542TIP3    H123041   3.916   0.241  10.880 -0.1367  0.3945 -0.1756
  542TIP3    H223042   3.831   0.357  10.833  0.3902  0.8716  0.0365
  543TIP3   OH223043   6.381   3.947  16.714 -0.7766 -0.3021 -0.1480
  543TIP3    H123044   6.369   4.012  16.645 -0.2938 -0.6403 -0.5534
  543TIP3    H223045   6.365   3.863  16.671 -1.4415 -0.4515  0.3790
  544TIP3   OH223046   3.011   3.838  11.226  0.4554 -0.4972 -0.0077
  544TIP3    H123047   2.921   3.843  11.195 -0.1041  2.1250  1.8887
  544TIP3    H223048   3.064   3.834  11.146 -1.1726  1.1823 -1.2047
  545TIP3   OH223049   5.198   1.650  15.391  0.2658  0.3351 -0.6974
  545TIP3    H123050   5.289   1.672  15.368 -0.0220  0.2893 -1.9220
  545TIP3    H223051   5.191   1.556  15.371  0.0943  0.2141 -0.0853
  546TIP3   OH223052   2.455   1.147   3.113  0.9629 -0.0386 -0.4365
  546TIP3    H123053   2.442   1.237   3.145 -1.6152 -0.9810  1.3106
  546TIP3    H223054   2.511   1.106   3.179  1.9080  0.1680 -1.0920
  547TIP3   OH223055   1.393   1.301   1.722 -0.5269  0.3293  0.5054
  547TIP3    H123056   1.312   1.289   1.671 -0.6696 -0.4699  0.9062
  547TIP3    H223057   1.364   1.303   1.813 -0.1467  0.5830  0.6235
  548TIP3   OH223058   1.101   0.206  16.463 -0.4994 -0.9106 -0.6711
  548TIP3    H123059   1.090   0.118  16.499 -0.0087 -0.6851  0.0555
  548TIP3    H223060   1.054   0.263  16.524 -1.2058 -0.7160 -1.3908
  549TIP3   OH223061   1.091   3.687  16.008  0.1359 -0.2991 -0.2523
  549TIP3    H123062   1.174   3.730  15.986 -0.4367  0.6590 -0.5890
  549TIP3    H223063   1.028   3.724  15.945 -0.1367 -2.5115 -1.3189
  550TIP3   OH223064   0.407   5.766   1.982 -0.2960 -0.3421 -0.1924
  550TIP3    H123065   0.478   5.775   2.046  0.1851 -0.7510 -0.6638
  550TIP3    H223066   0.419   5.678   1.946 -0.4383 -0.0330 -0.9983
  551TIP3   OH223067   6.614   5.403   1.610  0.2108  0.3416 -0.2530
  551TIP3    H123068   6.660   5.362   1.683 -1.6864 -0.2679  0.6264
  551TIP3    H223069   6.644   5.354   1.533  0.9206 -0.1437  0.3212
  552TIP3   OH223070   3.327   5.679  16.744 -0.1230  0.5119  0.3225
  552TIP3    H123071   3.241   5.677  16.786  0.6085 -2.1524  1.7766
  552TIP3    H223072   3.389   5.659  16.814  1.5987  1.2178 -0.9525
  553TIP3   OH223073   3.298   4.921  11.931 -0.9487  0.8290 -0.3842
  553TIP3    H123074   3.212   4.962  11.916 -0.9159  1.8795  2.1049
  553TIP3    H223075   3.286   4.867  12.009  1.3911  3.3564  1.8110
  554TIP3   OH223076   0.847   0.012  17.231  0.3930  0.0570  0.0887
  554TIP3    H123077   0.891   0.084  17.276 -0.1393 -0.2687  1.1374
  554TIP3    H223078   0.797   0.055  17.162  0.0680  0.6969  0.7150
  555TIP3   OH223079   0.656   6.455  13.513  0.9024 -0.4622 -0.2622
  555TIP3    H123080   0.712   6.530  13.533  1.6714 -1.3046  0.7653
  555TIP3    H223081   0.643   6.459  13.418  2.2933  0.0173 -0.4410
  556TIP3   OH223082   0.941   2.307  14.545 -0.1114 -0.4811  0.4637
  556TIP3    H123083   0.974   2.282  14.631  1.5666  0.4407  0.1015
  556TIP3    H223084   0.867   2.365  14.563  2.4019  2.5583  1.3247
  557TIP3   OH223085   5.609   4.251  12.193  0.1103  0.2666  0.4005
  557TIP3    H123086   5.557   4.196  12.134 -1.5515 -0.2064  2.2454
  557TIP3    H223087   5.679   4.194  12.224  0.1799  0.1136 -0.0281
  558TIP3   OH223088   5.318   0.762   5.747  0.1161  0.6126 -0.0985
  558TIP3    H123089   5.382   0.772   5.817  0.4011 -0.9047 -0.1165
  558TIP3    H223090   5.270   0.845   5.745  2.0559  1.7595 -0.0567
  559TIP3   OH223091   1.635   5.887  13.943 -0.3060  0.2083 -0.2312
  559TIP3    H123092   1.700   5.948  13.908 -0.1259 -0.8985 -1.8816
  559TIP3    H223093   1.649   5.888  14.038  0.6576  1.6232 -0.3762
  560TIP3   OH223094   5.316   1.121  16.230  0.0612  0.9154 -0.6194
  560TIP3    H123095   5.235   1.120  16.282 -0.2774 -2.4067 -1.1368
  560TIP3    H223096   5.356   1.206  16.251 -2.8237  2.0136  0.7489
  561TIP3   OH223097   4.794   4.573   1.910  0.2368  0.4886 -0.0145
  561TIP3    H123098   4.884   4.546   1.930  1.2518  2.4493 -1.7272
  561TIP3    H223099   4.752   4.581   1.995  1.4529 -1.2004  0.7772
  562TIP3   OH223100   6.061   0.748   1.246 -0.0448 -0.4964 -0.1435
  562TIP3    H123101   6.090   0.659   1.228 -1.5489 -0.7141 -1.6113
  562TIP3    H223102   6.103   0.801   1.178 -0.7694 -0.3896 -0.5122
  563TIP3   OH223103   4.905   1.231   2.507  0.1405 -0.5852 -0.0572
  563TIP3    H123104   4.966   1.270   2.445  0.3964 -2.2828 -0.8918
  563TIP3    H223105   4.820   1.271   2.485  0.4091 -0.4526 -0.8756
  564TIP3   OH223106   6.678   5.649   5.147  0.1602  0.0924  0.1214
  564TIP3    H123107   6.736   5.725   5.139  1.5460 -0.9772 -0.3437
  564TIP3    H223108   6.592   5.686   5.163  1.0362  1.7287  1.2099
  565TIP3   OH223109   2.809   3.032  11.160 -0.2181  0.1320  0.1279
  565TIP3    H123110   2.804   3.069  11.248  0.7843  0.8697 -0.1275
  565TIP3    H223111   2.869   3.089  11.113 -1.7228  0.4738 -1.4019
  566TIP3   OH223112   5.979   1.085  15.642  0.5657  0.3206 -0.4666
  566TIP3    H123113   5.947   1.012  15.695  1.8136  0.8841  1.1136
  566TIP3    H223114   5.974   1.161  15.700  1.6343  1.0220 -1.2743
  567TIP3   OH223115   4.619   0.022   2.788 -0.0636  0.4959  0.4191
  567TIP3    H123116   4.532   0.023   2.826 -0.5806  0.5974 -0.7344
  567TIP3    H223117   4.668  -0.042   2.839 -0.6774  0.7777  1.3635
  568TIP3   OH223118   6.429   4.640   1.796 -0.3442  0.2184 -0.6047
  568TIP3    H123119   6.522   4.624   1.785 -0.4495 -0.8926 -0.0078
  568TIP3    H223120   6.400   4.676   1.712 -0.2165 -3.4719 -2.3375
  569TIP3   OH223121   2.623   4.801  17.144  0.7242  0.2443 -0.0397
  569TIP3    H123122   2.606   4.835  17.232  2.3171  0.3100  0.2617
  569TIP3    H223123   2.650   4.878  17.093  0.1334  0.1506 -0.4942
  570TIP3   OH223124   2.307   2.727  16.159 -0.4077 -0.4881 -0.0002
  570TIP3    H123125   2.275   2.793  16.097  2.5008  0.9314 -0.1233
  570TIP3    H223126   2.248   2.653  16.148 -2.1734  1.1143 -1.8034
  571TIP3   OH223127   2.464   4.608  13.311 -0.0130  0.3652  0.3170
  571TIP3    H123128   2.386   4.653  13.345  0.7968 -0.6005  3.7296
  571TIP3    H223129   2.517   4.592  13.389  4.0763  1.8442 -2.0238
  572TIP3   OH223130   3.835   4.016   4.226  0.1184  0.1219  0.3496
  572TIP3    H123131   3.879   4.071   4.161  0.7409 -0.1896  0.4997
  572TIP3    H223132   3.787   4.078   4.282 -0.8074  0.3573 -0.6828
  573TIP3   OH223133   5.477   1.811   3.387  0.2540  0.4291  0.2414
  573TIP3    H123134   5.543   1.760   3.340 -0.8666 -0.3903 -0.4741
  573TIP3    H223135   5.403   1.816   3.326 -0.8391  0.2228  1.5367
  574TIP3   OH223136   0.317   1.408  16.732  0.3149 -0.0748  0.3356
  574TIP3    H123137   0.330   1.450  16.817  0.7182  0.0031  0.2359
  574TIP3    H223138   0.240   1.352  16.744  2.4249 -2.7740  1.7688
  575TIP3   OH223139   1.877   2.727  16.412  0.4663  0.7889 -0.1850
  575TIP3    H123140   1.811   2.670  16.451  1.4916 -0.0102  0.4037
  575TIP3    H223141   1.941   2.667  16.374  2.0586  1.5221  1.2874
  576TIP3   OH223142   3.042   3.573  10.930  0.0169 -0.2542  0.5409
  576TIP3    H123143   2.968   3.591  10.872  1.0391 -1.1073 -1.0733
  576TIP3    H223144   3.081   3.659  10.947  0.4939 -0.1192 -1.1309
  577TIP3   OH223145   4.103   1.194   1.212 -0.2731  0.2562  0.4811
  577TIP3    H123146   4.122   1.142   1.290 -0.9746  1.4632  1.4836
  577TIP3    H223147   4.167   1.165   1.147  1.8106  0.8165  2.2204
  578TIP3   OH223148   6.553   2.024  14.318  0.3463 -0.2361  0.5006
  578TIP3    H123149   6.609   1.954  14.353 -0.7664 -1.1498  0.4659
  578TIP3    H223150   6.610   2.101  14.316  2.6649 -1.8977 -2.6571
  579TIP3   OH223151   2.945   5.846  16.030 -0.3918  0.1785 -0.1392
  579TIP3    H123152   2.912   5.789  15.960 -0.1889  0.6125 -0.5927
  579TIP3    H223153   3.038   5.827  16.035 -0.3370  0.4176 -0.2412
  580TIP3   OH223154   2.946   1.096   3.648 -0.0126 -0.2105  0.0137
  580TIP3    H123155   3.011   1.045   3.698 -2.0329 -0.4517  2.4995
  580TIP3    H223156   2.911   1.034   3.584 -1.0607 -1.4742  1.7378
  581TIP3   OH223157   2.068   0.728  11.634 -0.0268  0.1757 -0.4170
  581TIP3    H123158   2.066   0.742  11.729 -2.4190 -0.5534 -0.3302
  581TIP3    H223159   2.036   0.811  11.598 -0.1469  0.0746 -0.5411
  582TIP3   OH223160   4.090   1.952   1.681 -0.2406  0.6005  0.1896
  582TIP3    H123161   4.001   1.985   1.665 -0.1120  1.1321  0.5762
  582TIP3    H223162   4.140   2.028   1.709 -0.1242 -0.0302  1.7655
  583TIP3   OH223163   5.995   5.344  15.080  0.0089 -0.1845 -0.7307
  583TIP3    H123164   5.960   5.264  15.117  1.0043  0.1274  0.9548
  583TIP3    H223165   6.048   5.316  15.006 -0.1638 -1.0305 -0.5288
  584TIP3   OH223166   0.088   0.679   4.317  0.6822 -0.7967  0.2805
  584TIP3    H123167   0.010   0.649   4.364  1.0866 -1.5594  0.4763
  584TIP3    H223168   0.126   0.599   4.280  1.6164 -0.4944  0.5567
  585TIP3   OH223169   6.412   1.470  14.591 -0.5646 -0.5123 -0.2370
  585TIP3    H123170   6.465   1.398  14.556 -0.3896  0.5747 -2.3161
  585TIP3    H223171   6.471   1.517  14.649 -0.5078 -1.7128  0.6879
  586TIP3   OH223172   4.822   3.924  16.196 -0.1430  0.1553  0.0082
  586TIP3    H123173   4.859   3.936  16.283 -1.3436  1.8355  0.3068
  586TIP3    H223174   4.874   3.979  16.139 -1.5527  1.8098  0.2760
  587TIP3   OH223175   4.726   5.213   4.505 -0.0283 -0.0268  0.8422
  587TIP3    H123176   4.821   5.211   4.501 -0.0747 -0.0027 -0.5103
  587TIP3    H223177   4.699   5.123   4.488 -0.2961  0.3432 -0.7542
  588TIP3   OH223178   2.347   6.217   5.131 -0.3501 -0.6288 -0.2476
  588TIP3    H123179   2.428   6.202   5.180  1.5776  0.2844 -3.0791
  588TIP3    H223180   2.334   6.311   5.136 -1.5023 -0.8245  0.5649
  589TIP3   OH223181   5.094   1.851   4.185  0.1607  0.1456  0.0449
  589TIP3    H123182   5.102   1.775   4.128 -1.5768 -0.9294  1.2041
  589TIP3    H223183   5.175   1.901   4.170  1.2983 -1.8885 -0.7545
  590TIP3   OH223184   3.906   5.592  11.220  0.1842  0.0453  0.0692
  590TIP3    H123185   3.854   5.668  11.248  1.5248  1.4170 -1.1192
  590TIP3    H223186   3.996   5.615  11.244  0.6194 -1.1017 -0.4561
  591TIP3   OH223187   4.824   0.087  15.374  0.8268 -0.4447  0.6510
  591TIP3    H123188   4.858   0.176  15.364 -0.2822 -0.0228  0.6522
  591TIP3    H223189   4.899   0.037  15.408  1.4130  0.5084  0.7846
  592TIP3   OH223190   5.822   3.322  14.530  0.6777 -0.2960 -0.3980
  592TIP3    H123191   5.849   3.230  14.526  3.2899  0.4540 -0.4457
  592TIP3    H223192   5.791   3.334  14.620 -2.7416 -1.9882 -1.2331
  593TIP3   OH223193   3.967   3.289  16.135 -0.3178 -0.4121 -0.2750
  593TIP3    H123194   3.887   3.342  16.134 -0.1446 -0.0989  1.1934
  593TIP3    H223195   3.939   3.203  16.166  0.0329 -0.0592  1.0769
  594TIP3   OH223196   2.093   3.688   3.651  0.5858  0.0075  0.2254
  594TIP3    H123197   2.080   3.698   3.745 -1.5140 -0.2409 -0.0050
  594TIP3    H223198   2.132   3.771   3.623 -0.9690  1.0314  0.9765
  595TIP3   OH223199   3.837   0.594   1.503 -0.1767 -0.4305  0.2346
  595TIP3    H123200   3.792   0.588   1.419  1.4877  0.0276 -0.7313
  595TIP3    H223201   3.864   0.686   1.510  2.4623 -1.1073 -0.2723
  596TIP3   OH223202   3.132   3.320  11.777 -0.3857  0.5751  0.5726
  596TIP3    H123203   3.137   3.399  11.723 -0.2502  0.3376  0.2429
  596TIP3    H223204   3.223   3.293  11.788 -0.4631  0.2238  0.3393
  597TIP3   OH223205   4.997   0.228  16.930  0.1631  0.1135  0.5431
  597TIP3    H123206   4.976   0.181  16.850 -0.2716  1.3442 -0.0876
  597TIP3    H223207   5.021   0.160  16.993  1.7562 -0.7910 -0.9931
  598TIP3   OH223208   4.840   2.436   4.132 -0.3358 -0.0774 -0.3446
  598TIP3    H123209   4.759   2.460   4.177 -1.3492  1.2576 -2.8157
  598TIP3    H223210   4.826   2.464   4.041  2.3622 -1.0846 -1.0965
  599TIP3   OH223211   4.340   5.160   5.555 -0.4189 -0.6828  0.0122
  599TIP3    H123212   4.412   5.176   5.494  0.1148 -0.1146  0.7790
  599TIP3    H223213   4.279   5.105   5.506  1.0599 -2.1328 -0.2866
  600TIP3   OH223214   3.041   3.427  13.527 -0.5712 -0.1500 -0.7172
  600TIP3    H123215   3.042   3.331  13.529  0.5513 -0.1530 -0.8084
  600TIP3    H223216   3.134   3.452  13.534 -0.8424  0.9234 -0.8371
  601TIP3   OH223217   0.254   5.242  14.535  0.2098 -0.7973 -0.2181
  601TIP3    H123218   0.171   5.291  14.537  0.0970 -0.9306 -1.0475
  601TIP3    H223219   0.317   5.298  14.578  0.1064  0.1425 -1.2660
  602TIP3   OH223220   3.963   5.938   1.072 -0.0616 -0.3938  0.4828
  602TIP3    H123221   3.884   5.887   1.055 -0.4484  0.3760 -0.0481
  602TIP3    H223222   3.957   5.962   1.165 -0.9532  0.5109  0.2008
  603TIP3   OH223223   0.617   5.383   6.505  0.2393 -0.5305  0.2260
  603TIP3    H123224   0.605   5.289   6.513  1.9750 -1.1838 -3.5127
  603TIP3    H223225   0.704   5.400   6.542  0.3226 -0.5577  0.0447
  604TIP3   OH223226   0.267   1.829  11.547 -0.0396 -0.1380  0.1909
  604TIP3    H123227   0.260   1.739  11.578  0.8901 -0.6126 -0.9753
  604TIP3    H223228   0.257   1.823  11.452 -1.4720  1.1591  0.2409
  605TIP3   OH223229   0.084   4.788  11.231 -0.0500  0.1074 -0.1182
  605TIP3    H123230   0.052   4.785  11.141 -0.7006  1.2184  0.0730
  605TIP3    H223231   0.081   4.697  11.260 -1.7068 -0.0023 -0.5795
  606TIP3   OH223232   1.300   5.382  15.475  0.1814  0.2767 -0.1173
  606TIP3    H123233   1.358   5.367  15.400 -1.3508 -0.2524 -1.2216
  606TIP3    H223234   1.249   5.301  15.483  0.6914  0.1234  1.8457
  607TIP3   OH223235   4.032   4.409   3.281 -0.3670  0.1751  0.2052
  607TIP3    H123236   4.010   4.414   3.374  0.0980  1.0018  0.2747
  607TIP3    H223237   3.990   4.328   3.251 -1.4600  0.4662  0.8860
  608TIP3   OH223238   5.049   0.730  12.921 -0.1864 -0.4631  0.7755
  608TIP3    H123239   5.108   0.780  12.864 -0.4226  0.2808  1.1846
  608TIP3    H223240   4.964   0.732  12.876  0.1018 -1.5659  0.1688
  609TIP3   OH223241   0.136   4.988   3.211  0.3986  0.1622  0.1348
  609TIP3    H123242   0.079   4.911   3.202  1.2673 -0.4383 -0.3201
  609TIP3    H223243   0.098   5.037   3.284 -1.2078  0.2225 -0.7155
  610TIP3   OH223244   1.858   5.453  14.465 -0.6045  0.2011 -0.0137
  610TIP3    H123245   1.899   5.472  14.550  0.2529 -1.7023  0.0131
  610TIP3    H223246   1.904   5.377  14.432 -0.9970  0.8568 -2.1791
  611TIP3   OH223247   2.013   1.747   6.370 -0.6178 -0.0800  0.3454
  611TIP3    H123248   2.014   1.801   6.291 -1.5724 -0.7697 -0.1602
  611TIP3    H223249   2.104   1.725   6.386 -0.2491  1.4402  0.3960
  612TIP3   OH223250   6.343   3.467  12.859  0.1330 -0.4636 -0.2030
  612TIP3    H123251   6.378   3.544  12.903 -0.3258 -0.3194 -0.0785
  612TIP3    H223252   6.276   3.501  12.800  0.2863 -0.7199 -0.5248
  613TIP3   OH223253   6.585   5.746  13.966  0.2359 -0.2090  0.9704
  613TIP3    H123254   6.622   5.689  13.898 -2.1978 -0.0366 -0.5642
  613TIP3    H223255   6.515   5.693  14.005 -1.2028  1.2172  0.3926
  614TIP3   OH223256   2.242   1.021  11.638  0.5401  0.2066 -0.1179
  614TIP3    H123257   2.214   1.102  11.681  0.7046  0.0379  0.3042
  614TIP3    H223258   2.168   0.997  11.582  0.3670  0.4793 -0.0051
  615TIP3   OH223259   2.899   3.176  12.086  0.3665 -0.1888  0.0307
  615TIP3    H123260   2.864   3.249  12.137  0.3924 -1.0646  1.3468
  615TIP3    H223261   2.830   3.156  12.022  0.5813  1.3140 -0.6897
  616TIP3   OH223262   5.556   1.176   1.160  0.1101  0.4898 -0.4563
  616TIP3    H123263   5.474   1.133   1.138  0.2645  0.7337 -1.5591
  616TIP3    H223264   5.537   1.270   1.154  0.3581  0.5512 -0.3142
  617TIP3   OH223265   2.843   1.466   6.102 -0.5082  0.2339  0.3881
  617TIP3    H123266   2.767   1.492   6.154 -0.3483  1.5440 -0.0170
  617TIP3    H223267   2.823   1.377   6.074 -1.4475  0.2049  1.1137
  618TIP3   OH223268   4.299   6.278   5.421 -0.0369  0.5411  0.2055
  618TIP3    H123269   4.270   6.214   5.485 -0.2789  2.1506  1.7367
  618TIP3    H223270   4.340   6.347   5.472 -0.5356  2.0240 -1.3382
  619TIP3   OH223271   0.443   1.219  15.986 -0.5173 -0.0532 -0.2904
  619TIP3    H123272   0.421   1.219  16.079 -0.8915  1.5179 -0.3688
  619TIP3    H223273   0.389   1.288  15.947 -1.6769 -1.8823 -2.0157
  620TIP3   OH223274   1.159   3.768   0.376 -0.6721  0.2833  0.0311
  620TIP3    H123275   1.119   3.707   0.438 -1.0172  1.2650  0.7930
  620TIP3    H223276   1.124   3.854   0.401  0.0170  0.8324 -0.8504
  621TIP3   OH223277   2.202   2.203  12.125  0.1186 -0.5171  0.3734
  621TIP3    H123278   2.147   2.274  12.156  0.8022 -0.4690  1.5050
  621TIP3    H223279   2.143   2.128  12.115 -0.4840  0.0385 -0.2090
  622TIP3   OH223280   2.139   2.529  16.084  0.2754  0.2408 -0.2068
  622TIP3    H123281   2.058   2.544  16.036  0.2618 -1.6493 -0.8372
  622TIP3    H223282   2.112   2.479  16.162  0.7298  0.2386 -0.0454
  623TIP3   OH223283   3.058   3.020  14.805  0.2589  0.1648  0.4345
  623TIP3    H123284   3.039   3.017  14.711 -2.0027  0.3831  0.8516
  623TIP3    H223285   3.080   2.929  14.828  0.8647  0.1194 -0.2986
  624TIP3   OH223286   0.516   1.248  12.838  0.1325 -0.6132  0.1874
  624TIP3    H123287   0.561   1.230  12.920  0.1043  1.3812  0.6583
  624TIP3    H223288   0.525   1.342  12.825 -1.2686 -0.6454 -1.2744
  625TIP3   OH223289   1.704   6.428   4.426  0.1109 -0.1175 -0.4285
  625TIP3    H123290   1.735   6.486   4.356  0.0755  2.5875  1.7336
  625TIP3    H223291   1.778   6.421   4.486 -0.0015 -2.0969 -0.4736
  626TIP3   OH223292   5.873   3.533  12.867 -0.2521  0.0195  0.1719
  626TIP3    H123293   5.793   3.498  12.907 -1.3673  1.0304 -1.1349
  626TIP3    H223294   5.903   3.601  12.927 -1.1916  0.6439 -0.0673
  627TIP3   OH223295   2.882   3.611  16.758  0.2758 -0.0959  0.1566
  627TIP3    H123296   2.842   3.525  16.747  2.8144 -1.2812  0.0573
  627TIP3    H223297   2.887   3.647  16.669 -2.0361  0.7651  0.3401
  628TIP3   OH223298   5.978   4.849   3.204 -0.0457 -0.4110 -0.0541
  628TIP3    H123299   5.900   4.797   3.185 -0.0161 -0.1174 -0.9982
  628TIP3    H223300   5.946   4.925   3.251 -0.0556 -1.4244  1.6019
  629TIP3   OH223301   2.905   0.379   4.579  0.1731  0.6101 -0.0440
  629TIP3    H123302   2.816   0.390   4.546  1.3010 -1.4186 -4.0561
  629TIP3    H223303   2.961   0.422   4.514  2.2467  0.3099  1.4861
  630TIP3   OH223304   0.527   3.620   1.185  0.1891  0.4291  0.3905
  630TIP3    H123305   0.604   3.623   1.129  0.1342  2.8017  0.3909
  630TIP3    H223306   0.463   3.569   1.135  0.8901  0.6302 -0.7331
  631TIP3   OH223307   5.277   2.449   5.743 -0.0562 -0.2179 -0.2452
  631TIP3    H123308   5.258   2.493   5.826  1.7130 -1.2691  0.7397
  631TIP3    H223309   5.201   2.392   5.730  0.0002 -0.6374  1.0833
  632TIP3   OH223310   1.487   0.999   6.274 -0.4892  0.1457  0.2507
  632TIP3    H123311   1.534   1.048   6.207  0.2466  0.2649  0.8496
  632TIP3    H223312   1.504   0.907   6.253 -0.1148  0.1868  0.3805
  633TIP3   OH223313   3.902   6.292   3.852  0.1136 -0.1346  0.6215
  633TIP3    H123314   3.984   6.290   3.803 -1.4421 -1.0002 -2.0626
  633TIP3    H223315   3.872   6.201   3.853 -1.1196  0.2583  0.9796
  634TIP3   OH223316   5.825   6.618  12.391 -0.1368  0.2647 -0.4351
  634TIP3    H123317   5.827   6.614  12.487  0.9505 -1.6701 -0.5000
  634TIP3    H223318   5.884   6.690  12.369 -1.5396  1.6851  0.3693
  635TIP3   OH223319   3.281   1.989   5.895  0.1413  0.1248 -0.1664
  635TIP3    H123320   3.337   2.001   5.972  0.7453 -1.3131 -0.3839
  635TIP3    H223321   3.204   1.943   5.929 -0.3523  0.9689 -0.1162
  636TIP3   OH223322   1.299   3.743  11.076  0.1071  0.4530  0.7146
  636TIP3    H123323   1.210   3.743  11.110 -0.0391 -1.2604  0.3814
  636TIP3    H223324   1.353   3.774  11.148 -0.7374  1.3144  0.9755
  637TIP3   OH223325   6.545   4.818  12.233 -0.3427 -0.6229  0.0577
  637TIP3    H123326   6.624   4.835  12.181  0.6907 -1.2791  1.3604
  637TIP3    H223327   6.506   4.741  12.193  0.6322 -1.3281  0.4374
  638TIP3   OH223328   5.605   2.799   4.032  0.2110 -0.5789  0.5728
  638TIP3    H123329   5.656   2.784   3.952  0.7537  0.1655  0.7697
  638TIP3    H223330   5.581   2.712   4.063 -0.6252 -0.8587 -0.8024
  639TIP3   OH223331   2.218   1.196  10.630  0.4259 -0.1678  0.5331
  639TIP3    H123332   2.228   1.290  10.616 -0.0480  0.0063  1.3577
  639TIP3    H223333   2.274   1.177  10.705  1.3203 -0.7344 -0.2527
  640TIP3   OH223334   4.698   6.504  13.743 -0.0898 -0.3534 -0.3930
  640TIP3    H123335   4.668   6.471  13.657  0.5884 -0.4639 -0.5876
  640TIP3    H223336   4.781   6.548  13.724 -0.2544  0.1759  0.1114
  641TIP3   OH223337   1.454   4.727   1.652  0.0691 -1.0082  0.5883
  641TIP3    H123338   1.531   4.775   1.619 -0.1997 -0.2259  1.0845
  641TIP3    H223339   1.481   4.636   1.653  0.5321 -0.8962 -0.5600
  642TIP3   OH223340   5.198   5.466   6.149  0.5131  0.0250 -0.1540
  642TIP3    H123341   5.207   5.372   6.130 -0.5727 -0.0790 -0.1799
  642TIP3    H223342   5.108   5.476   6.177  0.7121  1.0233  0.1500
  643TIP3   OH223343   6.586   5.716   0.297  0.4388  0.5734 -0.5750
  643TIP3    H123344   6.541   5.692   0.378 -1.8267 -1.5474 -2.4012
  643TIP3    H223345   6.658   5.653   0.289  1.9121  2.0559  0.7912
  644TIP3   OH223346   6.666   1.098   3.239  0.4339  0.5204  0.0573
  644TIP3    H123347   6.579   1.124   3.271  0.4892  0.3968  0.3029
  644TIP3    H223348   6.673   1.141   3.153 -1.7733 -3.2014 -2.1325
  645TIP3   OH223349   2.698   6.360   1.798  0.0931  0.0011  0.3180
  645TIP3    H123350   2.722   6.293   1.862  0.6333 -0.6620 -0.5482
  645TIP3    H223351   2.752   6.435   1.821  0.9431 -0.5337  0.1114
  646TIP3   OH223352   3.199   3.154  13.446  0.0843  0.5552  0.0339
  646TIP3    H123353   3.131   3.142  13.380  0.2560 -0.2069 -0.0136
  646TIP3    H223354   3.270   3.198  13.399 -0.2521  1.0660  0.0053
  647TIP3   OH223355   5.764   1.421  12.629  0.4284 -1.1156  0.0340
  647TIP3    H123356   5.808   1.460  12.704 -0.3539  2.7447 -1.4097
  647TIP3    H223357   5.672   1.446  12.639  0.0979 -1.6349 -1.5344
  648TIP3   OH223358   2.843   4.405   3.439 -0.2568  0.6433  0.7158
  648TIP3    H123359   2.938   4.411   3.432 -0.3425  1.8518  0.4752
  648TIP3    H223360   2.827   4.369   3.526  0.4367 -0.5128  0.3796
  649TIP3   OH223361   6.652   5.059  16.429 -0.1193 -0.4041 -0.0535
  649TIP3    H123362   6.748   5.061  16.437 -0.1315  2.0085 -0.2273
  649TIP3    H223363   6.635   5.071  16.336 -0.6164 -0.8354 -0.0221
  650TIP3   OH223364   3.584   1.227   3.894 -0.3532  0.0897  0.3048
  650TIP3    H123365   3.596   1.249   3.986  1.9952 -0.8964  0.2582
  650TIP3    H223366   3.663   1.178   3.870 -2.4111 -2.5339 -1.3712
  651TIP3   OH223367   6.322   5.734   1.594 -0.0544 -0.0927  0.1048
  651TIP3    H123368   6.283   5.651   1.568 -1.0607 -0.4171  2.4874
  651TIP3    H223369   6.353   5.773   1.513 -0.7479 -2.1944 -1.2025
  652TIP3   OH223370   4.109   4.470  16.537 -0.0080  0.3315  0.3065
  652TIP3    H123371   4.051   4.403  16.573 -1.7704  0.9160 -1.3605
  652TIP3    H223372   4.121   4.445  16.445  0.8469  1.2694  0.1470
  653TIP3   OH223373   2.211   0.525   0.129 -0.0120  0.1089  1.1881
  653TIP3    H123374   2.163   0.598   0.092 -2.7314 -1.3528  1.6867
  653TIP3    H223375   2.218   0.462   0.057 -0.9255 -0.6466  1.7430
  654TIP3   OH223376   5.285   3.682  13.765  0.2358  0.0263  0.0258
  654TIP3    H123377   5.366   3.709  13.723 -0.6399  0.6863 -1.2461
  654TIP3    H223378   5.312   3.652  13.852  1.8888 -0.1857 -0.5552
  655TIP3   OH223379   2.921   0.349  17.103 -0.3445 -0.3793  0.0205
  655TIP3    H123380   2.985   0.408  17.143 -0.1659 -0.9355  0.5592
  655TIP3    H223381   2.841   0.401  17.097 -0.4675 -0.3866  1.4007
  656TIP3   OH223382   0.403   5.791   3.317 -0.7374  0.2298  0.2988
  656TIP3    H123383   0.452   5.722   3.362 -0.1118  0.4072 -0.0920
  656TIP3    H223384   0.377   5.851   3.386 -2.7163 -1.2363  0.8729
  657TIP3   OH223385   2.499   0.531   5.801 -0.0407  0.2641  0.3347
  657TIP3    H123386   2.534   0.619   5.788  1.9509 -0.7617 -1.6588
  657TIP3    H223387   2.525   0.507   5.890 -1.5528  2.0593  1.3001
  658TIP3   OH223388   0.984   5.505  13.186  0.0788 -0.1057  0.2858
  658TIP3    H123389   1.038   5.483  13.110  1.6739  2.4520  0.6197
  658TIP3    H223390   1.041   5.489  13.261  1.3198  4.8659  0.5408
  659TIP3   OH223391   2.571   4.666   6.073  0.0320 -0.3553 -0.6306
  659TIP3    H123392   2.486   4.659   6.115  0.0857 -0.1564 -0.4870
  659TIP3    H223393   2.626   4.712   6.136  0.0502  0.1434 -1.0085
  660TIP3   OH223394   6.346   2.372   5.525  0.1001  0.1155 -0.1490
  660TIP3    H123395   6.393   2.456   5.521  0.6664 -0.1139  1.3230
  660TIP3    H223396   6.384   2.327   5.600 -0.1915 -1.4807 -0.9409
  661TIP3   OH223397   2.582   5.361   2.818  0.1358  0.1859  0.1569
  661TIP3    H123398   2.641   5.421   2.774  1.7126  0.2149  2.2395
  661TIP3    H223399   2.639   5.297   2.861 -1.3782 -0.6517  0.9866
  662TIP3   OH223400   5.064   2.808  13.659 -0.1099 -0.0729  0.1806
  662TIP3    H123401   4.969   2.800  13.668 -0.2208  0.0420 -0.8726
  662TIP3    H223402   5.099   2.747  13.724 -0.9162 -1.0828 -0.3239
  663TIP3   OH223403   4.606   3.973   0.752  0.1459 -0.2824  0.1362
  663TIP3    H123404   4.646   4.053   0.787 -0.6437 -0.9422  2.7164
  663TIP3    H223405   4.522   3.967   0.799  1.1633 -3.7740  1.6513
  664TIP3   OH223406   0.366   3.541   2.968  0.2735  0.1182  0.2164
  664TIP3    H123407   0.275   3.560   2.992 -0.4706 -3.1496  0.1840
  664TIP3    H223408   0.410   3.528   3.052  0.7237  1.6568  0.2302
  665TIP3   OH223409   6.413   5.219  14.410  0.1505  0.0055  0.2415
  665TIP3    H123410   6.406   5.131  14.373  1.0153  0.2246 -0.4625
  665TIP3    H223411   6.461   5.207  14.492  1.1220 -0.0569 -0.3312
  666TIP3   OH223412   4.935   0.600   1.083  0.1985  0.8402 -0.3526
  666TIP3    H123413   4.844   0.583   1.057  0.1130  0.5566  0.1285
  666TIP3    H223414   4.959   0.678   1.033  0.4180 -0.3386 -2.1288
  667TIP3   OH223415   0.364   5.035  15.753 -0.3213 -0.5146  0.1611
  667TIP3    H123416   0.339   5.124  15.730  0.7100  0.0878  1.3578
  667TIP3    H223417   0.312   5.013  15.830 -2.7208 -2.0264 -1.8060
  668TIP3   OH223418   3.554   1.326  13.412 -0.3704  0.0271 -0.1616
  668TIP3    H123419   3.485   1.333  13.346 -0.3616  1.4906 -0.0389
  668TIP3    H223420   3.622   1.273  13.371 -0.6071  0.4598 -1.1269
  669TIP3   OH223421   3.520   1.291   4.653 -0.4655 -0.1791 -1.1689
  669TIP3    H123422   3.485   1.266   4.739  1.6520  2.7062  0.6010
  669TIP3    H223423   3.576   1.218   4.628  0.8276  0.0228  1.0592
  670TIP3   OH223424   3.124   6.726  12.719 -0.2869 -0.0420 -0.2075
  670TIP3    H123425   3.072   6.723  12.800 -0.3195  1.4198 -0.1605
  670TIP3    H223426   3.206   6.683  12.742  0.8161  2.8045  1.4597
  671TIP3   OH223427   0.993   2.879  14.039 -0.0401  0.6194 -0.0061
  671TIP3    H123428   0.973   2.805  13.982 -4.4748  1.1929  0.6067
  671TIP3    H223429   1.051   2.934  13.987  2.5670 -2.7727 -0.8275
  672TIP3   OH223430   4.009   2.734  13.690  0.8505 -0.5343  1.1893
  672TIP3    H123431   3.932   2.772  13.732  1.6238  0.2777  1.8874
  672TIP3    H223432   3.977   2.654  13.649 -0.1060 -0.8183  2.4861
  673TIP3   OH223433   5.830   1.080  14.548 -0.4918 -0.1578 -0.3315
  673TIP3    H123434   5.861   0.993  14.574 -1.9319 -0.1618  1.5339
  673TIP3    H223435   5.822   1.076  14.453 -1.9798 -2.5532 -0.1327
  674TIP3   OH223436   5.512   2.675  15.254 -0.1358  0.5306  0.5138
  674TIP3    H123437   5.563   2.679  15.174  0.8811 -1.0056  1.0641
  674TIP3    H223438   5.554   2.737  15.313  1.2550 -0.9129  1.0509
  675TIP3   OH223439   5.355   4.861  12.663 -0.1302 -0.4718  0.1749
  675TIP3    H123440   5.337   4.879  12.570  0.3813 -1.6452 -0.1646
  675TIP3    H223441   5.271   4.837  12.700 -0.6192  1.4444  0.3763
  676TIP3   OH223442   4.889   3.987   2.090 -0.5713 -0.0110  0.0981
  676TIP3    H123443   4.979   3.973   2.059 -1.0879  1.0364 -1.9391
  676TIP3    H223444   4.849   3.900   2.083 -0.0888 -0.2176 -0.1851
  677TIP3   OH223445   3.688   0.673   3.178 -0.0496  0.0985 -0.4455
  677TIP3    H123446   3.645   0.682   3.092 -1.9277  1.3037  0.5883
  677TIP3    H223447   3.661   0.587   3.209 -0.5466  0.2592 -0.4296
  678TIP3   OH223448   5.935   3.751   4.459 -0.5511  0.4828  0.7666
  678TIP3    H123449   5.992   3.808   4.408 -0.4174 -1.1813 -1.0039
  678TIP3    H223450   5.854   3.802   4.470  0.2527  1.7490  0.8629
  679TIP3   OH223451   2.379   2.630   6.076  0.1197  0.2051 -0.0032
  679TIP3    H123452   2.324   2.677   6.139  0.0157  0.1436 -0.0469
  679TIP3    H223453   2.446   2.693   6.050  1.0664 -0.2451  1.3023
  680TIP3   OH223454   0.999   2.817   0.028 -0.0809  0.7694 -0.8116
  680TIP3    H123455   0.949   2.774  -0.041  1.9799 -1.5409 -0.9357
  680TIP3    H223456   0.944   2.811   0.106 -1.0694  0.5577 -1.5242
  681TIP3   OH223457   5.832   2.611   3.817  0.4955  0.1736 -0.1661
  681TIP3    H123458   5.897   2.542   3.833  0.1189  0.1658  1.4352
  681TIP3    H223459   5.777   2.576   3.747  0.7207 -0.8855  0.1735
  682TIP3   OH223460   6.037   5.827   2.214 -0.4749  0.1949  0.3336
  682TIP3    H123461   6.118   5.805   2.167  0.1310 -0.5895  1.6999
  682TIP3    H223462   5.978   5.858   2.146  0.2851 -1.1891 -1.0037
  683TIP3   OH223463   6.050   3.103   0.500  0.3392 -0.2025 -0.1399
  683TIP3    H123464   6.098   3.156   0.436  0.7212  0.9049  1.0595
  683TIP3    H223465   6.047   3.157   0.579 -1.6509 -0.8449  0.2497
  684TIP3   OH223466   2.082   2.360  17.133  0.3030  0.4605  0.1669
  684TIP3    H123467   2.155   2.298  17.127  0.5605  0.6969  0.8174
  684TIP3    H223468   2.087   2.412  17.053 -0.4770 -0.9690 -0.8283
  685TIP3   OH223469   5.305   4.894   0.904  0.4040  0.3099  0.4825
  685TIP3    H123470   5.237   4.830   0.885 -0.0453  0.6505  0.9298
  685TIP3    H223471   5.336   4.871   0.992 -0.1918  1.0864  0.8991
  686TIP3   OH223472   6.006   5.875  12.643 -0.0637  0.3680  0.0052
  686TIP3    H123473   6.049   5.936  12.703  0.6888  1.6928 -1.8354
  686TIP3    H223474   6.078   5.838  12.591 -0.3892 -2.8085  1.6902
  687TIP3   OH223475   1.423   3.077   1.889  0.2849 -0.4779 -0.4934
  687TIP3    H123476   1.445   3.039   1.974  1.0966  0.3901 -0.3007
  687TIP3    H223477   1.506   3.077   1.841  0.7907  2.7998  0.2224
  688TIP3   OH223478   5.955   5.452   3.156 -0.1645 -0.2162  0.6650
  688TIP3    H123479   6.006   5.393   3.212 -1.3353 -1.5618  0.3461
  688TIP3    H223480   5.906   5.394   3.098 -2.9072  0.9980  1.6892
  689TIP3   OH223481   1.214   6.476  14.689  0.1943 -0.3071 -0.1959
  689TIP3    H123482   1.214   6.540  14.760  1.5883  1.2885 -1.5871
  689TIP3    H223483   1.288   6.418  14.709 -0.2388 -0.6774  0.3477
  690TIP3   OH223484   5.700   4.457   2.241 -0.0719 -0.3531 -0.2755
  690TIP3    H123485   5.779   4.404   2.253 -1.0555 -1.9195 -0.5987
  690TIP3    H223486   5.660   4.459   2.328  0.5086  0.7866 -0.0165
  691TIP3   OH223487   6.381   2.838  15.152 -0.3512  0.1405 -0.4886
  691TIP3    H123488   6.404   2.746  15.141  0.6890  0.3205  0.1357
  691TIP3    H223489   6.410   2.880  15.070  0.5541  0.1737 -0.1545
  692TIP3   OH223490   6.255   0.103   5.244 -0.4174  0.3697  0.3542
  692TIP3    H123491   6.280   0.013   5.264  0.6646  0.3838 -0.8875
  692TIP3    H223492   6.217   0.136   5.325 -0.7669 -1.1828  0.8381
  693TIP3   OH223493   0.122   0.313   4.890 -0.1588  0.1363  0.6443
  693TIP3    H123494   0.044   0.261   4.870  1.5273 -2.1067 -0.2741
  693TIP3    H223495   0.163   0.268   4.964  1.9148 -0.5342 -0.8650
  694TIP3   OH223496   6.193   1.887   3.433  0.1603  0.1970  0.9223
  694TIP3    H123497   6.135   1.960   3.409 -0.6818 -1.0448 -0.9193
  694TIP3    H223498   6.278   1.910   3.396 -0.5468 -0.5769 -1.2403
  695TIP3   OH223499   3.562   6.518   0.306  0.8033  0.2685 -0.4173
  695TIP3    H123500   3.548   6.612   0.315  0.3435  0.2348 -0.7559
  695TIP3    H223501   3.652   6.504   0.336  0.7413  0.7585  0.0126
  696TIP3   OH223502   4.845   3.447   1.440 -0.2553 -0.3661  0.3142
  696TIP3    H123503   4.753   3.431   1.419  0.0244 -0.2483 -1.0331
  696TIP3    H223504   4.893   3.385   1.385  0.5551  0.8006 -0.3064
  697TIP3   OH223505   6.671   4.557   0.249 -0.0331 -0.4124  0.0751
  697TIP3    H123506   6.579   4.534   0.260 -0.0571  0.2122  1.2050
  697TIP3    H223507   6.676   4.594   0.161 -0.7805 -0.8047 -0.1408
  698TIP3   OH223508   4.191   4.387  17.006 -0.2178 -0.1106 -0.2962
  698TIP3    H123509   4.118   4.325  17.008 -0.7939  0.5387 -0.7875
  698TIP3    H223510   4.177   4.437  16.925  0.9244 -0.1633 -0.5279
  699TIP3   OH223511   0.170   5.440  16.754 -0.1503  0.1533 -0.5551
  699TIP3    H123512   0.245   5.387  16.781  0.1676  0.5018 -0.7641
  699TIP3    H223513   0.094   5.388  16.780  0.1570  0.1259  0.2892
  700TIP3   OH223514   4.804   3.710   4.731  0.3819  0.1498 -0.0822
  700TIP3    H123515   4.881   3.700   4.674  0.2441  1.1275 -0.4445
  700TIP3    H223516   4.756   3.628   4.720  1.2439 -0.3745 -0.0459
  701TIP3   OH223517   4.931   0.803   5.351 -0.5529  0.8551 -0.7928
  701TIP3    H123518   4.936   0.768   5.440 -1.7328 -2.4001 -1.9303
  701TIP3    H223519   4.857   0.864   5.353 -2.6024 -1.5988 -0.2902
  702TIP3   OH223520   5.148   0.893  16.962  0.0127 -0.3751  0.2988
  702TIP3    H123521   5.059   0.930  16.964  0.1715  0.1295 -1.4831
  702TIP3    H223522   5.201   0.962  16.922  1.3517 -0.4263  1.9421
  703TIP3   OH223523   3.216   6.589   0.640  0.4044 -0.5646  0.1404
  703TIP3    H123524   3.275   6.663   0.624  0.4272 -0.7953 -0.8667
  703TIP3    H223525   3.129   6.629   0.647  0.7334 -0.1492  2.2652
  704TIP3   OH223526   2.967   5.149   0.125 -0.4266 -0.4377  0.4177
  704TIP3    H123527   3.055   5.119   0.148  1.1266  2.9464 -0.7351
  704TIP3    H223528   2.917   5.144   0.207  1.8379  0.8264  1.9241
  705TIP3   OH223529   0.481   6.240  14.148  0.4753  0.2330 -0.1289
  705TIP3    H123530   0.447   6.292  14.075  2.7439 -0.6881 -1.9143
  705TIP3    H223531   0.546   6.182  14.107  2.8080  0.6493  2.8474
  706TIP3   OH223532   0.304   1.639  14.057 -0.5294  0.2278 -0.4190
  706TIP3    H123533   0.290   1.619  14.150  0.1226 -0.8963 -0.5659
  706TIP3    H223534   0.235   1.591  14.011  1.2596 -2.0449 -0.8003
  707TIP3   OH223535   3.555   4.742  13.744  0.4619 -0.2445 -0.7448
  707TIP3    H123536   3.621   4.711  13.681  0.5134 -1.4585 -0.1109
  707TIP3    H223537   3.592   4.821  13.781  0.1991  0.7934 -2.6284
  708TIP3   OH223538   2.225   5.672  16.393 -0.2149 -0.1464 -0.3880
  708TIP3    H123539   2.178   5.693  16.474 -1.1390  0.8533 -1.1608
  708TIP3    H223540   2.235   5.577  16.394  3.0989  0.1240  2.7025
  709TIP3   OH223541   6.345   0.675  12.523  0.1519 -0.2635 -0.5854
  709TIP3    H123542   6.375   0.594  12.564  1.7556 -0.0235 -1.2439
  709TIP3    H223543   6.265   0.698  12.570  0.9029 -1.0373  1.0960
  710TIP3   OH223544   0.857   1.495   0.968  0.1404  0.0442  0.2405
  710TIP3    H123545   0.884   1.404   0.957 -0.1402 -0.0916  0.6647
  710TIP3    H223546   0.769   1.490   1.005 -0.0441  0.4870 -0.1308
  711TIP3   OH223547   3.622   0.696  16.547 -0.4749  0.0580  0.7979
  711TIP3    H123548   3.621   0.781  16.591 -0.7579 -0.1502  1.1916
  711TIP3    H223549   3.702   0.697  16.495 -0.2878  0.4184  1.0934
  712TIP3   OH223550   0.411   6.756   1.825 -0.0403 -0.1563  0.3500
  712TIP3    H123551   0.354   6.778   1.898 -0.4248  3.0238 -0.8332
  712TIP3    H223552   0.410   6.660   1.822 -2.8724 -0.2481  2.2589
  713TIP3   OH223553   2.434   5.081   6.563  1.0880 -0.2156  0.2669
  713TIP3    H123554   2.365   5.143   6.586 -0.4349 -1.4444 -0.8548
  713TIP3    H223555   2.452   5.034   6.645  0.4140 -0.0829  0.4932
  714TIP3   OH223556   5.352   2.761  11.755  0.6494  0.1200  0.6894
  714TIP3    H123557   5.335   2.815  11.832 -1.0513 -1.1484  1.2310
  714TIP3    H223558   5.325   2.673  11.781 -1.4263 -0.0570 -1.8470
  715TIP3   OH223559   4.531   6.275   1.119  0.4176 -0.6814  0.7841
  715TIP3    H123560   4.476   6.248   1.191 -1.1839  0.1652 -0.0970
  715TIP3    H223561   4.474   6.273   1.042  1.2375  1.3973  0.0614
  716TIP3   OH223562   1.956   6.722  12.811  0.1500  0.1726 -0.0146
  716TIP3    H123563   1.949   6.774  12.891 -0.3435 -0.4488  0.3477
  716TIP3    H223564   1.871   6.734  12.768  0.1806 -0.0129 -0.1265
  717TIP3   OH223565   0.761   4.867   1.713  0.1275 -0.0898  0.0088
  717TIP3    H123566   0.806   4.783   1.721 -1.1388 -0.7502  0.3694
  717TIP3    H223567   0.671   4.843   1.690  0.2737  1.2375 -2.1461
  718TIP3   OH223568   5.668   5.977  11.296  0.0718  0.0395  0.2429
  718TIP3    H123569   5.653   6.059  11.248  1.5262  1.2918  1.8845
  718TIP3    H223570   5.616   5.985  11.376 -1.6764 -1.6993 -0.6456
  719TIP3   OH223571   5.824   3.883   0.478 -0.5331 -0.7018 -0.1539
  719TIP3    H123572   5.919   3.882   0.470 -0.4131  1.4010  0.6266
  719TIP3    H223573   5.805   3.828   0.554  0.1767  0.0049  0.5430
  720TIP3   OH223574   1.182   3.037  13.899 -0.2131  0.4922 -0.3017
  720TIP3    H123575   1.235   3.117  13.901  0.4132  0.0499  1.1840
  720TIP3    H223576   1.242   2.969  13.868  0.3484 -0.1745  2.1654
  721TIP3   OH223577   3.181   0.435   1.770 -0.0059 -0.0302  0.2035
  721TIP3    H123578   3.248   0.432   1.702  1.4684  0.1039  1.6349
  721TIP3    H223579   3.118   0.501   1.739  1.0543  0.5873 -0.6542
  722TIP3   OH223580   5.255   6.081   3.260  0.3063  0.0515 -0.6644
  722TIP3    H123581   5.305   6.122   3.188  0.3273 -0.5931 -1.0209
  722TIP3    H223582   5.218   6.002   3.221  0.8870 -0.6697  0.2204
  723TIP3   OH223583   1.175   0.120  14.821 -0.5222 -0.1163 -0.1663
  723TIP3    H123584   1.159   0.167  14.903 -1.3720  0.8152 -0.8493
  723TIP3    H223585   1.093   0.130  14.772 -0.2277 -1.1685 -0.8848
  724TIP3   OH223586   1.485   0.313   0.145 -0.2178 -0.1195 -0.2151
  724TIP3    H123587   1.460   0.371   0.073 -0.3943  0.4538  0.3043
  724TIP3    H223588   1.432   0.234   0.132 -1.9595  0.8956  0.6190
  725TIP3   OH223589   1.896   5.406   1.007 -0.0876  0.6004  0.0720
  725TIP3    H123590   1.957   5.479   1.019  1.2759 -0.2104 -1.7125
  725TIP3    H223591   1.862   5.417   0.918 -0.3071 -0.6024 -0.0078
  726TIP3   OH223592   6.453   2.161  11.691 -0.4440  0.0385  0.1273
  726TIP3    H123593   6.423   2.072  11.670 -0.0667 -0.2343  0.7198
  726TIP3    H223594   6.527   2.147  11.750  1.7519  0.6244 -2.3687
  727TIP3   OH223595   0.614   3.089   3.052  0.3633 -0.0773  0.2797
  727TIP3    H123596   0.583   3.141   2.977  1.6682  0.3973  0.0651
  727TIP3    H223597   0.631   3.154   3.121  0.6995 -0.3563  0.4588
  728TIP3   OH223598   1.338   5.383  16.005 -0.2909  0.0613 -0.2246
  728TIP3    H123599   1.307   5.467  15.972 -0.9779  0.3843  1.1977
  728TIP3    H223600   1.272   5.357  16.070 -0.5826 -2.0173 -1.3042
  729TIP3   OH223601   1.079   2.802   5.849  0.6640  0.1272 -0.0424
  729TIP3    H123602   1.074   2.872   5.915  1.1345  0.5323 -0.4239
  729TIP3    H223603   1.136   2.838   5.781 -0.1972 -0.1116 -0.8961
  730TIP3   OH223604   6.377   5.501  14.879 -0.2085  0.4877 -0.3237
  730TIP3    H123605   6.291   5.516  14.839 -2.1089 -1.9628  2.6868
  730TIP3    H223606   6.358   5.466  14.965  3.8599  0.9313  0.8529
  731TIP3   OH223607   0.350   1.172   0.159  0.1103  0.0710  0.3829
  731TIP3    H123608   0.310   1.254   0.128  1.0141  0.0351 -0.9068
  731TIP3    H223609   0.439   1.197   0.182 -0.1082 -0.2224  1.5676
  732TIP3   OH223610   2.326   3.961   0.996 -0.3621  0.3447  0.3704
  732TIP3    H123611   2.269   4.017   1.048 -1.1544 -0.6888  0.6213
  732TIP3    H223612   2.333   4.006   0.912 -0.1829  1.3270  0.9072
  733TIP3   OH223613   5.404   6.000  13.848 -0.2328  0.6065 -0.0388
  733TIP3    H123614   5.448   5.995  13.933 -0.4174 -2.4174 -0.0932
  733TIP3    H223615   5.312   6.012  13.869 -0.4998 -1.7375  0.2599
  734TIP3   OH223616   1.600   5.342  15.484  0.2464  0.1448  0.1324
  734TIP3    H123617   1.674   5.399  15.502 -0.2594 -0.0815  3.1903
  734TIP3    H223618   1.542   5.352  15.559 -0.5694 -3.2472  0.0748
  735TIP3   OH223619   4.047   1.163   2.835 -0.2309 -0.2162 -0.1222
  735TIP3    H123620   4.035   1.171   2.930  0.6044 -0.9576  0.0568
  735TIP3    H223621   4.071   1.071   2.821 -3.9301 -1.0563 -1.4761
  736TIP3   OH223622   0.181   5.813  15.139  0.5035 -0.0615 -0.0203
  736TIP3    H123623   0.089   5.786  15.133  0.0819  1.2570  0.3595
  736TIP3    H223624   0.196   5.866  15.061  0.6741  0.5227  0.4084
  737TIP3   OH223625   1.074   2.052  13.016 -0.4697 -0.2615  0.0152
  737TIP3    H123626   1.058   2.131  12.964 -0.1889 -1.4139 -1.8725
  737TIP3    H223627   1.115   2.085  13.096  0.1688  1.4668 -0.9777
  738TIP3   OH223628   1.196   5.372   4.180 -0.6007  0.1791 -1.3598
  738TIP3    H123629   1.172   5.463   4.197  0.0731  0.2888 -0.9717
  738TIP3    H223630   1.160   5.354   4.093 -1.9927  0.3628 -0.8286
  739TIP3   OH223631   0.576   4.413  16.626  0.1051  0.5081  0.1102
  739TIP3    H123632   0.562   4.500  16.663  0.5747  0.0186  1.4673
  739TIP3    H223633   0.496   4.394  16.576 -0.0440  1.6595 -0.0886
  740TIP3   OH223634   3.804   1.472   5.189  0.5330 -0.2991 -0.0393
  740TIP3    H123635   3.763   1.540   5.243 -1.1035 -0.5814 -0.8740
  740TIP3    H223636   3.804   1.394   5.245  1.4358  0.1235  0.5464
  741TIP3   OH223637   6.299   4.366  16.135  0.1293  0.3674 -0.6892
  741TIP3    H123638   6.215   4.410  16.123  0.2216  0.3525 -1.4219
  741TIP3    H223639   6.293   4.325  16.221 -1.3150 -1.1763 -1.5102
  742TIP3   OH223640   3.656   1.672   1.686  0.1633 -0.5065 -0.2504
  742TIP3    H123641   3.581   1.626   1.723  0.6067  0.5144  2.0154
  742TIP3    H223642   3.730   1.643   1.738  0.8436  0.8042 -0.4653
  743TIP3   OH223643   1.070   1.503  11.129 -0.9544  0.4075  0.5087
  743TIP3    H123644   1.002   1.451  11.087 -0.5289  0.0444  0.2633
  743TIP3    H223645   1.136   1.515  11.061 -0.8907  0.9773  0.6688
  744TIP3   OH223646   5.549   4.848  13.537 -0.4374 -0.6527  0.7981
  744TIP3    H123647   5.642   4.861  13.519 -0.4975 -0.5993  0.5235
  744TIP3    H223648   5.547   4.804  13.622 -0.1154 -1.7563  0.2385
  745TIP3   OH223649   0.053   1.833  16.155 -0.0607 -0.1035  0.1542
  745TIP3    H123650   0.039   1.883  16.074 -0.8418  0.7687  0.8162
  745TIP3    H223651  -0.020   1.771  16.159  0.2643 -0.5024 -0.0703
  746TIP3   OH223652   3.699   4.967   1.243  0.2147  0.0738 -0.6965
  746TIP3    H123653   3.624   4.965   1.183  0.5378 -1.2539 -1.0674
  746TIP3    H223654   3.709   5.060   1.265 -1.1596  0.3402 -1.1145
  747TIP3   OH223655   5.362   1.484  17.070 -0.3341 -0.1228 -0.1252
  747TIP3    H123656   5.346   1.578  17.075  1.2790  0.2351 -1.4741
  747TIP3    H223657   5.323   1.449  17.150 -1.4391  1.6113  0.1190
  748TIP3   OH223658   3.136   2.015   6.181 -0.5299  0.6152  0.1325
  748TIP3    H123659   3.043   1.992   6.179  0.2259 -2.8721  0.7508
  748TIP3    H223660   3.161   2.004   6.273  0.7605  0.2454 -0.2621
  749TIP3   OH223661   2.172   2.215  16.047  0.5138 -0.3390 -0.1506
  749TIP3    H123662   2.192   2.267  15.969 -3.3744 -0.3469 -1.2950
  749TIP3    H223663   2.198   2.126  16.024  1.9902  0.1484 -0.3642
  750TIP3   OH223664   1.718   6.007   1.695 -0.3731 -0.4862  0.0085
  750TIP3    H123665   1.701   5.920   1.732 -0.0538 -0.3383  0.5152
  750TIP3    H223666   1.777   6.048   1.758 -1.7518  0.6658  0.5561
  751TIP3   OH223667   1.718   5.343  13.962  0.4455  0.0775  0.0382
  751TIP3    H123668   1.629   5.309  13.968  0.9448 -1.4232 -0.6640
  751TIP3    H223669   1.721   5.415  14.024 -1.4132  0.4898 -0.3142
  752TIP3   OH223670   6.231   4.036   3.315 -0.0109 -0.5045  0.3248
  752TIP3    H123671   6.201   4.070   3.231  0.0821 -3.5822 -1.0261
  752TIP3    H223672   6.157   3.984   3.348  1.0621 -1.8522  0.6470
  753TIP3   OH223673   0.161   4.522   1.575 -0.1142 -0.1360  0.0918
  753TIP3    H123674   0.230   4.535   1.510 -0.2942  0.5106  0.0285
  753TIP3    H223675   0.104   4.457   1.536 -0.1233  0.1188 -0.3258
  754TIP3   OH223676   5.789   5.291  10.506  0.2753  0.1281  0.2675
  754TIP3    H123677   5.877   5.279  10.471  0.4824 -1.2293  1.2209
  754TIP3    H223678   5.778   5.386  10.511  1.1663  0.3257 -1.1037
  755TIP3   OH223679   0.355   5.406  13.684  0.3400 -0.3819 -0.7940
  755TIP3    H123680   0.413   5.461  13.631 -0.5634  0.6268 -0.7480
  755TIP3    H223681   0.285   5.464  13.712 -2.1029 -2.1709 -2.9809
  756TIP3   OH223682   0.093   4.901  15.534 -0.0874 -0.0703 -0.1388
  756TIP3    H123683   0.009   4.888  15.578  0.2647  1.5693  1.0678
  756TIP3    H223684   0.078   4.975  15.476  0.1410 -0.6746 -0.9759
  757TIP3   OH223685   2.464   6.511   1.567 -0.2043  0.1560  0.0093
  757TIP3    H123686   2.475   6.565   1.645  0.2509 -1.4397  1.0717
  757TIP3    H223687   2.404   6.561   1.511  0.9225  2.1750  0.5575
  758TIP3   OH223688   3.406   0.936   0.656 -0.9272  0.5558  0.1453
  758TIP3    H123689   3.326   0.919   0.706 -0.7001  0.3690  0.4478
  758TIP3    H223690   3.412   1.031   0.653 -0.5646  0.5726  1.0924
  759TIP3   OH223691   1.338   2.973   3.710  0.1411  0.3033 -0.1424
  759TIP3    H123692   1.359   3.047   3.767  1.2004 -0.7431  0.8572
  759TIP3    H223693   1.243   2.961   3.719 -0.4425  2.9248 -2.0603
  760TIP3   OH223694   5.127   1.767  11.204  0.8284 -0.3312  0.0628
  760TIP3    H123695   5.181   1.845  11.214  0.6911 -0.2314  0.0158
  760TIP3    H223696   5.189   1.699  11.175  0.6625  0.1557 -1.4615
  761TIP3   OH223697   3.975   4.942  12.637  0.3353 -0.6630 -0.0950
  761TIP3    H123698   4.053   4.927  12.690 -0.1543 -2.4012  0.1624
  761TIP3    H223699   3.916   4.869  12.658 -1.6511  0.9740  0.2147
  762TIP3   OH223700   3.292   1.735  14.368  0.1986  0.0522  0.0677
  762TIP3    H123701   3.284   1.640  14.358  2.1829 -0.1304 -0.0102
  762TIP3    H223702   3.278   1.770  14.280  2.2628 -0.4081 -0.4822
  763TIP3   OH223703   3.343   6.548   1.454 -0.5474 -0.1563 -0.7410
  763TIP3    H123704   3.302   6.487   1.515 -0.0486 -1.3606 -1.5921
  763TIP3    H223705   3.277   6.561   1.385 -0.7718  0.5114 -0.4027
  764TIP3   OH223706   3.932   6.188  11.166  0.2948 -0.3771 -0.4883
  764TIP3    H123707   3.956   6.117  11.106  1.0522  0.6328 -1.3892
  764TIP3    H223708   3.989   6.261  11.141 -1.6877  1.1189 -0.7141
  765TIP3   OH223709   5.482   3.994  12.887  0.5882  0.0269 -0.0399
  765TIP3    H123710   5.455   3.904  12.905 -1.9674  1.1902  2.2679
  765TIP3    H223711   5.465   4.006  12.794 -0.7148 -1.3306  0.0050
  766TIP3   OH223712   4.164   1.939  13.904 -0.3354 -0.1797  0.3236
  766TIP3    H123713   4.095   1.879  13.873 -0.2720  0.5776 -1.3107
  766TIP3    H223714   4.130   2.026  13.886  1.3407  0.1958 -1.1544
  767TIP3   OH223715   6.357   6.677   3.988 -0.7614 -0.3429  0.5770
  767TIP3    H123716   6.361   6.631   3.904 -2.8011 -0.2568  0.4000
  767TIP3    H223717   6.436   6.650   4.034 -0.3634 -1.5622 -0.7740
  768TIP3   OH223718   4.086   0.605   3.409 -0.2893 -0.5702  0.7873
  768TIP3    H123719   4.036   0.650   3.341  0.4369 -0.5937  0.2343
  768TIP3    H223720   4.095   0.515   3.377  0.3525 -0.4912  0.7541
  769TIP3   OH223721   3.638   5.761   4.954  0.2425 -0.5332  0.1751
  769TIP3    H123722   3.639   5.680   4.903 -2.5081 -0.9604  0.7007
  769TIP3    H223723   3.615   5.829   4.892 -1.8334 -0.8593  0.5521
  770TIP3   OH223724   1.876   0.448  16.926 -0.1367  0.0649 -0.3397
  770TIP3    H123725   1.904   0.362  16.956 -1.7413 -0.4797 -0.3448
  770TIP3    H223726   1.876   0.442  16.830  2.3602  0.9475 -0.4322
  771TIP3   OH223727   2.776   3.500  11.956  0.0390  0.2861  0.3191
  771TIP3    H123728   2.822   3.444  12.018  0.7727 -0.7888 -1.1464
  771TIP3    H223729   2.695   3.453  11.936  0.8735 -0.5045 -1.2710
  772TIP3   OH223730   1.004   5.703   1.131 -0.1031  0.0765  0.1407
  772TIP3    H123731   0.929   5.645   1.117 -1.4958  2.2762 -1.7437
  772TIP3    H223732   1.074   5.663   1.080 -1.2331  0.3752 -1.6803
  773TIP3   OH223733   0.091   5.470   0.225 -0.4676  0.0990  0.0332
  773TIP3    H123734   0.178   5.509   0.218 -0.8229  0.6845 -1.1637
  773TIP3    H223735   0.042   5.505   0.151 -1.2919 -1.3581 -0.1434
  774TIP3   OH223736   1.537   6.453  15.075  0.2904  0.1069  0.1845
  774TIP3    H123737   1.454   6.495  15.096  0.0410  0.6358 -1.7291
  774TIP3    H223738   1.574   6.506  15.004  2.0437 -0.3892  0.6821
  775TIP3   OH223739   5.764   6.299   0.103  0.2825  0.2040 -1.2989
  775TIP3    H123740   5.830   6.231   0.116  0.5155  0.6123 -0.3553
  775TIP3    H223741   5.730   6.283   0.014 -1.9934 -3.1481  0.0917
  776TIP3   OH223742   4.659   4.566   5.099 -0.1677 -0.1509  0.6657
  776TIP3    H123743   4.586   4.571   5.037  0.5913  0.8428 -0.1669
  776TIP3    H223744   4.671   4.473   5.115 -1.1599 -0.3551  0.2586
  777TIP3   OH223745   2.390   3.778  11.732  0.1614 -0.3615  0.2643
  777TIP3    H123746   2.431   3.864  11.737 -0.3905  0.0854 -2.1370
  777TIP3    H223747   2.304   3.795  11.694 -0.1623 -1.9078  0.2758
  778TIP3   OH223748   0.902   6.095  16.653  0.0812  0.1617 -0.0708
  778TIP3    H123749   0.824   6.051  16.688  0.5662 -0.4120  0.3095
  778TIP3    H223750   0.975   6.044  16.688  0.6783  1.7405  1.0329
  779TIP3   OH223751   1.869   5.324   3.138 -0.7936 -0.3686 -0.3519
  779TIP3    H123752   1.920   5.388   3.089  0.2509 -0.8282  0.1113
  779TIP3    H223753   1.921   5.307   3.216 -1.8451 -0.5652  0.3229
  780TIP3   OH223754   5.676   2.478  13.802  0.3559  0.2846  0.1323
  780TIP3    H123755   5.673   2.413  13.872  1.0781  0.4236  0.2951
  780TIP3    H223756   5.724   2.435  13.731 -0.2586  0.1905 -0.2321
  781TIP3   OH223757   5.542   0.682   4.187  0.2337 -0.1451 -0.6467
  781TIP3    H123758   5.474   0.674   4.254 -0.7574  0.8065 -1.5101
  781TIP3    H223759   5.506   0.635   4.111 -0.9187  2.9794 -2.1710
  782TIP3   OH223760   1.676   5.644   2.030  0.1611 -0.0018  0.1605
  782TIP3    H123761   1.692   5.721   2.085  1.2785  1.6025 -2.2994
  782TIP3    H223762   1.581   5.631   2.035 -0.1778  2.1523 -0.1311
  783TIP3   OH223763   0.333   5.833   1.577  0.1695 -0.3577  0.1406
  783TIP3    H123764   0.373   5.761   1.626 -1.4068 -0.9129  0.6219
  783TIP3    H223765   0.242   5.834   1.605 -0.1685  0.9044 -0.9534
  784TIP3   OH223766   1.474   1.434  12.016  0.5375 -0.6606 -0.4086
  784TIP3    H123767   1.493   1.359  12.072  2.0954 -0.7106 -0.9980
  784TIP3    H223768   1.379   1.429  12.002  0.3983 -1.6299  0.8108
  785TIP3   OH223769   0.674   4.636   1.023 -0.0967 -0.1352  0.1370
  785TIP3    H123770   0.665   4.706   1.088 -0.2912 -0.2873  0.2763
  785TIP3    H223771   0.589   4.592   1.024  0.5834 -1.4720  1.3098
  786TIP3   OH223772   1.992   6.486   4.099  0.3786 -0.2979  0.2678
  786TIP3    H123773   1.934   6.531   4.160  0.5247  0.1543  0.0687
  786TIP3    H223774   2.061   6.449   4.155  1.4333  1.5227  0.2211
  787TIP3   OH223775   6.052   1.639  16.280  0.0661  0.1635 -0.0772
  787TIP3    H123776   6.002   1.577  16.225  0.2434  1.5578 -1.8661
  787TIP3    H223777   6.139   1.641  16.241  0.6868 -0.0476  1.2717
  788TIP3   OH223778   3.569   2.473   3.273 -0.3554 -0.0436  0.4577
  788TIP3    H123779   3.640   2.427   3.319 -0.0376  0.0159  0.0310
  788TIP3    H223780   3.609   2.503   3.192 -1.0401 -0.5618 -0.0775
  789TIP3   OH223781   3.233   2.002  11.416 -0.3848 -0.0130 -0.3927
  789TIP3    H123782   3.144   2.034  11.430  0.1253  0.8707  0.8383
  789TIP3    H223783   3.221   1.912  11.385 -1.7170  0.2995 -0.8371
  790TIP3   OH223784   2.832   1.356   1.872 -0.3375  0.3246  0.1448
  790TIP3    H123785   2.899   1.414   1.908 -0.3852 -0.2558  1.1945
  790TIP3    H223786   2.813   1.391   1.785  0.9062  0.8297  0.0756
  791TIP3   OH223787   6.115   4.946   4.859  0.6663 -0.0189 -0.3047
  791TIP3    H123788   6.053   4.904   4.799  1.3393 -1.2426 -0.1674
  791TIP3    H223789   6.104   5.040   4.844 -1.3574 -0.2104 -0.1569
  792TIP3   OH223790   0.320   5.003   5.252 -0.8587  0.5436  0.3935
  792TIP3    H123791   0.299   5.089   5.286 -1.1198  1.5645 -2.2370
  792TIP3    H223792   0.240   4.952   5.264 -1.6869  1.5593 -0.7482
  793TIP3   OH223793   1.396   1.523  11.599  0.2971  0.1930  0.2041
  793TIP3    H123794   1.344   1.494  11.673  0.3067  1.5490  0.7490
  793TIP3    H223795   1.378   1.458  11.530 -0.4912 -0.4971  1.0510
  794TIP3   OH223796   4.641   5.540   2.273 -0.2359 -0.1997  0.2177
  794TIP3    H123797   4.692   5.533   2.192 -0.3274 -0.5388  0.1858
  794TIP3    H223798   4.574   5.606   2.254 -2.0463 -2.2915 -0.9774
  795TIP3   OH223799   5.810   1.754  12.506 -0.4491 -0.1107 -0.1092
  795TIP3    H123800   5.863   1.682  12.472 -0.9046 -1.2028  1.4596
  795TIP3    H223801   5.870   1.803  12.562 -0.4345  0.0846 -0.2967
  796TIP3   OH223802   0.906   4.201   1.989 -0.4432  0.2489  0.2476
  796TIP3    H123803   0.932   4.218   1.898  1.8927  0.3812  0.8995
  796TIP3    H223804   0.956   4.123   2.013 -0.5064  0.6391  1.6576
  797TIP3   OH223805   5.364   6.263   1.878 -0.4640  0.2457 -0.5579
  797TIP3    H123806   5.278   6.222   1.863  0.2445 -1.7271  0.5949
  797TIP3    H223807   5.418   6.233   1.804 -0.3122  0.1363 -0.4033
  798TIP3   OH223808   4.856   2.033   3.427  0.1589  0.5421 -0.1187
  798TIP3    H123809   4.927   1.981   3.465  1.0133  1.7640 -0.0151
  798TIP3    H223810   4.778   1.981   3.442  0.9496 -0.5408  0.3213
  799TIP3   OH223811   0.476   3.243  11.783  0.0136 -0.0076  0.6373
  799TIP3    H123812   0.461   3.167  11.727 -2.3025  1.7800 -1.2465
  799TIP3    H223813   0.407   3.239  11.849  1.0027 -0.5228  1.6610
  800TIP3   OH223814   6.290   5.223   4.447  0.1046  0.8475 -0.1641
  800TIP3    H123815   6.275   5.129   4.458  0.8426  1.0085  2.4166
  800TIP3    H223816   6.216   5.253   4.394 -1.0995 -0.8697  0.5040
  801TIP3   OH223817   1.466   3.816  12.639  0.3882  0.1925  0.1880
  801TIP3    H123818   1.407   3.834  12.712  1.4831  1.6103  0.7577
  801TIP3    H223819   1.489   3.723  12.649  1.8174  0.7489  2.6489
  802TIP3   OH223820   4.436   2.174   3.225  0.0150  0.8014 -0.9199
  802TIP3    H123821   4.415   2.081   3.210 -0.5854  0.8775 -0.5657
  802TIP3    H223822   4.472   2.176   3.313  0.9946  0.7597 -1.3087
  803TIP3   OH223823   3.606   5.300  15.002 -0.3139  0.5526 -0.0724
  803TIP3    H123824   3.522   5.339  14.977 -0.2661 -0.1753 -1.4154
  803TIP3    H223825   3.608   5.215  14.957  0.6539  0.0803  0.8442
  804TIP3   OH223826   1.396   0.160  10.667  0.0958  0.1108 -0.2763
  804TIP3    H123827   1.443   0.205  10.736 -0.9373  0.1852  0.3917
  804TIP3    H223828   1.431   0.071  10.667 -0.2907 -0.0406  0.7096
  805TIP3   OH223829   1.082   0.548   4.439  0.1988  0.0610 -0.0920
  805TIP3    H123830   1.128   0.487   4.496 -0.5758  0.2327  0.7170
  805TIP3    H223831   0.992   0.548   4.470 -0.0632  0.7498 -0.8162
  806TIP3   OH223832   4.389   4.097  16.316  0.5969  0.1278  0.7940
  806TIP3    H123833   4.357   4.177  16.357  0.6949 -0.7084  2.5618
  806TIP3    H223834   4.477   4.085  16.352  1.4598  0.3938 -1.1530
  807TIP3   OH223835   5.764   0.853   3.495  0.5058  0.1588  0.2801
  807TIP3    H123836   5.738   0.761   3.504  1.1224 -0.0464 -0.0163
  807TIP3    H223837   5.784   0.880   3.585 -2.2966  0.8048  0.7566
  808TIP3   OH223838   4.791   0.926  16.961 -0.2301  0.0887  0.1769
  808TIP3    H123839   4.821   0.898  17.047  0.8276 -0.1600 -0.2654
  808TIP3    H223840   4.697   0.909  16.962  0.2382 -2.8070  0.1840
  809TIP3   OH223841   1.873   3.951  15.807 -0.0553 -0.0248 -0.2545
  809TIP3    H123842   1.791   3.920  15.845  0.4977  0.8336  1.7392
  809TIP3    H223843   1.928   3.873  15.802 -0.3416 -0.2636  0.2241
  810TIP3   OH223844   1.203   5.382   0.602  0.3706 -0.1299 -0.1316
  810TIP3    H123845   1.289   5.391   0.642 -0.3956  1.9646  1.0883
  810TIP3    H223846   1.214   5.418   0.514  1.0167 -0.9379 -0.3896
  811TIP3   OH223847   2.484   6.320  14.642 -0.5877  0.5887  0.1974
  811TIP3    H123848   2.409   6.368  14.607 -1.4715 -0.3671  0.7589
  811TIP3    H223849   2.454   6.285  14.725  0.5532  0.3474  0.5206
  812TIP3   OH223850   1.089   2.856   6.441  0.7242 -0.3451  0.0086
  812TIP3    H123851   1.119   2.935   6.395  0.0426  0.3013  0.6604
  812TIP3    H223852   1.015   2.825   6.389  1.2143 -0.7616 -0.4463
  813TIP3   OH223853   2.397   2.303  16.547 -0.0853 -0.2965  0.1983
  813TIP3    H123854   2.479   2.317  16.499 -1.0251  4.0175 -0.3287
  813TIP3    H223855   2.334   2.276  16.481  0.1082 -0.2905  0.0114
  814TIP3   OH223856   5.560   3.834  13.860 -0.8519 -0.4538 -0.0202
  814TIP3    H123857   5.561   3.759  13.800  1.3211  0.6078 -1.3865
  814TIP3    H223858   5.530   3.907  13.806 -1.4266 -0.0127  0.8876
  815TIP3   OH223859   3.511   1.740  12.864 -0.7208  0.8883  0.7569
  815TIP3    H123860   3.429   1.788  12.867 -0.3192  1.7083 -0.6229
  815TIP3    H223861   3.577   1.806  12.843  0.0723  0.0048  0.3841
  816TIP3   OH223862   2.269   1.060   1.025  0.3015  0.4090 -0.0118
  816TIP3    H123863   2.243   1.047   0.933  0.6642 -0.5102  0.0126
  816TIP3    H223864   2.343   1.119   1.020  1.4612 -1.0445 -0.4531
  817TIP3   OH223865   0.155   6.573  11.237 -0.2850 -0.3133 -0.0741
  817TIP3    H123866   0.196   6.627  11.169  2.8421 -1.1537  1.0463
  817TIP3    H223867   0.076   6.539  11.196 -1.3224  3.5212 -1.4605
  818TIP3   OH223868   5.037   6.422   3.512 -0.0536 -0.3901  0.0039
  818TIP3    H123869   4.941   6.416   3.507 -0.1316  1.2482 -0.7912
  818TIP3    H223870   5.059   6.382   3.596 -1.5965  0.7723  0.9857
  819TIP3   OH223871   0.044   2.046  15.391  0.9211  0.2617 -0.0227
  819TIP3    H123872   0.106   2.067  15.460  0.9114  1.7782 -0.4554
  819TIP3    H223873   0.098   2.020  15.316  0.9795  0.0602  0.0897
  820TIP3   OH223874   0.662   1.435  10.373  0.2397 -0.3458 -0.5514
  820TIP3    H123875   0.747   1.466  10.343 -0.0628 -0.2463 -1.3136
  820TIP3    H223876   0.678   1.401  10.461  0.5329  2.2126  0.4426
  821TIP3   OH223877   6.004   5.161   3.426  0.2450  0.1280 -0.0730
  821TIP3    H123878   6.071   5.100   3.457  0.0873 -0.2870 -0.5510
  821TIP3    H223879   6.051   5.243   3.412  0.3541  0.2753  1.0976
  822TIP3   OH223880   3.468   6.678   5.565  1.3811 -0.3712  0.2863
  822TIP3    H123881   3.497   6.682   5.657  2.2121  0.3127  0.0057
  822TIP3    H223882   3.448   6.769   5.543 -0.1988 -0.7321  0.2190
  823TIP3   OH223883   0.401   4.522  11.811  0.6056 -0.8842 -0.2065
  823TIP3    H123884   0.361   4.444  11.772  0.0570 -0.0123 -1.4046
  823TIP3    H223885   0.327   4.570  11.849  0.8218 -0.4595 -0.3198
  824TIP3   OH223886   5.154   0.720   0.852  0.2391 -0.5367 -0.2293
  824TIP3    H123887   5.100   0.790   0.889 -0.9498 -0.3375 -2.2790
  824TIP3    H223888   5.206   0.689   0.926 -0.7305  1.0938  1.1849
  825TIP3   OH223889   3.260   5.387  12.247  0.8091 -0.0047 -0.0863
  825TIP3    H123890   3.217   5.305  12.221  0.6178 -0.2280  0.9099
  825TIP3    H223891   3.191   5.437  12.291  0.5566  1.2851 -1.8854
  826TIP3   OH223892   4.865   3.714   1.915 -0.4665  0.3491 -0.0821
  826TIP3    H123893   4.858   3.621   1.895  0.7743  0.5008 -1.3438
  826TIP3    H223894   4.875   3.718   2.010  1.4461 -0.9707 -0.1905
  827TIP3   OH223895   2.729   1.212   6.534 -0.0398 -0.0535  0.5696
  827TIP3    H123896   2.661   1.279   6.543 -1.2552 -1.4156  1.8366
  827TIP3    H223897   2.695   1.136   6.582  1.5638 -1.3904 -0.3291
  828TIP3   OH223898   2.658   4.743   3.859 -0.2938 -0.1394 -0.2894
  828TIP3    H123899   2.734   4.700   3.818 -1.3862 -1.4880 -0.9669
  828TIP3    H223900   2.679   4.836   3.858  1.8670 -0.5862  0.6124
  829TIP3   OH223901   5.967   5.745  15.918  0.1877  0.1333  0.6598
  829TIP3    H123902   5.896   5.683  15.934 -1.3289  2.3756  3.0349
  829TIP3    H223903   5.942   5.788  15.836 -0.1929 -0.4382  0.4688
  830TIP3   OH223904   0.661   5.747  11.487 -0.3739  0.5500 -0.1309
  830TIP3    H123905   0.662   5.841  11.503 -1.7082  0.8970 -1.9494
  830TIP3    H223906   0.678   5.738  11.394 -0.5886 -0.9915 -0.0310
  831TIP3   OH223907   3.451   0.812  11.769 -0.3745 -0.0756  0.0415
  831TIP3    H123908   3.383   0.840  11.830 -0.9826 -1.1328 -0.1290
  831TIP3    H223909   3.506   0.752  11.821 -1.2424 -1.4425 -0.6100
  832TIP3   OH223910   2.855   2.912  12.446 -0.2732 -0.0827 -0.0677
  832TIP3    H123911   2.861   2.819  12.469 -0.6639 -0.2732 -0.7118
  832TIP3    H223912   2.853   2.912  12.350  1.8520  0.7183 -0.1261
  833TIP3   OH223913   0.947   5.979   1.231 -0.1927 -0.0824 -0.2329
  833TIP3    H123914   0.935   5.888   1.204 -0.6805 -0.2137  0.3980
  833TIP3    H223915   1.004   5.973   1.308 -0.6044  0.1043  0.0897
  834TIP3   OH223916   4.143   0.484  10.668 -0.8504 -0.1514 -0.0069
  834TIP3    H123917   4.082   0.556  10.649 -0.5227  0.3512  0.8062
  834TIP3    H223918   4.191   0.472  10.586 -0.9231  0.5503 -0.1589
  835TIP3   OH223919   4.665   6.453   4.311 -0.4778 -0.2816  0.2077
  835TIP3    H123920   4.748   6.501   4.317 -0.2878 -0.6604  0.6303
  835TIP3    H223921   4.691   6.366   4.281 -0.8933  0.0935 -1.2780
  836TIP3   OH223922   2.453   5.933   0.162 -0.0134 -0.3615  0.8319
  836TIP3    H123923   2.525   5.952   0.102  0.9113  0.8937  2.3139
  836TIP3    H223924   2.473   5.845   0.196  0.1885 -0.4993  0.3691
  837TIP3   OH223925   0.429   2.046   6.655  0.0252  0.2952  0.5029
  837TIP3    H123926   0.431   2.139   6.632  1.2431  0.3346  0.7391
  837TIP3    H223927   0.351   2.013   6.611  0.5244  1.0686 -0.9911
  838TIP3   OH223928   6.754   5.846   5.725 -0.2057 -0.4725  0.9245
  838TIP3    H123929   6.747   5.793   5.805  1.2307 -0.8357  0.8141
  838TIP3    H223930   6.792   5.787   5.661  0.8161  0.5179  0.6150
  839TIP3   OH223931   4.834   2.802  11.207  0.7322  0.5682  0.2911
  839TIP3    H123932   4.781   2.796  11.286 -1.4018 -0.9982 -1.2006
  839TIP3    H223933   4.836   2.713  11.172  2.1102  1.1246 -1.1136
  840TIP3   OH223934   4.922   1.583   0.707  0.8259  0.2969 -0.6655
  840TIP3    H123935   4.895   1.673   0.690 -1.9176 -0.4230 -0.2749
  840TIP3    H223936   4.993   1.567   0.644  1.5618  2.7955 -0.5299
  841TIP3   OH223937   0.528   4.454   5.762 -0.1742 -0.0780 -0.3850
  841TIP3    H123938   0.506   4.373   5.717 -0.8072 -0.2342  0.1910
  841TIP3    H223939   0.559   4.512   5.693 -3.1387  0.4108 -1.3962
  842TIP3   OH223940   4.159   6.089  15.696 -0.1328 -0.1466 -0.4451
  842TIP3    H123941   4.131   6.141  15.771  0.8643  0.6486 -0.6209
  842TIP3    H223942   4.155   6.150  15.622 -1.2820 -0.9695 -1.0726
  843TIP3   OH223943   0.662   2.030   0.471 -0.2683 -0.3575 -0.0232
  843TIP3    H123944   0.698   2.042   0.558 -0.9678  1.0616  0.0901
  843TIP3    H223945   0.610   1.950   0.477  1.7260 -1.6594  0.1659
  844TIP3   OH223946   5.909   4.107  11.374 -0.2259 -0.1718  0.3175
  844TIP3    H123947   5.920   4.090  11.281  0.1794 -0.1708  0.3631
  844TIP3    H223948   5.844   4.177  11.378 -0.6085 -0.5146  0.0584
  845TIP3   OH223949   2.228   3.298  12.655  0.0378 -0.4276  0.0793
  845TIP3    H123950   2.249   3.214  12.697 -0.1100  0.1552  1.3280
  845TIP3    H223951   2.215   3.359  12.728 -2.1385  0.1557 -0.7742
  846TIP3   OH223952   6.597   2.996  10.630 -0.5497  0.0036  0.3728
  846TIP3    H123953   6.624   3.015  10.720  0.8839 -1.9569  0.3970
  846TIP3    H223954   6.619   3.075  10.581  0.5017  0.3573  1.3736
  847TIP3   OH223955   2.751   1.428   1.325 -0.4933 -0.5080  0.0075
  847TIP3    H123956   2.740   1.356   1.263 -0.5409 -0.2032 -0.3397
  847TIP3    H223957   2.684   1.491   1.300 -0.2002 -0.1741  0.0691
  848TIP3   OH223958   0.224   2.222  12.227  0.7312 -0.1720 -0.2195
  848TIP3    H123959   0.170   2.165  12.172  1.0245  0.8870 -1.6714
  848TIP3    H223960   0.300   2.169  12.249 -0.5146 -1.4108  1.1798
  849TIP3   OH223961   3.012   2.747  14.709 -0.0661  0.0513 -0.3924
  849TIP3    H123962   2.955   2.743  14.632  1.4584  2.2291 -1.6943
  849TIP3    H223963   3.085   2.690  14.689  1.3135  2.1365 -1.4459
  850TIP3   OH223964   4.562   3.136  16.462  1.1406  0.9755 -0.2818
  850TIP3    H123965   4.516   3.161  16.382 -0.8858 -0.4694  0.3926
  850TIP3    H223966   4.643   3.094  16.430 -0.2362 -0.7365 -1.6448
  851TIP3   OH223967   5.717   4.726   3.158  0.0979  0.2236  0.5435
  851TIP3    H123968   5.648   4.684   3.210  1.5852  0.9162  3.1776
  851TIP3    H223969   5.682   4.813   3.137 -0.0898  0.3458  1.3494
  852TIP3   OH223970   0.078   2.370   2.642  0.1285  0.0630  0.2388
  852TIP3    H123971   0.138   2.361   2.716  0.4490 -0.3160 -0.0701
  852TIP3    H223972   0.127   2.340   2.567 -0.5394 -0.5015  0.0266
  853TIP3   OH223973   5.609   2.451  13.482 -0.2989 -0.1145  0.6620
  853TIP3    H123974   5.647   2.402  13.554 -1.9643 -0.9999  0.9790
  853TIP3    H223975   5.516   2.460  13.505 -1.1488 -1.5248 -1.9254
  854TIP3   OH223976   4.538   4.265   3.958  0.0699 -0.4636 -0.0051
  854TIP3    H123977   4.528   4.336   4.022  1.5771  0.8612 -1.1911
  854TIP3    H223978   4.593   4.200   4.002  0.2800 -0.0043  0.4122
  855TIP3   OH223979   5.962   5.088  15.207  0.2434 -0.2247  0.2626
  855TIP3    H123980   5.882   5.109  15.255  0.0800 -1.9517  0.7890
  855TIP3    H223981   5.938   5.012  15.154  0.6735  1.1131 -1.9179
  856TIP3   OH223982   3.777   2.164   5.313  0.4184 -0.2671  0.3195
  856TIP3    H123983   3.764   2.146   5.220  0.9867 -2.3199  0.5993
  856TIP3    H223984   3.846   2.230   5.316  1.1384 -0.9608 -0.6966
  857TIP3   OH223985   4.744   6.300   2.229  0.0336  0.1729 -0.4082
  857TIP3    H123986   4.663   6.346   2.250  0.2848  0.5703 -0.2997
  857TIP3    H223987   4.739   6.218   2.278 -1.0175 -0.5068 -1.6416
  858TIP3   OH223988   3.320   2.625   5.549  0.1133  0.1183  0.2562
  858TIP3    H123989   3.226   2.644   5.547 -0.2495 -1.6521 -1.0074
  858TIP3    H223990   3.325   2.530   5.564  1.5341 -0.6782 -4.4563
  859TIP3   OH223991   1.924   3.718   0.828 -0.3417 -0.2275 -0.2599
  859TIP3    H123992   1.877   3.724   0.745  0.0872 -0.1318 -0.4944
  859TIP3    H223993   2.008   3.761   0.812 -0.1849 -0.3658  0.1713
  860TIP3   OH223994   2.021   6.117  15.963 -0.0500  0.0300 -0.2705
  860TIP3    H123995   2.055   6.065  16.036 -0.3280 -0.9558 -0.8386
  860TIP3    H223996   1.926   6.106  15.966 -0.1412  0.7842 -0.1908
  861TIP3   OH223997   4.429   2.780   2.134  0.5083 -0.0316 -0.3225
  861TIP3    H123998   4.481   2.791   2.055 -0.5253  0.5898 -0.9299
  861TIP3    H223999   4.454   2.694   2.168  0.3835 -0.6389 -1.7589
  862TIP3   OH224000   5.378   3.907   4.467 -0.7179  0.6763 -0.3110
  862TIP3    H124001   5.363   3.822   4.507 -0.0585  0.2753 -0.8949
  862TIP3    H224002   5.364   3.970   4.537  2.5117 -0.1097  1.1472
  863TIP3   OH224003   3.634   3.108  17.106  0.4186 -0.2206 -0.1362
  863TIP3    H124004   3.584   3.094  17.186 -0.3574 -1.4294 -0.8156
  863TIP3    H224005   3.726   3.099  17.133  0.1874 -0.0644  0.7122
  864TIP3   OH224006   6.574   4.944  10.765  0.3799 -0.1364  0.2026
  864TIP3    H124007   6.604   4.946  10.674 -2.0890  1.2565 -0.6570
  864TIP3    H224008   6.500   4.882  10.764  0.5881 -0.4162  1.3551
  865TIP3   OH224009   6.455   3.131  14.408  0.4212 -0.5585 -0.3958
  865TIP3    H124010   6.412   3.093  14.485  1.0584 -0.1653  0.1690
  865TIP3    H224011   6.405   3.210  14.389  0.3833 -0.5484 -0.2570
  866TIP3   OH224012   4.193   5.166   0.315  0.4433 -0.2469  0.0868
  866TIP3    H124013   4.179   5.249   0.270  1.1517 -0.0825  0.1586
  866TIP3    H224014   4.248   5.114   0.256 -0.7818 -1.0359 -0.3726
  867TIP3   OH224015   5.950   0.868  12.713  0.1049  0.2096 -0.4633
  867TIP3    H124016   5.905   0.834  12.791  2.0594 -1.3815  0.0202
  867TIP3    H224017   5.888   0.855  12.642 -0.9073 -0.2718  0.4821
  868TIP3   OH224018   1.926   3.823  16.437  1.3899 -0.3234 -0.8251
  868TIP3    H124019   1.964   3.883  16.500 -2.6955  0.1139  1.4078
  868TIP3    H224020   1.897   3.748  16.489 -2.4952  0.2287 -2.0114
  869TIP3   OH224021   3.726   1.840   2.540 -0.4770 -0.1382  0.1701
  869TIP3    H124022   3.765   1.830   2.453  1.0595  0.4794  0.7702
  869TIP3    H224023   3.659   1.908   2.528 -0.0360  0.1917 -0.4589
  870TIP3   OH224024   6.268   5.539   1.196 -0.2052  0.0843 -0.2154
  870TIP3    H124025   6.251   5.446   1.210  1.1422  0.1198  1.8699
  870TIP3    H224026   6.187   5.583   1.226 -1.2399 -0.4492 -2.1729
  871TIP3   OH224027   2.634   2.286  13.170  0.1864 -0.7770 -0.6192
  871TIP3    H124028   2.726   2.274  13.147 -0.3966 -1.0301 -2.9076
  871TIP3    H224029   2.628   2.377  13.197  0.9427 -0.5092 -1.3402
  872TIP3   OH224030   6.131   6.498   5.828 -0.1541 -0.3926  0.2516
  872TIP3    H124031   6.106   6.588   5.805  1.1919 -0.0390  0.1264
  872TIP3    H224032   6.095   6.444   5.758 -0.4256  0.1157 -0.0049
  873TIP3   OH224033   0.178   0.514   5.876 -0.0700  0.2159 -0.0963
  873TIP3    H124034   0.128   0.513   5.957  0.4991  0.0162  0.2514
  873TIP3    H224035   0.270   0.514   5.904  0.1272  0.6917 -0.7276
  874TIP3   OH224036   3.659   3.960   2.049 -0.5738 -0.2749  0.0071
  874TIP3    H124037   3.620   4.017   1.983  0.8268 -0.6576 -1.1832
  874TIP3    H224038   3.669   3.876   2.005 -3.1448 -1.6603  1.9229
  875TIP3   OH224039   6.377   1.443  12.225  0.2084 -0.0792 -0.2990
  875TIP3    H124040   6.383   1.491  12.308  0.1658 -0.5691 -0.0103
  875TIP3    H224041   6.465   1.406  12.213 -0.3360 -1.7580  0.5983
  876TIP3   OH224042   5.939   0.428   3.266  0.1108 -0.4341  0.5617
  876TIP3    H124043   5.948   0.516   3.302 -0.2400 -0.2942  0.3092
  876TIP3    H224044   6.027   0.389   3.273  0.7071  0.5728 -0.9965
  877TIP3   OH224045   5.224   3.343  12.773 -0.2329  0.1789  1.1477
  877TIP3    H124046   5.158   3.275  12.762 -0.9269  0.9664  0.3522
  877TIP3    H224047   5.181   3.424  12.746  1.9805  0.2494 -2.5838
  878TIP3   OH224048   6.491   5.138   2.095 -0.6540 -0.0576 -0.0993
  878TIP3    H124049   6.485   5.206   2.027  2.5445  2.5763  2.1156
  878TIP3    H224050   6.415   5.155   2.151 -0.5216  0.9455 -0.2069
  879TIP3   OH224051   6.435   3.433   1.252  0.3723 -0.5000  0.5459
  879TIP3    H124052   6.497   3.387   1.308 -1.6689 -1.7417  1.8368
  879TIP3    H224053   6.396   3.365   1.197 -0.3473  0.1535  0.2347
  880TIP3   OH224054   1.382   3.517   4.921 -0.2787  0.2789 -0.4318
  880TIP3    H124055   1.442   3.564   4.864  1.9256 -2.6248 -0.5660
  880TIP3    H224056   1.429   3.508   5.004 -1.8666  0.9006  0.5742
  881TIP3   OH224057   5.856   2.058   0.927  0.3764 -0.2381 -0.6041
  881TIP3    H124058   5.812   2.127   0.977  1.1003 -0.0936 -0.1510
  881TIP3    H224059   5.901   2.105   0.856 -0.0451 -0.3658 -0.9599
  882TIP3   OH224060   3.974   2.638  16.264  0.2464  0.1050 -0.2178
  882TIP3    H124061   3.925   2.635  16.346 -0.0074  1.2090 -0.3298
  882TIP3    H224062   4.044   2.701  16.280  0.1078  0.4366 -0.8920
  883TIP3   OH224063   4.864   1.579   2.743  0.1850 -0.1900 -0.0251
  883TIP3    H124064   4.788   1.527   2.766 -1.7280  2.8274  0.7403
  883TIP3    H224065   4.869   1.574   2.648 -1.0798 -0.2643 -0.0928
  884TIP3   OH224066   6.113   4.619  11.174  0.7948 -0.3663  0.3406
  884TIP3    H124067   6.170   4.559  11.222  1.9374 -0.9309 -1.6518
  884TIP3    H224068   6.127   4.704  11.218  3.0402 -0.5374  0.0441
  885TIP3   OH224069   5.501   0.700  13.079  0.0452  0.3845  0.2250
  885TIP3    H124070   5.406   0.712  13.081 -0.0412 -0.4770  1.6811
  885TIP3    H224071   5.518   0.633  13.145  1.7918  1.4276  0.8486
  886TIP3   OH224072   0.049   5.882   1.637 -0.0212  0.0420  0.0824
  886TIP3    H124073  -0.007   5.839   1.573 -0.4749  0.8389 -0.0629
  886TIP3    H224074  -0.011   5.917   1.703  0.3442  0.3566  0.2534
  887TIP3   OH224075   3.925   6.663   6.069  0.0038 -0.5878 -0.4603
  887TIP3    H124076   4.012   6.669   6.108 -0.8378  0.3281  1.3422
  887TIP3    H224077   3.921   6.736   6.008 -0.4010  0.9747  1.3740
  888TIP3   OH224078   1.610   3.437   1.326 -0.1045 -0.1177  0.6458
  888TIP3    H124079   1.694   3.437   1.281  0.7564 -1.1300  2.2199
  888TIP3    H224080   1.624   3.495   1.402 -1.1850  0.6505  0.2732
  889TIP3   OH224081   6.741   0.258   3.837  0.3936  0.2120 -0.4307
  889TIP3    H124082   6.739   0.324   3.906 -0.0991  0.8727 -1.0777
  889TIP3    H224083   6.810   0.197   3.865  0.1419  0.4225  0.6871
  890TIP3   OH224084   0.412   2.139   0.174  0.0355 -0.5419 -0.3489
  890TIP3    H124085   0.480   2.122   0.239  1.4567  0.6916 -1.4772
  890TIP3    H224086   0.452   2.201   0.113 -1.7807 -0.5300 -1.5671
  891TIP3   OH224087   4.434   2.421  16.521 -0.0127 -0.1146 -0.2137
  891TIP3    H124088   4.491   2.407  16.596  0.3715  0.2898 -0.4268
  891TIP3    H224089   4.356   2.462  16.558 -0.1496 -0.6221  0.0712
  892TIP3   OH224090   2.501   0.959   2.853 -0.1672  0.1341 -0.3179
  892TIP3    H124091   2.482   1.045   2.817  0.7547  0.4181 -0.1352
  892TIP3    H224092   2.426   0.939   2.909 -0.6941  0.5258 -0.8942
  893TIP3   OH224093   4.600   5.634  15.995 -0.1036  0.3914  0.9748
  893TIP3    H124094   4.659   5.653  15.922  0.1859  0.1894  1.1536
  893TIP3    H224095   4.514   5.624  15.955  0.1621 -0.3511  0.5816
  894TIP3   OH224096   0.210   1.988  14.261  0.4145  0.2253  0.0739
  894TIP3    H124097   0.188   2.065  14.313  0.6823  1.4119 -1.5267
  894TIP3    H224098   0.299   1.965  14.289  0.9594  1.4854 -0.5618
  895TIP3   OH224099   5.691   3.975   2.472 -0.0875 -0.1117 -0.0500
  895TIP3    H124100   5.743   3.900   2.442 -0.1893 -0.5161  0.7935
  895TIP3    H224101   5.656   3.949   2.557 -2.3649 -0.1524 -0.9748
  896TIP3   OH224102   1.408   6.095   4.760 -0.1627  0.0076 -0.0978
  896TIP3    H124103   1.447   6.141   4.834  0.7461  0.7116 -0.9951
  896TIP3    H224104   1.317   6.079   4.786  0.3061 -0.2932  1.3970
  897TIP3   OH224105   5.323   4.755   6.081 -0.7573 -0.0062  0.8606
  897TIP3    H124106   5.286   4.784   6.164 -1.3083  0.5233  0.4362
  897TIP3    H224107   5.357   4.668   6.099 -2.8891 -0.8207  1.0882
  898TIP3   OH224108   0.265   0.035  14.831 -0.1471  0.0662  0.0498
  898TIP3    H124109   0.301   0.060  14.916 -0.1953 -1.0816  0.4234
  898TIP3    H224110   0.283  -0.059  14.824 -0.0821  0.1591 -1.2400
  899TIP3   OH224111   0.400   2.856  12.716  0.0121 -0.4574 -0.1950
  899TIP3    H124112   0.368   2.767  12.699  1.2869 -1.0216  0.2959
  899TIP3    H224113   0.409   2.860  12.811 -2.5687  1.1038  0.0242
  900TIP3   OH224114   3.314   2.696   6.105  0.0824 -0.1964 -0.5766
  900TIP3    H124115   3.226   2.709   6.139  0.3403  1.6817 -0.6134
  900TIP3    H224116   3.363   2.662   6.181 -0.4602 -0.4734 -0.3438
  901TIP3   OH224117   3.003   0.877   4.253 -0.1331  0.1091  0.1683
  901TIP3    H124118   3.042   0.920   4.177 -1.2711 -0.4113 -0.7084
  901TIP3    H224119   3.032   0.931   4.327  1.0606  0.5637 -0.6062
  902TIP3   OH224120   3.190   2.033   1.295  0.3808  0.7977  0.1673
  902TIP3    H124121   3.156   2.042   1.206  0.8999  3.3297  0.1823
  902TIP3    H224122   3.273   2.081   1.294  0.8178  0.1237  1.7855
  903TIP3   OH224123   1.559   5.799   5.801  0.3904 -0.7845  0.1152
  903TIP3    H124124   1.521   5.751   5.875  0.0121  0.8973  1.0327
  903TIP3    H224125   1.543   5.891   5.822 -0.2461 -0.3147 -2.3722
  904TIP3   OH224126   2.956   6.280  16.268  1.2112  0.1593  0.3804
  904TIP3    H124127   2.915   6.208  16.314  0.2293  0.3482 -0.1736
  904TIP3    H224128   3.010   6.238  16.201 -0.3051 -0.0764 -0.7420
  905TIP3   OH224129   1.348   1.058   4.599  0.2026  0.6226  0.0968
  905TIP3    H124130   1.284   0.991   4.623  1.2416 -0.6954 -0.7132
  905TIP3    H224131   1.301   1.116   4.539 -0.2594 -0.3324 -0.4824
  906TIP3   OH224132   6.164   0.817   1.019 -0.2331  0.1727  0.4294
  906TIP3    H124133   6.122   0.756   0.958 -1.7921  0.9529  0.7223
  906TIP3    H224134   6.258   0.798   1.009 -0.5592 -0.8084 -1.0362
  907TIP3   OH224135   3.331   2.377   3.169  0.6420  0.2662  0.3931
  907TIP3    H124136   3.399   2.435   3.202  1.0061 -1.4477  2.8021
  907TIP3    H224137   3.372   2.291   3.164 -1.5003 -0.9935  2.7885
  908TIP3   OH224138   4.485   3.505  15.118 -0.6831 -0.1481  0.0854
  908TIP3    H124139   4.482   3.570  15.048 -0.9122 -0.0675  0.1693
  908TIP3    H224140   4.400   3.513  15.162 -1.4075 -1.7100 -0.9868
  909TIP3   OH224141   0.828   0.438  14.994  0.2698 -0.2164 -0.3936
  909TIP3    H124142   0.741   0.445  14.955 -0.8041 -1.8632  1.5982
  909TIP3    H224143   0.869   0.365  14.949  0.9244  1.0293 -1.8505
  910TIP3   OH224144   3.233   3.531  14.985  0.2590 -0.3360 -0.0207
  910TIP3    H124145   3.199   3.448  14.952  0.6400  0.0502 -1.4444
  910TIP3    H224146   3.227   3.524  15.080 -0.6870 -1.5756 -0.1611
  911TIP3   OH224147   6.711   3.193  14.438  0.0190 -0.6316  0.2827
  911TIP3    H124148   6.617   3.173  14.433  0.0389 -1.3733  2.2403
  911TIP3    H224149   6.719   3.282  14.404 -1.1109 -1.2835 -1.7611
  912TIP3   OH224150   1.781   0.428  11.146  0.3605 -0.5183  0.2170
  912TIP3    H124151   1.741   0.450  11.062 -0.8288 -2.0045  0.3722
  912TIP3    H224152   1.711   0.439  11.210  1.2162  0.4537  0.9942
  913TIP3   OH224153   5.636   6.388  13.555 -0.1542  0.3144 -0.4881
  913TIP3    H124154   5.581   6.389  13.477 -1.8404  1.1328  0.6709
  913TIP3    H224155   5.626   6.300  13.591 -0.0342  0.1987 -0.7362
  914TIP3   OH224156   5.887   6.720   1.293 -0.3388  0.2996  0.3095
  914TIP3    H124157   5.887   6.815   1.297  0.0622  0.2742  1.2591
  914TIP3    H224158   5.968   6.695   1.338 -0.4601 -0.4833  0.0998
  915TIP3   OH224159   0.234   1.079   2.595  0.1514 -0.1185 -0.1232
  915TIP3    H124160   0.287   1.001   2.576  1.4918  0.6930  0.1834
  915TIP3    H224161   0.289   1.132   2.653 -1.5347  0.1449  1.2854
  916TIP3   OH224162   3.837   6.661  17.084 -0.4410  0.1344 -0.2011
  916TIP3    H124163   3.899   6.594  17.112 -0.6090 -0.2112 -0.6536
  916TIP3    H224164   3.875   6.743  17.113  1.5160  0.1719 -2.7118
  917TIP3   OH224165   1.871   2.364   3.284  0.0919  0.8041  0.2088
  917TIP3    H124166   1.849   2.302   3.353  4.4564 -1.2915 -0.1540
  917TIP3    H224167   1.854   2.317   3.203  1.5426  0.7727 -0.0834
  918TIP3   OH224168   3.552   1.882  13.142 -0.4336 -0.1459  0.7462
  918TIP3    H124169   3.523   1.973  13.145 -1.2160 -0.2063 -3.0412
  918TIP3    H224170   3.611   1.877  13.068 -0.2016 -2.6863  1.0445
  919TIP3   OH224171   5.478   1.339  14.978 -0.3961  0.2134 -0.0854
  919TIP3    H124172   5.550   1.278  14.961 -0.5119 -0.2736  1.1439
  919TIP3    H224173   5.436   1.305  15.057 -2.1167  0.3547 -0.9134
  920TIP3   OH224174   5.652   2.117   2.054 -0.3763 -0.4573 -0.4936
  920TIP3    H124175   5.710   2.149   1.985 -1.1442  0.2570 -0.8302
  920TIP3    H224176   5.565   2.118   2.014 -1.0583  1.4657  0.9632
  921TIP3   OH224177   5.490   2.114  17.161  0.3472  0.1826  0.3347
  921TIP3    H124178   5.551   2.041  17.164 -1.4658 -1.3646  0.2431
  921TIP3    H224179   5.444   2.111  17.245 -0.4984  0.5342 -0.1117
  922TIP3   OH224180   3.347   4.842   6.815  0.5779  0.3113 -0.6503
  922TIP3    H124181   3.328   4.748   6.825  0.5476 -0.1617 -4.4856
  922TIP3    H224182   3.441   4.848   6.828  0.5919 -0.2476 -0.4475
  923TIP3   OH224183   3.278   1.866   2.642 -0.2205 -0.0878  0.1392
  923TIP3    H124184   3.336   1.829   2.708 -0.2602  2.3782  1.6321
  923TIP3    H224185   3.216   1.796   2.622  0.8917 -1.4623  1.3998
  924TIP3   OH224186   3.621   4.672   0.349 -0.1577  0.0768  0.0495
  924TIP3    H124187   3.592   4.608   0.414 -0.7784  0.3056 -0.0032
  924TIP3    H224188   3.651   4.747   0.401 -0.8257  0.3329  0.0718
  925TIP3   OH224189   4.710   4.922   4.397  0.4976 -0.0060 -0.0624
  925TIP3    H124190   4.722   4.855   4.465  1.2589  0.2803  0.0880
  925TIP3    H224191   4.740   4.879   4.317  0.1459 -0.1489 -0.1166
  926TIP3   OH224192   4.059   4.606  12.604 -0.4555  0.0342 -0.7214
  926TIP3    H124193   4.044   4.521  12.562 -1.1403  0.0141 -0.4566
  926TIP3    H224194   4.129   4.647  12.552 -1.0801 -0.1149 -1.7098
  927TIP3   OH224195   0.152   4.542   3.011  0.0841  0.2113  0.6185
  927TIP3    H124196   0.074   4.546   2.956  0.3049 -0.0514  0.2833
  927TIP3    H224197   0.225   4.538   2.949  0.4634  2.0307  0.9163
  928TIP3   OH224198   0.063   3.349   4.482 -0.5359  0.3646  0.1920
  928TIP3    H124199   0.147   3.321   4.445 -1.4185  0.2123 -1.7415
  928TIP3    H224200   0.065   3.444   4.477 -0.4483  0.3655  0.2395
  929TIP3   OH224201   4.735   4.028  14.863 -0.2475  0.1650  0.3491
  929TIP3    H124202   4.730   4.048  14.769 -0.8229 -0.1396  0.3137
  929TIP3    H224203   4.744   4.114  14.905 -2.3023  0.4981  0.1699
  930TIP3   OH224204   2.080   6.048   2.139  0.2594  0.2062 -0.1486
  930TIP3    H124205   2.014   6.116   2.127  0.7393  1.0394  1.7213
  930TIP3    H224206   2.081   6.032   2.233  1.4027 -1.1396 -0.3729
  931TIP3   OH224207   0.135   4.985   2.231  0.3882 -0.2995 -0.0582
  931TIP3    H124208   0.167   5.033   2.154  0.3771 -1.5559 -0.8649
  931TIP3    H224209   0.049   4.952   2.205 -0.7121  1.3318  1.3866
  932TIP3   OH224210   3.098   4.960  13.674 -0.3052 -0.1507  0.1263
  932TIP3    H124211   3.181   4.915  13.686 -1.2635 -1.7030  1.0289
  932TIP3    H224212   3.068   4.933  13.588  0.4235  0.9223 -0.4733
  933TIP3   OH224213   0.887   4.375  10.499  0.1183  0.3288 -0.3760
  933TIP3    H124214   0.926   4.461  10.514 -1.4311  1.5703 -3.0413
  933TIP3    H224215   0.959   4.321  10.465  0.8130  0.8841  0.1926
  934TIP3   OH224216   4.056   6.066  11.534 -0.8032  0.3468  1.1055
  934TIP3    H124217   4.034   5.979  11.502  1.7609 -1.6452  4.3838
  934TIP3    H224218   4.099   6.110  11.461 -1.0416 -1.5634 -0.1948
  935TIP3   OH224219   3.445   1.411   5.645  0.2212  0.5538 -0.1613
  935TIP3    H124220   3.354   1.387   5.666 -0.0520 -0.8026 -2.7648
  935TIP3    H224221   3.442   1.506   5.637 -0.2547  0.8682  2.8955
  936TIP3   OH224222   0.231   3.674  15.608  0.1006  0.1135  0.3832
  936TIP3    H124223   0.250   3.765  15.628 -3.0022  0.5994  1.3292
  936TIP3    H224224   0.254   3.626  15.688  1.4988  0.0719 -0.0300
  937TIP3   OH224225   4.980   4.356   1.296  0.3119  0.1892 -0.0617
  937TIP3    H124226   5.075   4.355   1.307  0.2571  0.5723  0.5171
  937TIP3    H224227   4.947   4.385   1.382 -0.3847 -1.0954  0.1081
  938TIP3   OH224228   0.645   1.768   0.592 -0.0184 -0.5675 -0.3452
  938TIP3    H124229   0.573   1.791   0.651  1.2570  0.0936  0.9787
  938TIP3    H224230   0.681   1.687   0.628  0.3025 -0.5625 -0.6476
  939TIP3   OH224231   2.504   3.000   3.698 -0.1081  0.1325  0.1029
  939TIP3    H124232   2.482   2.939   3.628  1.2863 -2.9172  2.1998
  939TIP3    H224233   2.419   3.025   3.737 -0.5705 -2.9245  1.1623
  940TIP3   OH224234   5.009   1.582   1.366 -0.0358  0.0086 -0.1918
  940TIP3    H124235   5.062   1.522   1.313  1.2024 -0.3547  1.4334
  940TIP3    H224236   5.028   1.669   1.331  1.0924 -0.1874 -0.0913
  941TIP3   OH224237   2.215   0.554  16.064  0.0467 -0.0079 -0.1840
  941TIP3    H124238   2.158   0.479  16.047  0.4362 -0.3417 -0.0212
  941TIP3    H224239   2.169   0.604  16.131  0.1092 -0.4621  0.2033
  942TIP3   OH224240   0.032   4.610   2.056 -0.2332 -0.1333  0.2703
  942TIP3    H124241   0.039   4.559   2.137  2.3763  2.4215  1.7602
  942TIP3    H224242  -0.025   4.683   2.079  0.1110  0.3267 -0.3239
  943TIP3   OH224243   1.602   5.242  16.885 -0.3808  0.1342 -0.5828
  943TIP3    H124244   1.596   5.151  16.854 -1.6811  0.7582 -2.2136
  943TIP3    H224245   1.535   5.249  16.953 -0.8220  0.1079 -1.0192
  944TIP3   OH224246   0.784   6.685   0.566  0.2205 -0.3766 -0.4067
  944TIP3    H124247   0.840   6.673   0.489  1.3294 -1.0162  0.4702
  944TIP3    H224248   0.723   6.611   0.562 -0.3178  0.0933 -1.1437
  945TIP3   OH224249   5.148   6.766  14.592  0.3664 -0.1976  0.1084
  945TIP3    H124250   5.124   6.675  14.576  0.2495 -0.2298  0.4599
  945TIP3    H224251   5.069   6.816  14.569  0.6632 -0.1271 -0.7483
  946TIP3   OH224252   4.462   4.929   6.793 -0.4154  0.3617  0.4295
  946TIP3    H124253   4.415   4.881   6.725  0.6268  0.6200 -0.4728
  946TIP3    H224254   4.540   4.876   6.809  0.4842  1.4873 -0.2001
  947TIP3   OH224255   2.229   4.119  14.678  0.0019 -0.0113 -0.0242
  947TIP3    H124256   2.188   4.147  14.596 -0.0408 -0.3268 -0.1104
  947TIP3    H224257   2.155   4.096  14.735  0.0122  0.7251  0.2912
  948TIP3   OH224258   4.236   2.593   3.624  0.6731 -0.2016  0.0665
  948TIP3    H124259   4.261   2.639   3.704 -0.5304 -0.3790  0.5552
  948TIP3    H224260   4.279   2.507   3.631  0.2437 -0.3713  0.7299
  949TIP3   OH224261   1.148   2.034   5.897 -0.4050  0.2819 -0.1982
  949TIP3    H124262   1.057   2.043   5.869  0.1672  1.2862 -1.8021
  949TIP3    H224263   1.160   1.939   5.909 -0.9617 -0.1048 -2.4372
  950TIP3   OH224264   5.848   1.753  14.242 -0.3714 -0.0176  0.5042
  950TIP3    H124265   5.789   1.825  14.219  1.9017  1.6089 -0.4317
  950TIP3    H224266   5.800   1.674  14.220 -1.9790  1.2897 -0.7809
  951TIP3   OH224267   2.770   6.672   0.164  0.2054  0.4249 -0.2626
  951TIP3    H124268   2.712   6.598   0.182  1.2703 -0.5741 -0.8129
  951TIP3    H224269   2.711   6.746   0.149 -0.9074 -0.4684 -0.3806
  952TIP3   OH224270   5.742   1.907   1.767 -0.2243 -0.3911 -0.3469
  952TIP3    H124271   5.690   1.874   1.693  0.8449  0.3728 -1.4698
  952TIP3    H224272   5.755   1.999   1.747 -0.4838 -0.0263  1.1507
  953TIP3   OH224273   0.774   0.705   2.339 -0.3601 -0.3381 -0.3461
  953TIP3    H124274   0.723   0.752   2.273 -0.8524 -0.8415 -0.3341
  953TIP3    H224275   0.807   0.627   2.292 -0.1069 -0.3236 -0.1925
  954TIP3   OH224276   0.610   6.681   4.208  0.1317  0.4457  0.4089
  954TIP3    H124277   0.628   6.675   4.302 -1.1570 -1.5721  0.5684
  954TIP3    H224278   0.562   6.763   4.198  2.3063  1.8340  1.1502
  955TIP3   OH224279   5.796   2.479   2.603  0.6111  0.0069  0.6151
  955TIP3    H124280   5.743   2.540   2.653 -1.0701  1.3278 -2.6466
  955TIP3    H224281   5.864   2.533   2.562  1.4762 -0.9205  0.7903
  956TIP3   OH224282   1.487   6.714  14.459  0.1421 -0.0186 -0.0533
  956TIP3    H124283   1.522   6.628  14.482 -3.6796 -1.2105  1.6912
  956TIP3    H224284   1.459   6.752  14.542 -0.8093  1.7023 -1.1404
  957TIP3   OH224285   0.004   0.161   1.446  0.4328 -0.2214  0.6857
  957TIP3    H124286  -0.052   0.223   1.399  1.8286  0.2746 -0.3637
  957TIP3    H224287  -0.033   0.158   1.534 -1.1394  0.2168  0.0606
  958TIP3   OH224288   0.678   4.903   4.616 -0.0900 -0.2130 -0.0012
  958TIP3    H124289   0.615   4.954   4.565 -0.3712 -2.1557 -1.6643
  958TIP3    H224290   0.744   4.876   4.553  1.1727 -0.1731  1.2721
  959TIP3   OH224291   0.915   2.200   3.067  0.0772 -0.2490 -0.0200
  959TIP3    H124292   0.874   2.286   3.080 -0.6784 -0.5974 -0.1115
  959TIP3    H224293   0.962   2.183   3.148 -1.6716 -0.7893  0.8990
  960TIP3   OH224294   2.985   6.655   3.123  0.1505 -0.1657 -0.2070
  960TIP3    H124295   2.929   6.733   3.122 -0.1843 -0.3721  1.1101
  960TIP3    H224296   3.059   6.678   3.066  1.8643  2.4841  2.9058
  961TIP3   OH224297   0.595   3.302  15.280  0.1878  0.1618  0.2610
  961TIP3    H124298   0.668   3.329  15.334  1.1064  1.0687 -1.3757
  961TIP3    H224299   0.620   3.327  15.191 -2.4922  1.3536 -0.2215
  962TIP3   OH224300   5.956   1.420  12.093  0.5116  0.8479 -0.0442
  962TIP3    H124301   5.935   1.499  12.143  1.8158  0.6687  0.8151
  962TIP3    H224302   5.892   1.419  12.022  0.4029  2.6111  0.0089
  963TIP3   OH224303   2.471   3.247  12.184  0.1112 -0.2809  0.1149
  963TIP3    H124304   2.452   3.278  12.095  0.8037  0.4568  0.2271
  963TIP3    H224305   2.525   3.315  12.222 -0.3666 -0.4995  1.1890
  964TIP3   OH224306   6.416   1.426  13.664  0.0967  0.0459  0.2911
  964TIP3    H124307   6.423   1.473  13.581  0.2172  1.1234  0.8970
  964TIP3    H224308   6.506   1.418  13.695  0.1786 -1.5048 -0.2913
  965TIP3   OH224309   2.888   0.555  11.173  0.3270 -0.3056  1.5650
  965TIP3    H124310   2.934   0.624  11.221 -0.2570 -0.0639  1.7782
  965TIP3    H224311   2.910   0.570  11.082 -0.3263  0.5522  1.5530
  966TIP3   OH224312   0.993   3.602   4.712 -0.1530  0.0212  0.2284
  966TIP3    H124313   1.055   3.567   4.649  0.1062  0.9548 -0.0437
  966TIP3    H224314   0.908   3.567   4.685 -0.2147  1.3257 -1.3308
  967TIP3   OH224315   1.098   5.566  15.574  0.2706 -0.4708 -0.6509
  967TIP3    H124316   1.115   5.591  15.665  0.9683  0.6173 -1.0657
  967TIP3    H224317   1.175   5.515  15.548  0.5220  0.0243 -0.9073
  968TIP3   OH224318   4.048   6.120  13.819 -1.1607  0.3311 -0.9175
  968TIP3    H124319   4.119   6.128  13.882 -1.0214  1.0914 -1.1676
  968TIP3    H224320   4.079   6.167  13.741 -2.0838  0.9805 -0.9050
  969TIP3   OH224321   5.955   1.354   5.020  0.0911 -0.2249 -0.2647
  969TIP3    H124322   5.960   1.437   5.067 -0.9026 -1.5978  2.3967
  969TIP3    H224323   6.040   1.314   5.033 -0.3400 -0.8139  0.8222
  970TIP3   OH224324   2.060   4.583  15.658 -0.7136  1.0895  0.3441
  970TIP3    H124325   1.973   4.582  15.698 -0.6907 -0.1255  0.3723
  970TIP3    H224326   2.046   4.548  15.570 -0.1370  0.1776  0.6084
  971TIP3   OH224327   0.420   3.866   5.750 -0.8397  0.7918 -0.5635
  971TIP3    H124328   0.405   3.777   5.782  0.4422  0.8820  0.3216
  971TIP3    H224329   0.348   3.917   5.787 -0.5822  0.4683  0.4134
  972TIP3   OH224330   3.944   6.524  10.586 -0.5133 -0.4526  0.0240
  972TIP3    H124331   3.968   6.462  10.655 -1.1493 -2.5438 -1.5719
  972TIP3    H224332   4.028   6.562  10.558 -0.2195  0.1535  1.6606
  973TIP3   OH224333   2.285   1.756   3.467 -0.2406 -0.9469 -0.0016
  973TIP3    H124334   2.274   1.786   3.558  1.9703 -1.8783  0.5861
  973TIP3    H224335   2.265   1.834   3.414 -1.4286 -0.3630  1.2744
  974TIP3   OH224336   5.320   6.728   1.883 -0.9285 -0.5055  0.5877
  974TIP3    H124337   5.277   6.697   1.804  0.2777 -1.8225  0.4250
  974TIP3    H224338   5.413   6.709   1.869 -0.7609 -1.2590  2.5145
  975TIP3   OH224339   4.759   3.033  13.106  0.4324  0.0194 -0.3085
  975TIP3    H124340   4.835   3.002  13.156 -0.4493 -3.3898 -0.9472
  975TIP3    H224341   4.782   3.013  13.015  0.0434  1.8274 -0.8102
  976TIP3   OH224342   0.521   1.247   5.254 -0.1168 -0.0308 -0.3109
  976TIP3    H124343   0.528   1.298   5.335 -1.1344 -0.6253  0.1623
  976TIP3    H224344   0.601   1.269   5.205  1.1308 -0.6334  1.3964
  977TIP3   OH224345   6.305   4.622  15.568  0.7627  0.3853 -0.3429
  977TIP3    H124346   6.360   4.564  15.515 -0.4772 -0.7709 -0.3959
  977TIP3    H224347   6.263   4.680  15.504 -0.8487 -1.1068 -0.6870
  978TIP3   OH224348   2.620   5.459  12.907 -0.0067  0.0551 -0.1826
  978TIP3    H124349   2.644   5.544  12.944 -1.5356  0.2728  0.3499
  978TIP3    H224350   2.562   5.480  12.834  0.2182 -0.5123 -0.5313
  979TIP3   OH224351   0.829   2.404  13.258  0.3765 -0.4277 -0.6098
  979TIP3    H124352   0.858   2.403  13.349  0.6239  0.1307 -0.6765
  979TIP3    H224353   0.734   2.414  13.262  0.5378  1.0635 -0.4337
  980TIP3   OH224354   3.835   6.592  12.740 -0.1851 -0.6098 -0.6564
  980TIP3    H124355   3.770   6.521  12.742 -0.7644 -0.0766 -0.5316
  980TIP3    H224356   3.785   6.670  12.763  0.4617 -0.1634 -0.7834
  981TIP3   OH224357   3.867   0.695   2.813 -0.5853  0.0776  0.2571
  981TIP3    H124358   3.794   0.756   2.824 -0.6050  0.0958  0.0177
  981TIP3    H224359   3.866   0.671   2.720  0.2903  0.8052  0.0547
  982TIP3   OH224360   2.837   0.093  17.234 -0.0572  0.6000  0.5135
  982TIP3    H124361   2.856   0.016  17.288  2.0138  0.8883  0.2074
  982TIP3    H224362   2.872   0.167  17.283  1.4079  0.9170 -0.9745
  983TIP3   OH224363   5.826   4.939  11.939  0.4146 -0.0452  0.6335
  983TIP3    H124364   5.753   4.949  11.879  1.6140  1.0438 -0.7089
  983TIP3    H224365   5.791   4.890  12.013 -2.0635  1.8325  0.7494
  984TIP3   OH224366   0.362   5.639  14.159 -0.5239 -0.2709  0.5772
  984TIP3    H124367   0.455   5.659  14.170 -0.6155  0.7764 -0.4355
  984TIP3    H224368   0.356   5.545  14.172  0.6155 -0.2793  1.0802
  985TIP3   OH224369   5.354   1.366  16.346 -0.1386  0.5817  0.2159
  985TIP3    H124370   5.311   1.329  16.423  0.3321  1.2862  0.8302
  985TIP3    H224371   5.296   1.438  16.318  0.1972  0.9722  0.5216
  986TIP3   OH224372   5.820   4.706   2.390  0.2106  0.1407  0.0224
  986TIP3    H124373   5.760   4.771   2.425 -0.5617 -0.0070 -0.9922
  986TIP3    H224374   5.765   4.631   2.369  0.4491  0.6137 -2.4674
  987TIP3   OH224375   6.401   0.811  13.292 -0.5087 -0.3208  0.4927
  987TIP3    H124376   6.354   0.791  13.211 -0.9301  1.6588  0.2411
  987TIP3    H224377   6.336   0.800  13.361 -0.7156  0.1015  0.3639
  988TIP3   OH224378   6.782   4.685   5.511 -0.1925 -0.2521  0.1463
  988TIP3    H124379   6.692   4.670   5.540 -0.1124 -1.2880 -0.1261
  988TIP3    H224380   6.836   4.661   5.586 -0.1631  0.9641  0.5253
  989TIP3   OH224381   6.400   5.173   2.894  0.5817  0.0515 -0.1714
  989TIP3    H124382   6.433   5.212   2.975 -0.5082  0.5642  0.0401
  989TIP3    H224383   6.477   5.134   2.853  1.2528  0.3142  0.8156
  990TIP3   OH224384   5.390   4.617  16.499 -0.4083 -0.4427 -0.3733
  990TIP3    H124385   5.317   4.593  16.442 -0.6927  0.8325 -0.5556
  990TIP3    H224386   5.406   4.709  16.480  0.1321 -0.2617  0.9118
  991TIP3   OH224387   0.393   0.877   2.510 -0.3375 -0.3942 -0.0355
  991TIP3    H124388   0.411   0.939   2.438  0.0751  0.7300  1.0085
  991TIP3    H224389   0.422   0.792   2.476 -1.9378 -0.2206 -1.9091
  992TIP3   OH224390   0.223   5.590  11.457  0.2960  0.3244 -0.5318
  992TIP3    H124391   0.171   5.512  11.439 -0.0487  0.3745  0.2328
  992TIP3    H224392   0.174   5.636  11.526  0.9903  0.7281 -0.3083
  993TIP3   OH224393   5.697   0.463  13.169 -0.0530  0.3759 -0.8652
  993TIP3    H124394   5.734   0.433  13.252 -0.4252 -1.7311 -1.4365
  993TIP3    H224395   5.773   0.493  13.118  0.7293 -2.4028 -1.4027
  994TIP3   OH224396   2.724   0.611  14.115  0.5956 -0.0678  0.6373
  994TIP3    H124397   2.689   0.588  14.029  0.5495 -0.4536  0.7584
  994TIP3    H224398   2.664   0.677  14.149  0.0000 -0.7076  0.8327
  995TIP3   OH224399   6.664   3.347  16.312 -0.4635  0.2564 -0.4800
  995TIP3    H124400   6.657   3.256  16.283 -1.7571  0.7001 -1.6517
  995TIP3    H224401   6.749   3.353  16.354 -0.9539 -1.8550  0.9125
  996TIP3   OH224402   3.229   2.289   2.930 -0.5249 -0.2391 -0.4757
  996TIP3    H124403   3.227   2.222   2.999 -3.5561 -0.3568 -0.5996
  996TIP3    H224404   3.243   2.371   2.977  0.1203 -0.6064 -0.0126
  997TIP3   OH224405   4.303   6.393  16.314 -0.1830 -0.4785 -0.1651
  997TIP3    H124406   4.323   6.345  16.234 -1.2632  0.5867 -1.0954
  997TIP3    H224407   4.350   6.475  16.306  0.1860 -0.6163  0.5735
  998TIP3   OH224408   5.254   1.287  10.952 -0.6327 -0.1561  0.3146
  998TIP3    H124409   5.212   1.358  11.001 -1.5997 -0.4915 -0.0247
  998TIP3    H224410   5.203   1.280  10.871  1.1589  0.6342 -0.9253
  999TIP3   OH224411   4.697   1.690   5.925  0.2216 -0.1460 -0.2482
  999TIP3    H124412   4.649   1.738   5.992  1.5011  0.9280 -0.0738
  999TIP3    H224413   4.787   1.687   5.958  0.2233 -2.4889 -0.3538
 1000TIP3   OH224414   6.122   2.280  14.481 -0.2018 -0.6840  0.6538
 1000TIP3    H124415   6.054   2.288  14.415 -1.2822 -2.8101  1.4780
 1000TIP3    H224416   6.082   2.313  14.562  0.7994  1.0101  0.4977
 1001TIP3   OH224417   2.776   5.688  14.425 -0.2656  0.1146  0.1990
 1001TIP3    H124418   2.701   5.695  14.484  0.4748  1.0148  1.0502
 1001TIP3    H224419   2.750   5.622  14.361 -0.6109 -1.8248  2.2709
 1002TIP3   OH224420   1.301   3.304  13.959 -0.2293 -0.4981 -0.1028
 1002TIP3    H124421   1.264   3.356  14.030  0.3195  1.6353 -1.3272
 1002TIP3    H224422   1.373   3.357  13.925 -0.2713 -1.6073 -2.0322
 1003TIP3   OH224423   2.025   5.668  12.729  0.0618 -0.1774 -0.3895
 1003TIP3    H124424   2.064   5.680  12.642 -1.3135  0.2083 -0.9651
 1003TIP3    H224425   2.015   5.573  12.737 -1.8622 -0.1044 -1.5977
 1004TIP3   OH224426   6.387   4.772   5.812  0.1824 -0.2886  0.6782
 1004TIP3    H124427   6.310   4.829   5.806  0.2916 -0.1383  0.7022
 1004TIP3    H224428   6.395   4.733   5.725  0.5744  0.3435  0.4256
 1005TIP3   OH224429   3.239   1.639   0.862 -0.1759 -0.5424 -0.2174
 1005TIP3    H124430   3.296   1.621   0.787 -1.1444 -1.8961 -0.6510
 1005TIP3    H224431   3.237   1.734   0.869 -0.4862 -0.3841 -2.2355
 1006TIP3   OH224432   3.905   3.041   2.894  0.6581  0.2817  0.6542
 1006TIP3    H124433   3.987   3.038   2.944  0.6092  1.2474  0.7984
 1006TIP3    H224434   3.901   3.130   2.860  0.7083 -0.3787 -1.1175
 1007TIP3   OH224435   3.295   6.701  15.730  0.2702 -0.1980  0.2036
 1007TIP3    H124436   3.345   6.782  15.717 -0.3886  0.2941  0.6877
 1007TIP3    H224437   3.349   6.633  15.691  0.4922  0.5884 -0.9039
 1008TIP3   OH224438   4.845   0.582  15.547 -0.0720  0.7916 -0.2712
 1008TIP3    H124439   4.890   0.511  15.501 -1.9216 -0.9744  0.5677
 1008TIP3    H224440   4.899   0.599  15.625  0.1949  0.0809 -0.3046
 1009TIP3   OH224441   5.953   2.077  14.874  0.0646 -0.4113  0.1735
 1009TIP3    H124442   6.011   2.131  14.928 -0.0559  0.5236 -0.6215
 1009TIP3    H224443   5.883   2.050  14.934  1.4542 -1.7741  1.2015
 1010TIP3   OH224444   5.573   6.477  17.061 -0.1506 -0.2420  0.2160
 1010TIP3    H124445   5.510   6.541  17.029 -0.7363 -0.8123  0.2241
 1010TIP3    H224446   5.658   6.520  17.050 -0.5796  0.7746  0.7819
 1011TIP3   OH224447   0.346   5.206   1.459 -0.4882  0.5643 -0.1623
 1011TIP3    H124448   0.433   5.179   1.429 -1.2769 -0.0614 -1.9631
 1011TIP3    H224449   0.288   5.135   1.431 -1.5094  0.7026  1.5317
 1012TIP3   OH224450   5.771   6.441   5.674 -0.2905 -0.2635 -0.0355
 1012TIP3    H124451   5.736   6.498   5.742 -1.0957 -1.1705  0.3050
 1012TIP3    H224452   5.695   6.398   5.637  0.3819 -1.6401  0.1628
 1013TIP3   OH224453   3.385   1.745   3.031  0.1069  0.1789 -0.1787
 1013TIP3    H124454   3.386   1.757   2.936  0.0229  0.9631 -0.0790
 1013TIP3    H224455   3.476   1.753   3.057  0.6546 -3.5765 -0.6240
 1014TIP3   OH224456   1.550   5.116   0.342 -0.1896  0.7826 -0.2524
 1014TIP3    H124457   1.463   5.155   0.339 -0.1977  0.8336  0.5760
 1014TIP3    H224458   1.595   5.161   0.413 -0.0083 -0.3054  0.3352
 1015TIP3   OH224459   0.223   1.261   0.633  0.1224 -0.1659  0.1190
 1015TIP3    H124460   0.239   1.181   0.683 -0.7170  0.3256  1.2038
 1015TIP3    H224461   0.207   1.232   0.543 -0.8387 -1.2639  0.6461
 1016TIP3   OH224462   5.664   5.371   3.366  0.2864 -0.9533  0.4231
 1016TIP3    H124463   5.716   5.450   3.378  1.0846 -1.4966  0.5189
 1016TIP3    H224464   5.597   5.396   3.302 -1.6616  0.8380  3.0700
 1017TIP3   OH224465   4.488   0.673  12.126 -0.2608 -0.7568 -0.0442
 1017TIP3    H124466   4.503   0.696  12.035  0.4866 -0.8600  0.0548
 1017TIP3    H224467   4.437   0.591  12.122 -1.7232  0.1440 -0.3788
 1018TIP3   OH224468   3.327   5.400   6.841  0.5530 -0.2149  0.3614
 1018TIP3    H124469   3.310   5.402   6.936 -2.0483 -0.7429 -0.0550
 1018TIP3    H224470   3.327   5.308   6.818  2.7073 -0.1708  0.0582
 1019TIP3   OH224471   0.720   6.531   1.098  0.0650 -0.1648 -0.6429
 1019TIP3    H124472   0.637   6.571   1.071 -0.6785 -0.6420  0.8239
 1019TIP3    H224473   0.772   6.603   1.133 -0.1311 -0.0143 -0.6615
 1020TIP3   OH224474   1.019   2.950  12.258 -0.5691  0.6340 -0.0086
 1020TIP3    H124475   1.044   2.888  12.326 -0.5357  1.9956  1.2509
 1020TIP3    H224476   0.927   2.970  12.275  0.0160  2.6172  0.9754
 1021TIP3   OH224477   0.775   2.183   5.933  0.1812 -0.2258  0.1976
 1021TIP3    H124478   0.829   2.252   5.895  0.0874  1.2965  2.7002
 1021TIP3    H224479   0.799   2.182   6.026 -1.2732 -2.2025  0.5955
 1022TIP3   OH224480   0.107   0.653  13.262  0.3022 -0.5429 -0.4628
 1022TIP3    H124481   0.191   0.698  13.261  0.0246 -0.0083  0.3135
 1022TIP3    H224482   0.042   0.722  13.276 -0.2949 -0.9194 -1.2684
 1023TIP3   OH224483   5.195   6.449   1.090 -0.1580  0.2431 -0.2039
 1023TIP3    H124484   5.270   6.507   1.072  0.2150 -0.5840 -1.3455
 1023TIP3    H224485   5.133   6.468   1.019  0.0121 -0.8171 -0.6449
 1024TIP3   OH224486   3.907   3.073  15.793  0.3703 -0.3375 -0.6332
 1024TIP3    H124487   3.823   3.117  15.807  0.5037 -0.4549  0.5982
 1024TIP3    H224488   3.923   3.025  15.874  1.6758 -0.2270 -0.8073
 1025TIP3   OH224489   0.240   2.062   2.531 -0.4128  0.3881  0.0908
 1025TIP3    H124490   0.276   2.013   2.457 -0.6204  1.5967 -0.8179
 1025TIP3    H224491   0.148   2.076   2.509 -0.5137  0.6148  0.6489
 1026TIP3   OH224492   5.577   4.006  16.006 -0.3514  0.8178  0.1813
 1026TIP3    H124493   5.530   3.930  16.040  2.1355 -0.5444  0.7157
 1026TIP3    H224494   5.508   4.067  15.979 -2.3919 -0.6902  1.8162
 1027TIP3   OH224495   2.109   4.863  15.418  0.1250  0.2328 -0.0377
 1027TIP3    H124496   2.157   4.919  15.479 -0.2434  2.0083 -1.3107
 1027TIP3    H224497   2.168   4.852  15.344 -0.4295  0.2749 -0.4874
 1028TIP3   OH224498   2.564   2.444   2.888  0.1551  0.6363 -0.2334
 1028TIP3    H124499   2.518   2.429   2.806 -0.2296  2.1173 -0.2989
 1028TIP3    H224500   2.502   2.494   2.942  1.1316  1.3614  0.2261
 1029TIP3   OH224501   6.346   6.447  15.441 -0.4749  0.4043  0.3074
 1029TIP3    H124502   6.252   6.433  15.457 -1.0973  2.0667 -1.7358
 1029TIP3    H224503   6.364   6.533  15.479  0.1442  0.2658  0.3298
 1030TIP3   OH224504   0.977   4.205  13.079  0.4248 -0.2677  0.6623
 1030TIP3    H124505   0.933   4.289  13.067 -0.4886 -0.9076 -0.5118
 1030TIP3    H224506   1.034   4.196  13.003 -1.1195 -1.7161 -0.3508
 1031TIP3   OH224507   6.734   1.721  14.366 -0.0330  0.3830 -0.1706
 1031TIP3    H124508   6.812   1.762  14.405 -0.2439  0.3440  0.2979
 1031TIP3    H224509   6.760   1.630  14.351  0.7919  0.9476 -2.2037
 1032TIP3   OH224510   4.162   1.906  14.899 -0.1858 -0.0962  0.7222
 1032TIP3    H124511   4.196   1.827  14.856  0.1341  0.3859  0.0776
 1032TIP3    H224512   4.237   1.940  14.949 -0.0214  0.3768  0.1586
 1033TIP3   OH224513   1.986   0.044  15.940 -0.0763 -0.1909 -0.1997
 1033TIP3    H124514   1.920   0.100  15.901  0.2545  0.3246 -0.0272
 1033TIP3    H224515   1.993   0.075  16.031 -2.4145 -2.7826  0.9456
 1034TIP3   OH224516   2.621   1.892  16.419 -0.1013  0.3946 -0.0623
 1034TIP3    H124517   2.642   1.950  16.347  0.6588  1.4933  1.0374
 1034TIP3    H224518   2.704   1.850  16.443 -0.7574 -1.7264 -1.3198
 1035TIP3   OH224519   0.573   2.308   5.461  0.6831  0.1549  0.1235
 1035TIP3    H124520   0.529   2.390   5.440 -0.1682  0.0752  1.5598
 1035TIP3    H224521   0.666   2.332   5.466  0.7368  0.5050 -1.9477
 1036TIP3   OH224522   4.805   1.456   3.934 -0.3350  0.2064  0.0426
 1036TIP3    H124523   4.841   1.479   3.848 -0.7318  0.0966 -0.1525
 1036TIP3    H224524   4.713   1.438   3.918 -0.2952 -0.3366  0.4050
 1037TIP3   OH224525   6.769   5.804  15.396  0.4164  0.1736  0.0302
 1037TIP3    H124526   6.675   5.788  15.409  0.5594 -1.5553 -0.8813
 1037TIP3    H224527   6.782   5.896  15.422 -1.7184  0.7355 -0.7749
 1038TIP3   OH224528   5.708   3.730  15.979 -0.2698 -0.3781  0.2675
 1038TIP3    H124529   5.628   3.776  15.953 -0.5899  0.0155  1.8545
 1038TIP3    H224530   5.728   3.765  16.066  1.8009 -0.2743 -0.2372
 1039TIP3   OH224531   1.988   5.567   2.022  0.1781 -0.1644 -0.1505
 1039TIP3    H124532   1.962   5.638   2.081  0.8053 -0.7366  0.8217
 1039TIP3    H224533   1.948   5.489   2.059 -1.3168 -0.1912 -1.7597
 1040TIP3   OH224534   1.681   2.011   3.183 -0.4889  0.1623 -0.0688
 1040TIP3    H124535   1.602   2.059   3.208 -0.2230  0.4532  0.2124
 1040TIP3    H224536   1.673   1.926   3.227 -0.9706 -0.0607 -0.5845
 1041TIP3   OH224537   5.128   6.028  12.664  0.4983  0.2659 -0.3906
 1041TIP3    H124538   5.115   6.085  12.588  4.1744 -0.7958 -1.9022
 1041TIP3    H224539   5.207   6.062  12.707  0.5107 -1.3365  0.9043
 1042TIP3   OH224540   0.659   2.884   4.671  0.0355  0.3826  0.0684
 1042TIP3    H124541   0.573   2.882   4.714  0.6729 -1.3538  1.3068
 1042TIP3    H224542   0.664   2.801   4.623  0.0303  1.5595 -2.0583
 1043TIP3   OH224543   3.699   0.446  15.066 -0.5244 -0.0047 -1.3301
 1043TIP3    H124544   3.787   0.413  15.050  0.1351  1.9171 -1.8318
 1043TIP3    H224545   3.641   0.371  15.051  1.0591 -1.4262 -0.4601
 1044TIP3   OH224546   3.551   2.767  13.921  0.0118 -0.2191  0.2986
 1044TIP3    H124547   3.496   2.845  13.929  0.2907  0.0743 -0.5605
 1044TIP3    H224548   3.500   2.698  13.963 -0.6845  0.2094  0.1808
 1045TIP3   OH224549   5.365   4.605   5.047  0.0739 -0.2943 -0.5020
 1045TIP3    H124550   5.374   4.580   5.139 -2.5481 -1.3517 -0.4948
 1045TIP3    H224551   5.347   4.699   5.050 -1.7182 -0.6367  0.1945
 1046TIP3   OH224552   2.616   5.761  13.073 -0.2649  0.5705 -0.3391
 1046TIP3    H124553   2.694   5.813  13.090 -0.9366  1.9267 -1.2737
 1046TIP3    H224554   2.548   5.803  13.127 -0.3631 -0.5931  0.4645
 1047TIP3   OH224555   1.386   0.492  15.434  0.0271 -0.1456  0.1595
 1047TIP3    H124556   1.295   0.464  15.445  0.8394 -3.2553 -0.5693
 1047TIP3    H224557   1.384   0.587  15.451 -3.3187 -0.1433  0.1258
 1048TIP3   OH224558   0.683   3.323   2.274  0.1291 -0.1152  0.4988
 1048TIP3    H124559   0.722   3.393   2.222 -1.3037 -0.0248 -0.4587
 1048TIP3    H224560   0.740   3.247   2.259 -1.6090 -0.7745 -3.1434
 1049TIP3   OH224561   3.162   0.162  13.798 -0.0644  0.0996  0.0397
 1049TIP3    H124562   3.223   0.114  13.854 -1.9035 -0.8840  1.2394
 1049TIP3    H224563   3.218   0.204  13.733  1.7303 -2.2020  0.0435
 1050TIP3   OH224564   2.085   4.087  11.560  0.5121 -0.1139  0.5458
 1050TIP3    H124565   2.069   4.095  11.655  0.8139  3.4828  0.3596
 1050TIP3    H224566   2.001   4.110  11.520  1.1572  1.1874 -0.0922
 1051TIP3   OH224567   3.077   0.509  14.181 -0.0510 -0.0658 -0.1886
 1051TIP3    H124568   3.145   0.488  14.245 -0.4287 -3.9673 -0.8986
 1051TIP3    H224569   3.022   0.430  14.178 -3.0826  1.9827 -1.5451
 1052TIP3   OH224570   2.225   2.570  12.498  0.1336 -0.7283  0.3872
 1052TIP3    H124571   2.258   2.650  12.458 -0.4294 -0.2544  0.8726
 1052TIP3    H224572   2.293   2.545  12.561  0.6678 -1.0594 -0.3207
 1053TIP3   OH224573   3.387   4.576  16.760 -0.0689 -0.3605 -0.1468
 1053TIP3    H124574   3.313   4.520  16.735 -0.9091  0.2829  0.8484
 1053TIP3    H224575   3.364   4.608  16.847  1.0193  0.5004 -0.1690
 1054TIP3   OH224576   6.564   3.609   4.318 -0.4640  0.1231  1.1082
 1054TIP3    H124577   6.492   3.567   4.272 -1.0019  0.6172  1.5052
 1054TIP3    H224578   6.638   3.548   4.307 -0.3142  0.6685 -1.1998
 1055TIP3   OH224579   3.892   1.456  10.433 -0.2450  0.1204 -0.5778
 1055TIP3    H124580   3.907   1.490  10.345  0.4036  0.3478 -0.3848
 1055TIP3    H224581   3.797   1.461  10.445 -0.1971  1.5158 -0.7013
 1056TIP3   OH224582   4.658   5.362  12.981 -0.6078 -0.3806  0.0390
 1056TIP3    H124583   4.567   5.333  12.990 -0.4576 -1.5307 -1.9171
 1056TIP3    H224584   4.683   5.389  13.069 -2.8307 -0.0619  0.6210
 1057TIP3   OH224585   2.446   4.462  12.592  0.2278  0.2681  0.2538
 1057TIP3    H124586   2.528   4.486  12.550 -1.7310  2.6482 -2.3938
 1057TIP3    H224587   2.421   4.540  12.643 -0.3516 -0.4425  1.0748
 1058TIP3   OH224588   3.914   5.476  12.198 -0.0547  0.0406 -0.0494
 1058TIP3    H124589   3.924   5.383  12.177  0.5551  0.0362  0.2396
 1058TIP3    H224590   3.844   5.479  12.263 -0.0585 -0.2207 -0.0419
 1059TIP3   OH224591   0.944   0.816   3.560 -0.1913  0.3801 -0.1463
 1059TIP3    H124592   0.871   0.761   3.585 -0.8803  0.0088 -2.7885
 1059TIP3    H224593   1.020   0.757   3.559  0.3218  0.8987  3.1987
 1060TIP3   OH224594   0.985   4.339  15.762  0.2019 -0.2989 -0.1878
 1060TIP3    H124595   1.052   4.394  15.721  0.6128  0.4166  1.4350
 1060TIP3    H224596   0.903   4.388  15.751  0.2627 -0.2464 -0.4087
 1061TIP3   OH224597   1.767   1.715  14.268  0.5624 -1.0577  0.3389
 1061TIP3    H124598   1.777   1.762  14.351 -0.0225 -0.1566 -0.0984
 1061TIP3    H224599   1.854   1.679  14.250  0.9190 -0.4752  0.8717
 1062TIP3   OH224600   5.622   0.233  15.450  0.0821 -0.4941  0.0233
 1062TIP3    H124601   5.564   0.309  15.451 -0.8997 -1.2188 -0.8908
 1062TIP3    H224602   5.568   0.162  15.414  2.1511 -0.6489 -2.9644
 1063TIP3   OH224603   5.334   5.186   4.319 -0.0252 -0.5291 -0.0630
 1063TIP3    H124604   5.356   5.219   4.405 -0.6910 -0.0936 -0.0525
 1063TIP3    H224605   5.388   5.107   4.308 -0.6115 -1.1094  1.1255
 1064TIP3   OH224606   4.374   0.569   1.222 -0.0756  0.6680  0.0373
 1064TIP3    H124607   4.319   0.575   1.145 -0.4274  0.2507  0.2520
 1064TIP3    H224608   4.448   0.514   1.195 -0.8623 -0.5787  0.3697
 1065TIP3   OH224609   0.184   5.059  10.685 -0.0411  0.2406  0.0146
 1065TIP3    H124610   0.142   4.985  10.642 -2.1293  1.9878 -1.0791
 1065TIP3    H224611   0.247   5.092  10.621  0.8589 -0.5417  0.4854
 1066TIP3   OH224612   6.197   2.587   0.023 -0.1171  0.4516 -0.0973
 1066TIP3    H124613   6.146   2.515   0.061  0.1315  0.3920  0.1267
 1066TIP3    H224614   6.197   2.570  -0.071 -2.0051  1.4100 -0.3069
 1067TIP3   OH224615   0.580   2.124  13.566 -0.1980  0.2634 -0.1865
 1067TIP3    H124616   0.612   2.074  13.490  0.0119  0.1578 -0.0302
 1067TIP3    H224617   0.596   2.216  13.543  1.3008  0.1568  0.3697
 1068TIP3   OH224618   6.000   3.364   1.078 -0.2604  0.2276 -0.3972
 1068TIP3    H124619   6.035   3.411   1.153  1.8362 -0.0420 -1.1743
 1068TIP3    H224620   6.043   3.279   1.080 -0.6189  0.0036 -1.5745
 1069TIP3   OH224621   2.405   3.267   2.323  0.1187 -0.1231 -0.0029
 1069TIP3    H124622   2.322   3.270   2.276  0.9466  0.3838 -1.4449
 1069TIP3    H224623   2.403   3.344   2.380 -0.1621  0.1953 -0.4452
 1070TIP3   OH224624   0.247   2.339   1.059  0.1522  1.0817  0.8512
 1070TIP3    H124625   0.151   2.343   1.058  0.1333  0.6313  0.8395
 1070TIP3    H224626   0.267   2.265   1.117  0.4531 -0.4731 -1.1655
 1071TIP3   OH224627   6.434   0.228  13.230 -0.3705 -0.0212 -0.0674
 1071TIP3    H124628   6.494   0.237  13.157 -0.0754  0.2252  0.2076
 1071TIP3    H224629   6.391   0.313  13.237  0.8729  0.5294  1.1630
 1072TIP3   OH224630   6.209   1.870   6.068  0.0838  0.0704  0.5496
 1072TIP3    H124631   6.214   1.777   6.045  2.7412  0.5395 -0.9230
 1072TIP3    H224632   6.207   1.870   6.164 -1.6749 -1.5371  0.5489
 1073TIP3   OH224633   6.249   0.772  16.000 -0.2270  0.4310 -0.2715
 1073TIP3    H124634   6.250   0.854  16.049 -0.2140  0.0728  0.3382
 1073TIP3    H224635   6.170   0.727  16.030 -0.6901  0.5913 -1.2257
 1074TIP3   OH224636   3.120   5.072  14.242 -0.5251 -0.4476  0.1185
 1074TIP3    H124637   3.075   4.990  14.262  1.0327 -1.3743 -0.0993
 1074TIP3    H224638   3.133   5.070  14.148 -0.8673  0.2704  0.0487
 1075TIP3   OH224639   1.032   0.380  13.137 -0.5496 -0.5852 -0.7077
 1075TIP3    H124640   1.044   0.320  13.211 -0.9771 -0.6219 -0.6660
 1075TIP3    H224641   0.937   0.389  13.129 -0.4566  1.6442  0.5311
 1076TIP3   OH224642   3.153   4.369  14.817  0.1036 -0.2497 -0.1271
 1076TIP3    H124643   3.154   4.323  14.901 -0.4041  1.5516  0.9103
 1076TIP3    H224644   3.103   4.313  14.758  0.0888 -1.3273  0.9096
 1077TIP3   OH224645   4.490   1.908   4.059  0.7214 -0.6397 -0.4729
 1077TIP3    H124646   4.524   1.997   4.066 -0.8675  0.0577 -1.4989
 1077TIP3    H224647   4.457   1.887   4.146 -1.6910  0.9251 -0.9859
 1078TIP3   OH224648   4.739   4.706  16.664  0.3620  0.0992  0.3914
 1078TIP3    H124649   4.684   4.784  16.658  1.1671  0.5404 -1.3591
 1078TIP3    H224650   4.681   4.634  16.640 -0.1138  0.2597  1.0350
 1079TIP3   OH224651   0.652   2.253   0.991 -0.7455  0.7395  0.1526
 1079TIP3    H124652   0.704   2.332   0.976  0.0161  0.1466 -0.4305
 1079TIP3    H224653   0.571   2.268   0.942 -0.9247  1.4579  0.6509
 1080TIP3   OH224654   5.337   4.864   2.200  0.0859  0.4335 -0.0475
 1080TIP3    H124655   5.356   4.821   2.283  0.9814  0.1641 -0.3916
 1080TIP3    H224656   5.285   4.941   2.224  2.2015  1.5934  0.9746
 1081TIP3   OH224657   4.444   6.740  13.861 -0.3346  0.5578 -0.7376
 1081TIP3    H124658   4.377   6.803  13.887 -0.4414 -0.2276  0.9840
 1081TIP3    H224659   4.417   6.711  13.774 -3.5083 -1.4189  0.8050
 1082TIP3   OH224660   1.368   6.152   4.034  0.2446  0.4987 -0.8151
 1082TIP3    H124661   1.418   6.213   3.980  2.2765  1.2979  1.8949
 1082TIP3    H224662   1.429   6.125   4.102 -1.5312 -2.3336 -0.2691
 1083TIP3   OH224663   1.156   5.055  13.857  0.3724 -0.3739  0.2208
 1083TIP3    H124664   1.207   5.134  13.840  0.5368 -0.6458 -0.5301
 1083TIP3    H224665   1.078   5.087  13.902  1.3375  0.0058  1.6636
 1084TIP3   OH224666   2.078   2.348   3.739 -0.1995  0.3153  0.1693
 1084TIP3    H124667   2.100   2.399   3.661  0.9324 -0.4131 -0.0084
 1084TIP3    H224668   2.159   2.346   3.789 -0.4906 -0.5245  0.6123
 1085TIP3   OH224669   4.965   0.366   2.685  0.4016 -0.5646  0.6581
 1085TIP3    H124670   5.050   0.355   2.642  0.3638  2.0573 -0.1829
 1085TIP3    H224671   4.945   0.460   2.675 -1.6004 -0.7321  2.6985
 1086TIP3   OH224672   6.778   3.583   1.297 -0.0766 -0.1879  0.3357
 1086TIP3    H124673   6.853   3.624   1.254  0.6981 -1.0890  0.7971
 1086TIP3    H224674   6.722   3.555   1.225  0.7670 -0.8722 -0.0750
 1087TIP3   OH224675   3.529   6.373   3.066 -0.4006  0.2427 -0.5479
 1087TIP3    H124676   3.597   6.346   3.127  2.4110  2.1932 -2.6795
 1087TIP3    H224677   3.487   6.449   3.108 -2.9510 -2.3501  1.8189
 1088TIP3   OH224678   6.256   3.865   4.098  0.5286 -0.3207  0.2531
 1088TIP3    H124679   6.205   3.788   4.122  0.8805 -0.4271  0.6647
 1088TIP3    H224680   6.264   3.860   4.002 -1.0154  0.1905  0.0800
 1089TIP3   OH224681   0.096   3.785   4.244 -0.2158 -0.0651 -0.1676
 1089TIP3    H124682   0.010   3.813   4.211 -0.4922  0.0519  0.6497
 1089TIP3    H224683   0.129   3.727   4.176 -2.0829 -2.1815  0.6794
 1090TIP3   OH224684   4.721   6.198   4.204  0.0474 -0.9131  0.1585
 1090TIP3    H124685   4.793   6.214   4.142  0.7878 -0.5503  1.0960
 1090TIP3    H224686   4.677   6.121   4.168 -1.0815  0.7532 -2.1718
 1091TIP3   OH224687   5.523   1.385   1.467  0.1161 -0.6903  0.0488
 1091TIP3    H124688   5.568   1.426   1.540 -0.1875  0.2048 -0.2611
 1091TIP3    H224689   5.578   1.311   1.443 -0.0381 -1.2930  1.4980
 1092TIP3   OH224690   5.270   4.194  12.985  0.9498 -0.0692  0.5764
 1092TIP3    H124691   5.351   4.145  12.980  1.8908  1.5926 -1.2177
 1092TIP3    H224692   5.277   4.244  13.066 -0.3117 -3.3206  2.7541
 1093TIP3   OH224693   0.453   4.634  12.442 -0.4524 -0.6778  0.3732
 1093TIP3    H124694   0.449   4.688  12.521  0.8012  0.2216 -0.1579
 1093TIP3    H224695   0.471   4.546  12.474 -4.1732 -1.1588  1.3704
 1094TIP3   OH224696   5.412   2.019  14.373 -0.1614  0.0045  0.1657
 1094TIP3    H124697   5.380   1.998  14.461  1.9644 -1.5709  0.6289
 1094TIP3    H224698   5.474   1.948  14.354  1.7548  2.0291 -1.3097
 1095TIP3   OH224699   3.124   2.406  11.876 -0.6324  0.3844  0.1209
 1095TIP3    H124700   3.166   2.321  11.887 -1.5593 -0.3701 -1.8633
 1095TIP3    H224701   3.033   2.391  11.899 -1.2666  0.2717 -2.3208
 1096TIP3   OH224702   0.518   4.865   2.844 -0.0404  0.4460 -0.1541
 1096TIP3    H124703   0.468   4.854   2.925 -0.1988 -0.0996 -0.3246
 1096TIP3    H224704   0.610   4.855   2.871 -0.0239  1.2794  0.1287
 1097TIP3   OH224705   4.919   2.681  14.231  0.5142 -0.2942 -0.5906
 1097TIP3    H124706   4.933   2.673  14.326 -2.7106  2.8298  0.2737
 1097TIP3    H224707   4.976   2.753  14.204  0.0872  0.0247 -0.6526
 1098TIP3   OH224708   5.301   5.945  11.985 -0.7933 -0.1209 -0.5529
 1098TIP3    H124709   5.251   6.011  11.937 -1.4643 -1.2101 -1.3709
 1098TIP3    H224710   5.316   5.985  12.071  0.8298  2.0579 -1.7786
 1099TIP3   OH224711   3.037   1.857  12.099  0.2495  0.8604 -0.1346
 1099TIP3    H124712   3.053   1.805  12.021 -1.2043 -0.3729  0.3791
 1099TIP3    H224713   3.017   1.945  12.066  3.0698  1.2156 -0.9818
 1100TIP3   OH224714   6.606   0.640   1.846 -0.9545 -0.3859  0.0322
 1100TIP3    H124715   6.646   0.578   1.907 -0.8449  0.1604  0.5247
 1100TIP3    H224716   6.610   0.724   1.891 -1.0281 -0.0035 -0.6610
 1101TIP3   OH224717   4.798   3.551   5.013 -0.4363  0.2301 -0.2570
 1101TIP3    H124718   4.791   3.639   5.050 -1.9788 -1.1766  3.0358
 1101TIP3    H224719   4.707   3.527   4.993 -0.0062 -0.5606 -1.2927
 1102TIP3   OH224720   2.352   6.072   4.735  0.3476  0.3134  0.5580
 1102TIP3    H124721   2.440   6.096   4.765  1.0217 -1.9321  0.4673
 1102TIP3    H224722   2.367   6.031   4.650 -0.5031 -2.3841  1.6793
 1103TIP3   OH224723   5.324   1.897   2.557 -0.1118  0.2663  0.1267
 1103TIP3    H124724   5.347   1.885   2.649  0.1298  0.0217  0.0361
 1103TIP3    H224725   5.371   1.827   2.511  1.2264  1.4885 -0.3982
 1104TIP3   OH224726   4.473   3.680  13.356 -0.4064 -0.1525  0.0260
 1104TIP3    H124727   4.566   3.657  13.352 -0.6561 -1.3175  0.5929
 1104TIP3    H224728   4.430   3.610  13.306 -1.0580 -0.0821  0.4949
 1105TIP3   OH224729   6.700   5.634  11.539 -0.3492 -0.3570 -0.5811
 1105TIP3    H124730   6.620   5.675  11.570 -0.1474 -1.4092  1.4388
 1105TIP3    H224731   6.672   5.546  11.512  0.0879 -0.6686 -0.0223
 1106TIP3   OH224732   2.815   0.554  12.427  0.1426 -0.1167  0.2275
 1106TIP3    H124733   2.806   0.474  12.478 -0.4600  0.1119  0.4929
 1106TIP3    H224734   2.864   0.613  12.484  0.0173 -0.0766  0.2957
 1107TIP3   OH224735   5.989   1.108  14.898  0.6630 -0.7422 -0.7673
 1107TIP3    H124736   5.962   1.026  14.856 -0.5145  0.2130 -1.9175
 1107TIP3    H224737   6.050   1.148  14.836  0.1637 -0.0844 -0.8338
 1108TIP3   OH224738   1.019   3.426  10.742  0.3365 -0.0295 -0.0964
 1108TIP3    H124739   1.105   3.385  10.756  1.0089  1.1688 -0.6660
 1108TIP3    H224740   0.958   3.353  10.744  1.2507 -0.7836  1.3505
 1109TIP3   OH224741   2.061   5.321   0.790  0.0159 -0.2665  0.6970
 1109TIP3    H124742   1.977   5.284   0.820  0.1681 -0.5876  0.7339
 1109TIP3    H224743   2.124   5.291   0.856  0.1984 -0.2133  0.5451
 1110TIP3   OH224744   0.851   5.889   4.433 -0.4164  0.7391  0.4000
 1110TIP3    H124745   0.919   5.834   4.395  0.1880  0.2827  2.0866
 1110TIP3    H224746   0.785   5.897   4.364  0.3085 -0.6351 -0.4783
 1111TIP3   OH224747   3.212   4.974   6.303  0.0214 -1.3419  0.0977
 1111TIP3    H124748   3.171   4.951   6.220  0.7965 -2.0351 -0.0923
 1111TIP3    H224749   3.232   4.891   6.345 -1.8315 -1.0006  1.7206
 1112TIP3   OH224750   3.470   6.551   3.534  0.0047  0.8215  0.5138
 1112TIP3    H124751   3.508   6.476   3.581  1.8140  1.9755  0.9176
 1112TIP3    H224752   3.538   6.618   3.535 -0.1386  1.1351 -3.2071
 1113TIP3   OH224753   1.619   3.065   0.333  0.7952 -0.1371  0.3581
 1113TIP3    H124754   1.523   3.060   0.332  0.7472  0.1376  2.1038
 1113TIP3    H224755   1.648   2.981   0.297 -0.0875  0.3974 -1.6666
 1114TIP3   OH224756   3.990   4.803  11.999 -0.0264  0.3035 -0.1765
 1114TIP3    H124757   3.995   4.730  11.936 -1.4188 -0.7631  0.9181
 1114TIP3    H224758   4.079   4.810  12.034  1.0482  1.5936 -2.9687
 1115TIP3   OH224759   1.508   5.572  15.878  0.3620  0.0187 -0.1177
 1115TIP3    H124760   1.521   5.477  15.876  0.6140  0.0800 -3.7788
 1115TIP3    H224761   1.492   5.596  15.787 -1.1837  3.3134  0.9526
 1116TIP3   OH224762   2.610   4.828  15.162  1.4330 -0.3915  0.1981
 1116TIP3    H124763   2.565   4.882  15.097 -0.0129 -2.7195 -0.7894
 1116TIP3    H224764   2.700   4.862  15.164  0.9604  1.0016 -1.5560
 1117TIP3   OH224765   0.761   2.427  17.048 -0.0121  0.6139  0.0852
 1117TIP3    H124766   0.749   2.432  17.142  2.6493 -0.6795  0.5473
 1117TIP3    H224767   0.687   2.475  17.011 -1.3138  0.7580  2.8009
 1118TIP3   OH224768   3.835   1.076  11.453 -0.6904  0.3802  0.1352
 1118TIP3    H124769   3.923   1.086  11.488 -0.3217 -0.1865 -0.6157
 1118TIP3    H224770   3.812   1.163  11.419 -1.3465  1.1252  2.4198
 1119TIP3   OH224771   4.632   1.745  11.487  0.5737 -0.2397 -0.3279
 1119TIP3    H124772   4.662   1.726  11.575  0.2874 -1.8327 -0.5573
 1119TIP3    H224773   4.561   1.808  11.498 -0.9975 -2.1444  0.7642
 1120TIP3   OH224774   6.221   1.669  14.104 -0.3255 -0.4052  0.6809
 1120TIP3    H124775   6.253   1.599  14.048 -2.7603 -1.6442  0.7674
 1120TIP3    H224776   6.297   1.695  14.157  0.4241 -3.5255  1.2061
 1121TIP3   OH224777   3.333   5.003   5.305  0.3267  0.0459 -0.4696
 1121TIP3    H124778   3.408   5.054   5.335  0.3947  0.1186 -0.7634
 1121TIP3    H224779   3.352   4.985   5.213  0.5420 -0.9389 -0.2346
 1122TIP3   OH224780   2.607   1.203  15.634 -0.0580  0.6502 -0.1220
 1122TIP3    H124781   2.661   1.151  15.693 -1.1511 -0.9230 -0.4814
 1122TIP3    H224782   2.621   1.164  15.548 -2.4731 -0.3782 -0.0769
 1123TIP3   OH224783   1.015   3.625  16.653  0.1807  0.1783  0.0405
 1123TIP3    H124784   1.068   3.681  16.595  1.2786  1.2801  2.0514
 1123TIP3    H224785   0.955   3.580  16.594  1.3177  1.2077 -1.9723
 1124TIP3   OH224786   0.731   6.785  14.500 -0.4724  0.3200  0.1348
 1124TIP3    H124787   0.769   6.778  14.587 -0.0304  1.2349  0.0175
 1124TIP3    H224788   0.789   6.733  14.443 -0.4705  0.1556  0.2869
 1125TIP3   OH224789   3.208   2.323  12.760 -0.3177  0.3569 -0.4136
 1125TIP3    H124790   3.228   2.268  12.684  0.9532  0.3459 -0.0761
 1125TIP3    H224791   3.241   2.273  12.835  2.3812  2.3057 -0.2517
 1126TIP3   OH224792   2.470   3.281   4.136 -0.2410 -0.2289  0.0366
 1126TIP3    H124793   2.501   3.194   4.161  0.6168  0.0291 -0.1130
 1126TIP3    H224794   2.376   3.270   4.121 -0.1522 -1.1072  0.1236
 1127TIP3   OH224795   2.380   5.759   0.912  0.8086 -0.0142 -0.0341
 1127TIP3    H124796   2.317   5.831   0.909  0.9329  0.0367 -2.4162
 1127TIP3    H224797   2.465   5.802   0.903  0.8839 -0.4433 -1.4590
 1128TIP3   OH224798   2.019   4.465   4.199  0.1391  0.4024  0.4749
 1128TIP3    H124799   1.984   4.507   4.278  1.9569 -1.2678  2.2413
 1128TIP3    H224800   2.018   4.371   4.220  1.6139  0.0186 -1.0780
 1129TIP3   OH224801   2.262   0.159  15.842  0.4219  0.9296 -0.0941
 1129TIP3    H124802   2.297   0.134  15.757 -0.3665  0.6800 -0.3435
 1129TIP3    H224803   2.196   0.092  15.862 -0.0238  1.4804  0.3088
 1130TIP3   OH224804   2.824   3.794   3.137  0.2896  0.1590 -0.0951
 1130TIP3    H124805   2.914   3.773   3.115  0.0915 -0.0337 -0.7503
 1130TIP3    H224806   2.796   3.723   3.195 -0.6013 -1.8535 -2.8528
 1131TIP3   OH224807   2.091   2.286   5.356  0.1764  0.3065  0.0419
 1131TIP3    H124808   2.158   2.222   5.381  1.1792  1.5089  0.4711
 1131TIP3    H224809   2.131   2.371   5.373 -1.2586  1.0567 -0.2379
 1132TIP3   OH224810   4.112   4.736  14.151  0.7364 -0.2986 -0.5871
 1132TIP3    H124811   4.129   4.684  14.230 -0.3116  0.5516  0.1989
 1132TIP3    H224812   4.199   4.753  14.115  1.2608 -0.1498  0.7317
 1133TIP3   OH224813   1.399   2.229  16.870  0.5983  0.3472 -0.3375
 1133TIP3    H124814   1.357   2.211  16.954  0.8308 -2.9709 -0.8419
 1133TIP3    H224815   1.469   2.164  16.865  1.0217  0.9622 -2.8101
 1134TIP3   OH224816   1.670   6.704   0.965 -0.1368  0.0842  0.3494
 1134TIP3    H124817   1.624   6.623   0.989 -0.6925  0.1779 -0.4071
 1134TIP3    H224818   1.716   6.683   0.884 -0.0105  0.4277  0.3301
 1135TIP3   OH224819   2.332   5.977   2.048 -0.5254 -0.1068 -0.1402
 1135TIP3    H124820   2.242   5.988   2.078 -1.4728 -1.2977 -2.4565
 1135TIP3    H224821   2.361   6.065   2.026 -0.5685  0.4931  2.0217
 1136TIP3   OH224822   0.886   0.739  11.827  0.2712  0.2611  0.4073
 1136TIP3    H124823   0.850   0.664  11.779 -0.2488  0.2348  0.8352
 1136TIP3    H224824   0.926   0.793  11.759  5.7769 -3.1871  0.6768
 1137TIP3   OH224825   2.198   4.160  13.476  0.4619  0.4115  0.1308
 1137TIP3    H124826   2.292   4.177  13.480  0.4634  0.6804 -0.7783
 1137TIP3    H224827   2.178   4.113  13.557  1.8845 -2.1027 -0.9295
 1138TIP3   OH224828   4.275   2.132   3.922  0.1089 -0.2776  0.6129
 1138TIP3    H124829   4.191   2.087   3.912  0.3798 -0.5691 -0.4799
 1138TIP3    H224830   4.324   2.077   3.983  0.3616 -1.3862 -0.5587
 1139TIP3   OH224831   0.193   0.257   1.247 -0.0037  0.0714 -0.1520
 1139TIP3    H124832   0.120   0.194   1.244  0.0618 -0.1996  2.5450
 1139TIP3    H224833   0.172   0.321   1.180 -3.0803  0.3113  0.9521
 1140TIP3   OH224834   0.023   4.041  17.127 -0.1177  0.1619  0.1328
 1140TIP3    H124835   0.036   4.136  17.122 -2.6760  0.5017 -1.0135
 1140TIP3    H224836   0.106   4.007  17.160  0.4798  2.9007  1.6246
 1141TIP3   OH224837   4.296   5.516   2.620 -0.3583 -0.1711  0.1200
 1141TIP3    H124838   4.285   5.569   2.542  0.5154 -1.1496 -0.6712
 1141TIP3    H224839   4.388   5.488   2.619 -1.1863 -3.1023 -0.4044
 1142TIP3   OH224840   2.710   4.110  12.341 -0.2359  0.2569  0.0534
 1142TIP3    H124841   2.670   4.027  12.315 -1.4104  0.4632  1.1521
 1142TIP3    H224842   2.667   4.133  12.423  0.7005  1.5213  0.2080
 1143TIP3   OH224843   1.459   4.214  12.604  0.0194 -0.0613  0.1553
 1143TIP3    H124844   1.501   4.300  12.596  0.0155 -0.0991 -0.3347
 1143TIP3    H224845   1.441   4.204  12.697 -0.5119  0.7277  0.1444
 1144TIP3   OH224846   2.635   4.590  13.889 -0.6535 -0.0738 -0.1289
 1144TIP3    H124847   2.643   4.684  13.876  0.6936 -0.2257 -0.4333
 1144TIP3    H224848   2.563   4.564  13.832 -1.4981  0.8774  0.4900
 1145TIP3   OH224849   4.739   2.710   5.537 -0.1539  0.1126  0.2217
 1145TIP3    H124850   4.655   2.678   5.505  0.2404 -1.3407  0.5890
 1145TIP3    H224851   4.804   2.658   5.490  0.4980  0.2710  0.9325
 1146TIP3   OH224852   6.350   2.679  11.876  0.6494 -0.3520  0.2337
 1146TIP3    H124853   6.362   2.743  11.806  1.0168 -0.4503  0.2067
 1146TIP3    H224854   6.349   2.731  11.957 -1.7585 -0.0295  0.0153
 1147TIP3   OH224855   1.498   2.268   4.686  0.1783  0.9165  0.0559
 1147TIP3    H124856   1.495   2.184   4.640  1.0410  0.4283  0.8713
 1147TIP3    H224857   1.591   2.280   4.708 -0.1506  1.3934  1.1982
 1148TIP3   OH224858   2.900   0.827   0.664 -0.1572  0.3792 -0.2163
 1148TIP3    H124859   2.826   0.886   0.649 -1.2683  0.1443  3.6289
 1148TIP3    H224860   2.860   0.742   0.682  1.0731 -0.0260  0.6922
 1149TIP3   OH224861   3.267   4.864  16.915 -0.7703  0.2657 -0.0235
 1149TIP3    H124862   3.208   4.930  16.951 -0.1232  0.6776  0.3035
 1149TIP3    H224863   3.240   4.854  16.824 -1.5619  0.1976  0.2224
 1150TIP3   OH224864   3.034   5.095  12.791  0.0016 -0.6758 -0.6754
 1150TIP3    H124865   3.018   5.108  12.885 -0.7116  0.2725 -0.9201
 1150TIP3    H224866   3.004   5.006  12.774 -0.1439 -0.7473 -0.0543
 1151TIP3   OH224867   2.299   1.574  13.220  0.2605  0.0990  0.6424
 1151TIP3    H124868   2.314   1.655  13.267  0.1389  1.4029 -1.4754
 1151TIP3    H224869   2.289   1.507  13.288 -1.0890  2.0962  2.4672
 1152TIP3   OH224870   5.782   2.228   2.672 -0.2336 -0.1085 -0.0615
 1152TIP3    H124871   5.804   2.321   2.675  1.7746 -0.5613 -0.0566
 1152TIP3    H224872   5.739   2.217   2.587 -2.6090  1.2444  0.9242
 1153TIP3   OH224873   5.117   1.606   5.686  0.5212  0.1460 -0.4096
 1153TIP3    H124874   5.196   1.631   5.734 -2.1231  2.0737  3.1441
 1153TIP3    H224875   5.105   1.513   5.706  0.0830  0.6635  1.8551
 1154TIP3   OH224876   1.556   1.277  12.895 -0.0623 -0.3680 -1.0767
 1154TIP3    H124877   1.480   1.322  12.932 -0.2099 -0.4458 -1.2854
 1154TIP3    H224878   1.520   1.197  12.857  0.3505 -1.2151  0.2815
 1155TIP3   OH224879   1.484   6.209   1.659 -0.2950 -0.2698  0.4256
 1155TIP3    H124880   1.532   6.129   1.682 -0.6535 -0.8452 -0.7834
 1155TIP3    H224881   1.426   6.182   1.588 -0.2375  1.1297 -0.1620
 1156TIP3   OH224882   6.670   6.221  16.380 -0.3039  0.0306 -0.4792
 1156TIP3    H124883   6.709   6.305  16.361  0.5387 -0.5971 -1.5425
 1156TIP3    H224884   6.661   6.178  16.295  1.3539 -1.8550  0.2575
 1157TIP3   OH224885   1.724   3.983  16.847  0.5724  0.0030 -0.2937
 1157TIP3    H124886   1.756   4.021  16.765  0.5065 -0.4874 -0.5453
 1157TIP3    H224887   1.704   4.059  16.902 -0.0674  0.3424 -0.9876
 1158TIP3   OH224888   0.948   0.120  16.848 -0.0989  0.2727 -0.3723
 1158TIP3    H124889   0.983   0.072  16.773  1.8480 -0.2502  0.8190
 1158TIP3    H224890   0.965   0.062  16.923 -0.5956  1.4531  0.6780
 1159TIP3   OH224891   4.785   2.240  12.332 -0.3687 -0.1883 -1.0819
 1159TIP3    H124892   4.807   2.211  12.244  0.4554 -1.1088 -0.5814
 1159TIP3    H224893   4.819   2.171  12.389  0.2697  1.0371  0.0338
 1160TIP3   OH224894   4.564   1.812  16.174 -0.3048 -0.4618  0.2466
 1160TIP3    H124895   4.553   1.872  16.100 -0.9982  1.0936  1.5642
 1160TIP3    H224896   4.659   1.810  16.190 -0.2614  0.1512  0.0694
 1161TIP3   OH224897   5.914   1.601   3.201  0.0831  0.1021 -0.1225
 1161TIP3    H124898   5.973   1.643   3.263  0.1005  0.1945 -0.2019
 1161TIP3    H224899   5.965   1.532   3.161 -0.4496 -1.1079  1.2441
 1162TIP3   OH224900   4.881   1.524   0.414  0.2489  0.4446 -0.1122
 1162TIP3    H124901   4.818   1.596   0.415 -0.1467  0.1403 -1.6358
 1162TIP3    H224902   4.851   1.465   0.484 -0.0693  1.1997  0.3972
 1163TIP3   OH224903   5.929   6.273   2.386  0.2119  0.4159 -0.6382
 1163TIP3    H124904   5.938   6.322   2.468  0.1122  0.8511 -0.8814
 1163TIP3    H224905   5.869   6.202   2.406 -0.2781  0.8737 -0.4903
 1164TIP3   OH224906   1.672   1.376  10.735 -0.0552  0.5361  0.1761
 1164TIP3    H124907   1.747   1.389  10.793  0.4618  0.4541 -0.4748
 1164TIP3    H224908   1.667   1.457  10.685 -1.2992  1.1357  1.2343
 1165TIP3   OH224909   5.266   4.549   3.374  0.0584  0.2092  0.0994
 1165TIP3    H124910   5.185   4.600   3.364 -0.9700 -1.8245 -2.6860
 1165TIP3    H224911   5.246   4.486   3.443 -0.5333  0.1227 -0.1459
 1166TIP3   OH224912   4.543   4.410  13.593 -0.3285 -0.1231  0.3020
 1166TIP3    H124913   4.637   4.393  13.583 -0.2691  0.4896 -0.2028
 1166TIP3    H224914   4.507   4.399  13.505 -0.4691  1.2309  0.1728
 1167TIP3   OH224915   2.345   2.561   0.806 -0.2202 -0.0102  0.1516
 1167TIP3    H124916   2.353   2.466   0.796 -0.1006 -0.0454  0.5822
 1167TIP3    H224917   2.434   2.590   0.829 -0.4930  0.0708  1.1268
 1168TIP3   OH224918   6.774   4.271  15.508 -0.9184  0.4431 -0.2343
 1168TIP3    H124919   6.751   4.227  15.426 -4.0395  1.1221  0.2125
 1168TIP3    H224920   6.755   4.206  15.576 -1.7533  1.1200  0.1762
 1169TIP3   OH224921   3.018   5.895   0.719 -0.0894 -0.5592  0.7322
 1169TIP3    H124922   3.021   5.825   0.783  0.2975 -0.3143  0.9858
 1169TIP3    H224923   3.002   5.974   0.770 -0.4996 -0.4578  0.4522
 1170TIP3   OH224924   3.567   3.433   6.445  0.5352  0.3784  0.5230
 1170TIP3    H124925   3.477   3.433   6.413  0.1940 -0.9460  1.4649
 1170TIP3    H224926   3.621   3.421   6.366 -0.2322 -1.5352  0.2874
 1171TIP3   OH224927   1.945   5.229  12.302 -0.2999  0.0569 -0.8704
 1171TIP3    H124928   2.016   5.282  12.265  0.0483  1.0796  1.1854
 1171TIP3    H224929   1.982   5.141  12.310  0.4004  0.3593 -0.7696
 1172TIP3   OH224930   0.525   4.924  14.506  0.6702 -0.5446  0.0800
 1172TIP3    H124931   0.595   4.973  14.549  0.4664 -0.4416  0.2986
 1172TIP3    H224932   0.562   4.897  14.422  0.7360  0.1083 -0.1027
 1173TIP3   OH224933   4.863   4.873   0.028  0.9034  0.2232  0.2514
 1173TIP3    H124934   4.878   4.785   0.063  0.3927 -0.4950 -1.2651
 1173TIP3    H224935   4.946   4.895  -0.016  0.1458 -0.6643 -1.7164
 1174TIP3   OH224936   3.234   6.398  13.544  0.2176  0.0973  0.0415
 1174TIP3    H124937   3.279   6.317  13.520 -0.5277 -0.6002  0.9668
 1174TIP3    H224938   3.248   6.406  13.639 -0.3995  0.6299  0.0885
 1175TIP3   OH224939   0.356   4.153   4.069  0.1607  0.0939 -0.1096
 1175TIP3    H124940   0.403   4.160   4.153  0.2642 -0.0587 -0.1538
 1175TIP3    H224941   0.411   4.095   4.016 -0.2046 -0.2874 -0.0734
 1176TIP3   OH224942   0.292   2.053  11.704 -0.2558 -0.3365 -0.4764
 1176TIP3    H124943   0.262   1.991  11.637 -1.2004 -2.2637  1.6539
 1176TIP3    H224944   0.245   2.133  11.686 -1.3507 -1.1876 -1.4547
 1177TIP3   OH224945   1.980   4.339  11.984  0.0141  0.4227 -0.5149
 1177TIP3    H124946   1.906   4.330  12.044  0.2929 -1.6773 -0.4396
 1177TIP3    H224947   2.047   4.386  12.035 -0.5409  0.5888  0.0706
 1178TIP3   OH224948   6.016   6.089   2.078 -0.0011 -0.1176 -0.7036
 1178TIP3    H124949   6.030   6.182   2.064 -0.0912 -0.1464 -0.9694
 1178TIP3    H224950   5.927   6.073   2.048 -0.1860 -0.1791 -0.1388
 1179TIP3   OH224951   5.917   6.083   0.218  0.4447 -0.2771  0.1605
 1179TIP3    H124952   5.996   6.083   0.164 -0.4272  3.3894 -1.3022
 1179TIP3    H224953   5.946   6.115   0.303  1.2825 -3.1721  0.9980
 1180TIP3   OH224954   5.160   1.107   3.501  0.1616  0.1670  0.1086
 1180TIP3    H124955   5.238   1.067   3.462 -0.5827 -2.6973  1.4299
 1180TIP3    H224956   5.087   1.075   3.447 -0.3607  0.5645  0.5673
 1181TIP3   OH224957   0.007   4.544   4.443  0.1450  0.2141 -0.0940
 1181TIP3    H124958  -0.036   4.569   4.362  0.2704  0.3772 -0.1110
 1181TIP3    H224959  -0.055   4.485   4.486 -0.0230  0.3163 -0.1957
 1182TIP3   OH224960   5.055   6.347  14.490  0.1379 -0.0669 -0.3335
 1182TIP3    H124961   5.063   6.406  14.566  0.6510  0.4047 -0.7463
 1182TIP3    H224962   5.023   6.404  14.419 -0.7307 -0.5924 -0.3714
 1183TIP3   OH224963   2.936   3.378  12.475 -0.2977 -0.5006  0.3780
 1183TIP3    H124964   2.961   3.464  12.508  0.5040 -0.3549 -0.5734
 1183TIP3    H224965   2.849   3.362  12.511 -1.6430  1.9090 -1.6790
 1184TIP3   OH224966   4.101   5.892  15.303  0.3303  0.3307 -1.0791
 1184TIP3    H124967   4.081   5.833  15.376  3.3131  1.5000  0.7742
 1184TIP3    H224968   4.028   5.953  15.302 -0.3326 -0.4059  0.1965
 1185TIP3   OH224969   5.410   5.834  13.370  0.1845  0.0673 -0.0020
 1185TIP3    H124970   5.382   5.829  13.278  1.0744  1.9516 -0.4018
 1185TIP3    H224971   5.374   5.755  13.410  1.4524 -1.8363 -2.4278
 1186TIP3   OH224972   0.233   1.317  16.166  0.2056 -0.0190 -0.6412
 1186TIP3    H124973   0.202   1.257  16.234 -1.3376  1.9160  0.4010
 1186TIP3    H224974   0.172   1.391  16.170  1.0352  0.8296 -3.0865
 1187TIP3   OH224975   6.214   4.762  10.329 -0.2784  0.1169  0.0338
 1187TIP3    H124976   6.293   4.790  10.284  0.1348 -0.3095  0.4943
 1187TIP3    H224977   6.184   4.839  10.376 -0.9387  0.6862 -1.2884
 1188TIP3   OH224978   0.234   6.005  12.134  0.0740 -0.0298  0.0809
 1188TIP3    H124979   0.201   6.089  12.104  1.0433  0.5484  0.5994
 1188TIP3    H224980   0.241   5.952  12.054  2.1603  1.3300 -0.6915
 1189TIP3   OH224981   2.735   4.688  14.370 -0.4589 -0.2423  0.2800
 1189TIP3    H124982   2.641   4.669  14.377 -0.6885  0.6498 -0.2995
 1189TIP3    H224983   2.769   4.621  14.312 -1.0973  0.5555 -1.0312
 1190TIP3   OH224984   3.313   1.374   2.393 -0.4962  0.2978  0.9284
 1190TIP3    H124985   3.219   1.356   2.387 -0.3682 -1.0053  2.4069
 1190TIP3    H224986   3.354   1.288   2.395  0.6765  0.8449  1.0744
 1191TIP3   OH224987   6.083   6.471  16.097  0.2331  0.6382  0.4131
 1191TIP3    H124988   6.112   6.390  16.055  0.0356  0.4931  0.5595
 1191TIP3    H224989   6.105   6.539  16.033 -0.6751  0.3512 -0.2170
 1192TIP3   OH224990   4.660   6.686   1.658  0.5140  0.2031 -0.1916
 1192TIP3    H124991   4.684   6.753   1.722  1.2972 -0.2854  0.0345
 1192TIP3    H224992   4.564   6.687   1.657  0.5257  1.4447 -0.3251
 1193TIP3   OH224993   1.577   2.096  12.447 -0.7741  0.2996  0.0717
 1193TIP3    H124994   1.504   2.126  12.502 -0.0703  1.0353  0.6089
 1193TIP3    H224995   1.653   2.097  12.504 -0.1498  0.4698 -0.7472
 1194TIP3   OH224996   2.569   4.094  13.384 -0.1715  0.2690  0.2813
 1194TIP3    H124997   2.537   4.170  13.337 -0.4389  0.8093  1.3334
 1194TIP3    H224998   2.582   4.027  13.316 -3.1309  0.1498 -0.2050
 1195TIP3   OH224999   1.172   4.816  13.728  0.1850  0.1561 -0.7814
 1195TIP3    H125000   1.108   4.823  13.657 -1.8689 -1.2715  0.8511
 1195TIP3    H225001   1.167   4.901  13.773 -1.2158 -0.2454 -0.1543
 1196TIP3   OH225002   2.773   4.507   2.419  0.2996  0.1603 -0.1102
 1196TIP3    H125003   2.819   4.451   2.482 -0.0905  0.3880  0.3879
 1196TIP3    H225004   2.828   4.507   2.341 -0.1753 -1.7210 -0.4702
 1197TIP3   OH225005   0.596   5.073  12.847 -0.1055  0.2150 -0.0600
 1197TIP3    H125006   0.658   5.145  12.856 -0.7966  0.6871  1.0618
 1197TIP3    H225007   0.640   5.009  12.791  1.0372  0.9272  0.0258
 1198TIP3   OH225008   3.901   6.167   1.381 -0.1771  0.0414  0.0792
 1198TIP3    H125009   3.854   6.154   1.463  0.4245  0.4098  0.4769
 1198TIP3    H225010   3.914   6.261   1.374  1.3602 -0.1280  0.4491
 1199TIP3   OH225011   1.211   6.073  13.573  0.6071 -0.3656  0.4087
 1199TIP3    H125012   1.217   6.088  13.479  0.2942 -0.6000  0.3504
 1199TIP3    H225013   1.137   6.014  13.583  1.1584 -1.0211  0.7235
 1200TIP3   OH225014   6.281   4.975   6.273  0.3600 -0.2690 -0.2933
 1200TIP3    H125015   6.228   5.035   6.326 -0.9662 -1.9821  0.3701
 1200TIP3    H225016   6.224   4.900   6.258  2.6813 -2.2735  0.6484
 1201TIP3   OH225017   1.990   2.585   1.392  0.4026  0.1641  0.1339
 1201TIP3    H125018   2.044   2.509   1.415  1.6658  0.9357 -0.2192
 1201TIP3    H225019   1.965   2.570   1.301  0.6983  0.2097  0.0464
 1202TIP3   OH225020   1.499   6.146  14.165  0.4997  0.8043  0.5127
 1202TIP3    H125021   1.461   6.114  14.247  0.0816  0.9517  0.3763
 1202TIP3    H225022   1.568   6.206  14.192  1.2075 -0.1130  0.7752
 1203TIP3   OH225023   3.235   0.685   0.968  0.7127  0.0753 -0.1512
 1203TIP3    H125024   3.202   0.740   0.897 -2.2478 -2.0685 -0.5789
 1203TIP3    H225025   3.187   0.714   1.046  1.1714 -0.0369  0.1728
 1204TIP3   OH225026   1.209   6.316  12.003  0.1154  0.2642  0.4463
 1204TIP3    H125027   1.196   6.358  12.088 -0.1519  2.8127 -0.8116
 1204TIP3    H225028   1.197   6.223  12.021  2.1659  0.5310  3.6043
 1205TIP3   OH225029   4.680   6.341  10.087 -0.1503  0.3396  0.1728
 1205TIP3    H125030   4.663   6.404  10.016 -0.8457  1.1161  1.0199
 1205TIP3    H225031   4.594   6.325  10.125  0.0118 -1.1608 -0.0393
 1206TIP3   OH225032   6.392   6.529   2.330  0.0214  0.1100  0.8100
 1206TIP3    H125033   6.326   6.527   2.260  0.4756  0.8103  0.3536
 1206TIP3    H225034   6.472   6.499   2.287 -0.3411 -2.3431  1.7578
 1207TIP3   OH225035   5.282   2.121   0.989 -0.2060 -0.2824  0.5282
 1207TIP3    H125036   5.251   2.211   0.983 -0.9413 -0.4943  1.0676
 1207TIP3    H225037   5.368   2.127   1.029 -0.1968  0.1907  0.4340
 1208TIP3   OH225038   1.454   3.052   0.018 -0.3308  0.3430 -0.0059
 1208TIP3    H125039   1.442   3.072  -0.075 -1.9661  0.0709  0.1237
 1208TIP3    H225040   1.501   3.128   0.052 -0.7549  1.0002 -0.8288
 1209TIP3   OH225041   2.448   1.452   3.492 -0.0688  0.3897 -0.1078
 1209TIP3    H125042   2.479   1.487   3.409  0.4527  1.5823  0.5798
 1209TIP3    H225043   2.527   1.418   3.535 -0.3801 -0.4925 -0.2220
 1210TIP3   OH225044   5.942   1.649   5.105 -0.1740  0.1926 -0.4202
 1210TIP3    H125045   5.872   1.675   5.046  0.4349  0.0823 -1.2099
 1210TIP3    H225046   6.009   1.717   5.096 -0.1356  0.2493  0.2488
 1211TIP3   OH225047   5.994   0.509  14.120 -0.3557 -0.2414 -0.2048
 1211TIP3    H125048   5.935   0.469  14.057 -0.6257 -0.7451  0.3623
 1211TIP3    H225049   6.072   0.530  14.070 -2.1704  3.3238 -1.6977
 1212TIP3   OH225050   3.941   2.220   1.501  0.4061  0.1648  0.2437
 1212TIP3    H125051   3.855   2.234   1.542 -1.0908 -1.3210 -2.1896
 1212TIP3    H225052   3.980   2.307   1.497 -2.2259  1.3846 -1.0661
 1213TIP3   OH225053   2.620   4.365   3.070  0.4342 -0.4630 -0.1951
 1213TIP3    H125054   2.539   4.415   3.070 -1.2148 -3.0255  1.1816
 1213TIP3    H225055   2.607   4.298   3.003  1.8357 -0.2638 -0.6827
 1214TIP3   OH225056   0.629   1.216   1.196  0.1285 -0.1584 -0.1384
 1214TIP3    H125057   0.673   1.205   1.111 -0.6400  0.7510 -0.6580
 1214TIP3    H225058   0.615   1.127   1.227  2.0002 -0.4789 -0.1397
 1215TIP3   OH225059   6.132   3.373  11.240 -0.0686  0.4697  0.1269
 1215TIP3    H125060   6.037   3.382  11.234  0.0595  1.5127 -0.4999
 1215TIP3    H225061   6.166   3.441  11.182  1.0520 -0.4652 -0.3516
 1216TIP3   OH225062   4.799   5.678   1.459 -0.2890  0.3073 -0.1039
 1216TIP3    H125063   4.705   5.700   1.458 -0.3923 -0.0259  1.4327
 1216TIP3    H225064   4.800   5.582   1.467  0.1677  0.5620  3.4659
 1217TIP3   OH225065   5.225   2.146   2.842  0.5642 -0.4222 -0.0766
 1217TIP3    H125066   5.271   2.148   2.926  1.2781  0.9995 -0.4910
 1217TIP3    H225067   5.198   2.054   2.832  0.7447 -0.6672  1.5434
 1218TIP3   OH225068   2.233   1.747   1.353  0.3232  0.1999 -0.2250
 1218TIP3    H125069   2.248   1.696   1.433  0.5424 -1.1663 -1.1099
 1218TIP3    H225070   2.260   1.836   1.375  2.5517 -0.6407  0.5440
 1219TIP3   OH225071   2.351   1.609   1.547  0.0151  0.0926  0.3257
 1219TIP3    H125072   2.286   1.541   1.564  0.2341 -0.3051 -0.4000
 1219TIP3    H225073   2.436   1.566   1.560  0.1807 -0.1372 -1.3987
 1220TIP3   OH225074   6.261   1.462   1.211  0.0610 -0.4637 -0.2688
 1220TIP3    H125075   6.326   1.432   1.148  0.5890  2.6902 -1.3371
 1220TIP3    H225076   6.177   1.439   1.171  0.4496 -1.4420 -0.5337
 1221TIP3   OH225077   6.496   0.268   0.195 -0.7627  0.5930 -0.0215
 1221TIP3    H125078   6.588   0.292   0.209 -0.7592  1.0294 -0.7837
 1221TIP3    H225079   6.499   0.201   0.126 -1.0278  0.7076 -0.1427
 1222TIP3   OH225080   6.127   0.991   3.526 -0.2138 -0.4094 -0.5038
 1222TIP3    H125081   6.126   0.969   3.619 -1.1331  1.2952 -0.0931
 1222TIP3    H225082   6.212   0.960   3.495 -0.0671 -1.3616  0.8014
 1223TIP3   OH225083   4.176   1.115   1.723  0.5298 -0.0609 -0.0147
 1223TIP3    H125084   4.228   1.115   1.643 -1.6055 -1.5812 -1.4525
 1223TIP3    H225085   4.086   1.096   1.694  0.0339 -2.5658  2.9099
 1224TIP3   OH225086   4.277   5.849   1.970  0.3874  0.0851 -0.4617
 1224TIP3    H125087   4.184   5.826   1.965  0.4974 -0.6339  0.5056
 1224TIP3    H225088   4.321   5.785   1.914  0.2744  0.6525 -1.2121
 1225TIP3   OH225089   4.030   2.410   0.425 -0.3792 -0.0148  0.6544
 1225TIP3    H125090   4.026   2.347   0.497 -0.2409  0.3627  0.9948
 1225TIP3    H225091   3.967   2.478   0.450 -2.2826 -1.1785 -0.8257
 1226TIP3   OH225092   1.603   0.750   1.101 -0.6179 -0.0517  0.0442
 1226TIP3    H125093   1.547   0.711   1.168 -0.8415 -0.8792 -0.6216
 1226TIP3    H225094   1.666   0.682   1.080  0.6790  0.8891  0.8149
 1227TIP3   OH225095   1.578   4.032  13.721  0.0608 -0.1276 -0.3745
 1227TIP3    H125096   1.571   4.043  13.816 -1.3120 -2.3956 -0.1806
 1227TIP3    H225097   1.613   3.944  13.709 -1.1371 -0.4095 -1.9913
 1228TIP3   OH225098   2.358   0.713  12.404 -0.4486  0.1492 -0.4087
 1228TIP3    H125099   2.382   0.701  12.496 -2.2888 -0.0779  0.0606
 1228TIP3    H225100   2.268   0.681  12.398 -1.5527  3.2666 -1.5355
 1229TIP3   OH225101   3.560   5.889  16.747  0.4308  0.1149 -0.1762
 1229TIP3    H125102   3.559   5.811  16.801  2.3438 -0.5933 -1.1290
 1229TIP3    H225103   3.510   5.954  16.797 -1.3010 -1.7442  0.5424
 1230TIP3   OH225104   6.052   3.950   2.132  0.2736 -0.3428 -0.3482
 1230TIP3    H125105   6.124   4.013   2.134  1.1833 -1.3462 -0.6994
 1230TIP3    H225106   6.051   3.911   2.220  0.3680 -0.5565 -0.4409
 1231TIP3   OH225107   2.483   4.432   0.041 -0.1134 -0.1231 -0.0742
 1231TIP3    H125108   2.398   4.388   0.046  0.7403 -1.6047  1.9579
 1231TIP3    H225109   2.547   4.361   0.038  1.1468  0.9796  0.3285
 1232TIP3   OH225110   6.635   4.266  15.835  0.4304 -0.4450  0.0708
 1232TIP3    H125111   6.658   4.175  15.852 -1.9676 -0.7289  2.0940
 1232TIP3    H225112   6.544   4.262  15.807  0.9550  1.1624 -1.9932
 1233TIP3   OH225113   5.915   1.722   0.270 -0.2971 -0.3845 -0.3191
 1233TIP3    H125114   5.945   1.807   0.239 -0.4878 -0.0278  0.4677
 1233TIP3    H225115   5.990   1.685   0.316 -1.2220  0.8152  2.2765
 1234TIP3   OH225116   0.973   4.937  12.457  0.4463  0.5473 -0.3147
 1234TIP3    H125117   0.984   4.897  12.543 -1.7760 -4.6525 -2.2812
 1234TIP3    H225118   0.889   4.983  12.464 -0.7056 -1.5131 -0.2308
 1235TIP3   OH225119   4.563   4.113   0.061 -0.1183 -0.1627  0.0039
 1235TIP3    H125120   4.533   4.167  -0.012  0.8192  0.2602 -0.0688
 1235TIP3    H225121   4.640   4.158   0.094  1.5757 -2.2423 -1.0122
 1236TIP3   OH225122   5.814   5.890  14.921  0.0957  0.4788  0.3015
 1236TIP3    H125123   5.828   5.886  15.016  0.1339  1.2744  0.3339
 1236TIP3    H225124   5.747   5.957  14.909 -0.3839 -0.0771 -0.1932
 1237TIP3   OH225125   1.178   1.839   2.336  0.1684  0.0914  0.0168
 1237TIP3    H125126   1.091   1.836   2.376  0.2489  1.5207  0.3352
 1237TIP3    H225127   1.239   1.837   2.410  0.3208  2.5145  0.0192
 1238TIP3   OH225128   4.743   5.615  16.434 -0.5338  0.0613 -0.1357
 1238TIP3    H125129   4.658   5.578  16.407 -1.0651  1.1918 -0.0295
 1238TIP3    H225130   4.797   5.538  16.454 -1.4412 -0.6775 -0.4812
 1239TIP3   OH225131   1.207   3.119  16.163 -0.2371 -0.6875  0.5309
 1239TIP3    H125132   1.125   3.168  16.157  0.3885  0.0950 -2.2739
 1239TIP3    H225133   1.180   3.027  16.172 -1.4500 -0.5990 -1.8535
 1240TIP3   OH225134   6.413   3.358  15.538  0.6811 -0.2002 -0.2350
 1240TIP3    H125135   6.344   3.306  15.496  1.4911 -0.5741 -1.1129
 1240TIP3    H225136   6.491   3.341  15.486  1.3098  0.6874  0.4030
 1241TIP3   OH225137   2.867   2.363  16.108 -0.0679 -0.1291 -0.4924
 1241TIP3    H125138   2.948   2.314  16.126 -0.7778 -0.8167  0.9875
 1241TIP3    H225139   2.836   2.389  16.195 -2.0682 -0.9150 -0.9550
 1242TIP3   OH225140   1.386   5.929   0.817 -0.3286  0.7916  0.1894
 1242TIP3    H125141   1.315   5.987   0.788 -0.1040  0.7332 -0.4730
 1242TIP3    H225142   1.464   5.985   0.816 -0.0299  0.3728 -0.8743
 1243TIP3   OH225143   4.754   5.189  16.268  1.0375 -0.1176  0.3079
 1243TIP3    H125144   4.729   5.108  16.224  1.8711 -0.0607 -0.2648
 1243TIP3    H225145   4.691   5.254  16.236 -1.1870 -1.0530  2.6225
 1244TIP3   OH225146   2.015   0.962  11.449 -0.6546 -0.1056 -0.1878
 1244TIP3    H125147   2.066   0.988  11.372 -1.0695  0.5414 -0.2426
 1244TIP3    H225148   1.993   1.044  11.492 -0.4682 -0.4639  0.5958
 1245TIP3   OH225149   1.542   3.129   2.878  0.1645 -0.0079 -0.1229
 1245TIP3    H125150   1.580   3.064   2.819  1.3357 -0.2269  0.8552
 1245TIP3    H225151   1.557   3.095   2.966 -2.4110 -0.1363  0.3061
 1246TIP3   OH225152   3.154   1.126  11.489  0.0975  0.4904 -0.4463
 1246TIP3    H125153   3.162   1.031  11.479 -0.8613  0.1488  1.8410
 1246TIP3    H225154   3.213   1.148  11.561 -0.5371  1.4723 -0.2171
 1247TIP3   OH225155   1.946   1.699   5.430 -0.7995 -0.2617 -0.3057
 1247TIP3    H125156   1.900   1.681   5.349 -3.0352 -0.5368  0.9765
 1247TIP3    H225157   1.924   1.625   5.487  0.7986 -0.1199  0.5191
 1248TIP3   OH225158   1.066   2.490  12.324  0.5019  0.3002 -0.1547
 1248TIP3    H125159   1.155   2.457  12.313  0.4091  0.1768 -0.5483
 1248TIP3    H225160   1.061   2.514  12.417  0.3628 -1.4316  0.3030
 1249TIP3   OH225161   0.488   1.817   1.591 -0.4142 -0.1852  0.1551
 1249TIP3    H125162   0.510   1.859   1.674 -2.6271  2.8727 -0.7142
 1249TIP3    H225163   0.526   1.874   1.524 -2.9933  0.1554 -1.0624
 1250TIP3   OH225164   3.809   4.243   4.364 -1.1196  0.1941 -0.4731
 1250TIP3    H125165   3.728   4.274   4.324 -1.7107 -0.7236 -0.0121
 1250TIP3    H225166   3.782   4.209   4.450 -0.2655 -0.2205 -0.3634
 1251TIP3   OH225167   1.586   0.387  15.301  0.0213 -0.0944 -0.3177
 1251TIP3    H125168   1.503   0.429  15.321  0.1546 -0.0053  0.0586
 1251TIP3    H225169   1.569   0.293  15.314 -0.6538 -0.3000 -2.4878
 1252TIP3   OH225170   3.433   5.824   2.129  0.2552 -0.0699 -0.2996
 1252TIP3    H125171   3.392   5.775   2.200 -0.1449 -0.4080 -0.7617
 1252TIP3    H225172   3.454   5.909   2.167 -1.0783  0.1816 -0.1155
 1253TIP3   OH225173   4.876   6.484   1.684 -0.1646  0.1030  0.1972
 1253TIP3    H125174   4.880   6.413   1.620 -0.1184  0.3413 -0.0648
 1253TIP3    H225175   4.807   6.542   1.652 -1.1227 -0.5023  1.1128
 1254TIP3   OH225176   1.906   0.536   5.930 -0.1852 -0.1583 -0.9647
 1254TIP3    H125177   1.980   0.476   5.945 -0.4818 -0.7296 -1.7767
 1254TIP3    H225178   1.899   0.541   5.835 -0.9566  0.1951 -0.8833
 1255TIP3   OH225179   3.641   3.635  13.343 -0.3511 -0.6559 -0.3378
 1255TIP3    H125180   3.692   3.715  13.356 -0.1285 -0.8287 -0.1453
 1255TIP3    H225181   3.571   3.661  13.283  0.5742 -0.6686 -1.4425
 1256TIP3   OH225182   5.361   5.289   4.857 -0.3069  0.1958  0.5418
 1256TIP3    H125183   5.398   5.207   4.824  3.1067  1.9173 -0.1918
 1256TIP3    H225184   5.348   5.274   4.950  3.3241 -0.2554  1.0750
 1257TIP3   OH225185   6.385   4.942   4.343 -0.6290  0.2305 -0.1402
 1257TIP3    H125186   6.481   4.940   4.348 -0.6928 -0.2298  1.0067
 1257TIP3    H225187   6.367   4.996   4.267  0.5935 -2.5193 -2.4957
 1258TIP3   OH225188   1.223   0.670  14.100 -0.2609 -0.1647  0.3352
 1258TIP3    H125189   1.289   0.604  14.078 -2.1230 -2.0935  0.3261
 1258TIP3    H225190   1.174   0.632  14.173  0.3281  2.4169  2.1407
 1259TIP3   OH225191   0.205   4.880   4.711 -0.3996 -0.0621  0.1189
 1259TIP3    H125192   0.205   4.864   4.616 -0.3767 -0.5913  0.2075
 1259TIP3    H225193   0.156   4.962   4.721 -0.4315 -0.0220 -0.3492
 1260TIP3   OH225194   4.454   1.808   0.569  0.1865  0.0507 -0.3351
 1260TIP3    H125195   4.388   1.846   0.511 -0.6551  0.0914  0.6479
 1260TIP3    H225196   4.472   1.875   0.634 -0.4877 -0.8113  0.7515
 1261TIP3   OH225197   6.373   3.694  11.706  0.4554  0.2532  0.1901
 1261TIP3    H125198   6.290   3.694  11.659  0.2699 -0.0851  0.5128
 1261TIP3    H225199   6.363   3.626  11.773  1.5046 -0.7736 -0.6650
 1262TIP3   OH225200   2.492   1.544   6.159  0.1725 -0.8155 -0.1330
 1262TIP3    H125201   2.553   1.509   6.225  3.8861  3.3384 -1.1794
 1262TIP3    H225202   2.474   1.469   6.102  2.2383 -2.8291  1.7251
 1263TIP3   OH225203   4.798   5.784   3.340 -0.4468  0.2085  0.5033
 1263TIP3    H125204   4.782   5.791   3.246  2.9098  0.6514 -0.1171
 1263TIP3    H225205   4.832   5.870   3.365  0.6504 -0.5335  1.6551
 1264TIP3   OH225206   1.850   3.096   0.787  0.2500  0.1722  0.0171
 1264TIP3    H125207   1.801   3.044   0.723  1.0245 -0.1076 -0.3471
 1264TIP3    H225208   1.896   3.162   0.735  1.1464 -0.2642  0.2418
 1265TIP3   OH225209   5.651   1.641   3.255  0.6747 -0.1826 -0.2210
 1265TIP3    H125210   5.743   1.630   3.231  0.5842 -0.4149 -0.4702
 1265TIP3    H225211   5.608   1.562   3.222  0.5070 -0.4054  0.5102
 1266TIP3   OH225212   2.117   2.859  16.502 -0.0946 -0.0842 -0.2790
 1266TIP3    H125213   2.162   2.939  16.477  1.1028 -0.3956  0.8286
 1266TIP3    H225214   2.024   2.882  16.498  0.2286  1.3654  0.0192
 1267TIP3   OH225215   4.483   2.769  13.569 -0.2431 -0.5769  0.3295
 1267TIP3    H125216   4.483   2.710  13.644  0.3281 -0.6600  0.2634
 1267TIP3    H225217   4.432   2.845  13.598  1.1308 -0.0067  1.2580
 1268TIP3   OH225218   3.497   6.111   2.164 -0.3985  0.3293  0.2696
 1268TIP3    H125219   3.576   6.164   2.158 -0.6291  1.0057  2.7016
 1268TIP3    H225220   3.425   6.174   2.151 -0.5748  0.0709  0.0026
 1269TIP3   OH225221   4.129   0.621  15.828 -0.4804 -0.6020  0.0372
 1269TIP3    H125222   4.139   0.562  15.753 -0.0828 -0.3737 -0.0974
 1269TIP3    H225223   4.167   0.704  15.798  0.7550 -0.8357  0.8740
 1270TIP3   OH225224   0.001   3.860   3.858 -0.2678 -0.3961  0.7627
 1270TIP3    H125225  -0.023   3.833   3.947 -1.0724  2.4172  1.4373
 1270TIP3    H225226  -0.066   3.923   3.833  0.4095 -0.5537 -1.5419
 1271TIP3   OH225227   2.737   6.551   2.385 -0.3240  0.0820 -0.0219
 1271TIP3    H125228   2.683   6.490   2.334 -0.0246 -1.3649  1.3627
 1271TIP3    H225229   2.827   6.522   2.371 -0.1592  0.3711  0.4169
 1272TIP3   OH225230   0.572   0.488  16.114 -0.1706  0.3071  0.5556
 1272TIP3    H125231   0.648   0.523  16.161  0.1859  0.5430 -0.1842
 1272TIP3    H225232   0.584   0.519  16.024 -0.2333 -1.1108  0.0566
 1273TIP3   OH225233   6.269   0.699   5.431  0.5640  0.1166  0.3540
 1273TIP3    H125234   6.311   0.781   5.458  2.0458 -0.2354 -0.8287
 1273TIP3    H225235   6.232   0.718   5.345  1.4226 -0.6272 -0.1830
 1274TIP3   OH225236   0.085   3.681   4.977  0.4710  0.5273 -0.0177
 1274TIP3    H125237   0.124   3.767   4.994  2.2517  0.0465 -1.4384
 1274TIP3    H225238   0.141   3.643   4.909 -0.3952 -1.6849  0.4740
 1275TIP3   OH225239   4.662   4.155  14.317 -0.2905 -0.6846 -0.5551
 1275TIP3    H125240   4.622   4.226  14.268 -0.9511  0.5704  1.7570
 1275TIP3    H225241   4.749   4.144  14.277 -0.0143  1.6939 -0.6577
 1276TIP3   OH225242   3.246   2.826  12.579 -0.3167  0.6206 -0.9347
 1276TIP3    H125243   3.259   2.803  12.487  1.9991  0.2478 -0.5604
 1276TIP3    H225244   3.214   2.916  12.578  0.4974  0.9032 -2.0950
 1277TIP3   OH225245   1.706   1.077  12.280 -0.2984 -0.7760 -0.8075
 1277TIP3    H125246   1.667   1.064  12.367  1.8706 -2.9815 -0.0933
 1277TIP3    H225247   1.778   1.138  12.295 -0.0058 -1.0557 -1.0739
 1278TIP3   OH225248   1.836   0.229  11.414 -0.0876  0.4440  0.0716
 1278TIP3    H125249   1.792   0.307  11.449  0.6657  0.6567  0.5627
 1278TIP3    H225250   1.851   0.174  11.491  2.3084  1.2785  0.2340
 1279TIP3   OH225251   5.036   1.889   5.436  0.3181 -0.5596  0.2784
 1279TIP3    H125252   4.977   1.881   5.361  1.7711  0.2225 -0.9920
 1279TIP3    H225253   5.123   1.873   5.399  1.2015  1.2058  1.5319
 1280TIP3   OH225254   1.831   2.909  14.006 -0.4033 -0.1514  0.2025
 1280TIP3    H125255   1.795   2.917  14.095 -0.5816  1.5416  0.0077
 1280TIP3    H225256   1.916   2.954  14.011 -1.2552  1.6492 -0.9200
 1281TIP3   OH225257   1.749   6.784  14.660 -0.0921 -0.2053  0.1410
 1281TIP3    H125258   1.830   6.833  14.665 -1.3843  2.0185 -0.3063
 1281TIP3    H225259   1.752   6.740  14.575  0.5053  0.0728  0.0184
 1282TIP3   OH225260   4.738   1.137   4.142 -0.3133  0.6559 -0.4545
 1282TIP3    H125261   4.698   1.224   4.139  1.1406  1.3084 -1.6657
 1282TIP3    H225262   4.715   1.097   4.058 -2.0917 -0.6632  0.6290
 1283TIP3   OH225263   0.506   1.061  12.280 -0.4622 -0.3270  0.7860
 1283TIP3    H125264   0.491   1.016  12.364 -1.2947  0.8338  1.2789
 1283TIP3    H225265   0.593   1.032  12.252 -0.5713 -1.4664  1.5783
 1284TIP3   OH225266   0.822   6.189   2.006  0.4497  0.7259 -0.0696
 1284TIP3    H125267   0.741   6.181   1.955 -0.3217  1.3518  1.0193
 1284TIP3    H225268   0.887   6.222   1.944  0.6843 -2.6569 -1.7372
 1285TIP3   OH225269   6.487   5.158  11.196  0.0324 -0.2097  0.3669
 1285TIP3    H125270   6.580   5.145  11.212 -0.1764 -1.2100  0.8408
 1285TIP3    H225271   6.480   5.177  11.103  0.6564 -0.7845  0.1991
 1286TIP3   OH225272   2.122   1.524   2.486  0.0059  0.3262  0.3178
 1286TIP3    H125273   2.096   1.441   2.447  2.1408  0.7210 -2.0680
 1286TIP3    H225274   2.090   1.590   2.425  0.5680  1.1235  0.8775
 1287TIP3   OH225275   4.405   1.199  14.211 -0.1500  0.1456 -0.1219
 1287TIP3    H125276   4.406   1.183  14.116  1.2833  0.0378 -0.1011
 1287TIP3    H225277   4.412   1.294  14.219  1.3668  0.0518 -0.1223
 1288TIP3   OH225278   2.454   0.668  14.157 -0.4665  0.2767  0.3471
 1288TIP3    H125279   2.386   0.693  14.219  0.1158 -0.6364  1.3650
 1288TIP3    H225280   2.442   0.573  14.146 -1.3126  0.6021 -1.8409
 1289TIP3   OH225281   0.613   6.377   2.854  0.2457  0.2254  0.0414
 1289TIP3    H125282   0.560   6.365   2.775 -0.5338 -0.2200  0.6187
 1289TIP3    H225283   0.701   6.394   2.822 -0.7508  3.7705 -0.9948
 1290TIP3   OH225284   0.550   1.272  12.485 -0.2881  0.2442 -0.6722
 1290TIP3    H125285   0.505   1.240  12.563 -0.4508  1.5006 -0.2494
 1290TIP3    H225286   0.521   1.213  12.415 -0.6438 -0.4821  0.0879
 1291TIP3   OH225287   3.565   0.437   4.793  0.8628  0.0415 -0.0938
 1291TIP3    H125288   3.599   0.351   4.768  1.6667  0.4278 -0.3319
 1291TIP3    H225289   3.641   0.495   4.789  0.0459  1.0496 -1.2874
 1292TIP3   OH225290   1.350   2.461  16.335 -0.4612 -0.5821 -0.4746
 1292TIP3    H125291   1.332   2.367  16.342 -3.0578  0.0121  1.6116
 1292TIP3    H225292   1.264   2.501  16.320  0.3419  1.6331  0.5758
 1293TIP3   OH225293   3.646   5.920   3.214 -0.7020 -0.0966  0.2152
 1293TIP3    H125294   3.591   5.847   3.188 -0.4974  0.5134 -2.1053
 1293TIP3    H225295   3.601   5.961   3.287 -2.2872 -0.8361 -0.3364
 1294TIP3   OH225296   3.036   4.797  12.489 -0.6064  0.6126 -0.3436
 1294TIP3    H125297   3.126   4.765  12.490 -0.6406  0.5023 -0.5646
 1294TIP3    H225298   2.987   4.729  12.442 -0.9385  0.3247  0.4192
 1295TIP3   OH225299   2.181   4.748  11.453 -0.4891 -0.2026  0.5392
 1295TIP3    H125300   2.239   4.677  11.423  1.7009  2.2775 -1.3137
 1295TIP3    H225301   2.240   4.817  11.483 -2.5424  1.4352  0.9368
 1296TIP3   OH225302   4.888   0.957  15.486  0.0651  0.0482 -0.7639
 1296TIP3    H125303   4.954   1.026  15.480  0.6437 -0.3636  0.7236
 1296TIP3    H225304   4.935   0.877  15.462  0.1121 -0.2449  0.2968
 1297TIP3   OH225305   1.706   2.753  14.620 -0.7217  0.0617 -0.4101
 1297TIP3    H125306   1.676   2.822  14.679  2.6073 -0.0876  1.5709
 1297TIP3    H225307   1.760   2.799  14.555 -1.1807 -0.2747 -1.0371
 1298TIP3   OH225308   4.513   5.238  13.249  0.4010 -0.2830 -0.2229
 1298TIP3    H125309   4.496   5.323  13.209  0.6942  0.5369  1.3373
 1298TIP3    H225310   4.488   5.250  13.341  2.5085 -1.2113  0.4979
 1299TIP3   OH225311   5.735   5.602  12.368  0.3179  1.1605  0.1468
 1299TIP3    H125312   5.775   5.688  12.353 -0.9520  1.5815 -0.9055
 1299TIP3    H225313   5.791   5.542  12.319  0.9511  1.4384  0.5149
 1300TIP3   OH225314   4.777   4.767   4.603 -0.2634  0.6023 -0.2160
 1300TIP3    H125315   4.781   4.766   4.699 -0.7517  0.8061 -0.1961
 1300TIP3    H225316   4.848   4.708   4.576 -0.7985 -0.2895  0.2935
 1301TIP3   OH225317   2.473   5.280   3.132 -0.3268 -0.6285 -0.7747
 1301TIP3    H125318   2.504   5.236   3.053  1.1644 -0.2023 -0.4382
 1301TIP3    H225319   2.504   5.370   3.124 -0.4669 -0.4929  0.1337
 1302TIP3   OH225320   1.234   3.285  14.432 -0.2918 -0.1894 -0.8255
 1302TIP3    H125321   1.159   3.238  14.469 -0.0201 -0.2683 -0.3689
 1302TIP3    H225322   1.201   3.323  14.350 -0.8894 -0.0392 -0.5172
 1303TIP3   OH225323   5.537   5.249  14.741 -0.4427  0.5261 -1.0685
 1303TIP3    H125324   5.489   5.311  14.795  1.3934  0.4315  0.7535
 1303TIP3    H225325   5.470   5.194  14.702 -1.8644  0.9304  0.7276
 1304TIP3   OH225326   5.193   1.372  15.849  0.1209 -0.3525  0.2979
 1304TIP3    H125327   5.274   1.413  15.879  1.2306 -0.6998 -2.1471
 1304TIP3    H225328   5.166   1.424  15.774 -0.5963 -1.7265 -0.4137
 1305TIP3   OH225329   6.221   0.438  10.608  0.8128  0.0960 -0.4163
 1305TIP3    H125330   6.216   0.510  10.671  1.0194  1.2159 -1.6624
 1305TIP3    H225331   6.308   0.401  10.620  0.3967 -0.5249  0.8321
 1306TIP3   OH225332   2.098   5.307  11.076  0.2451  0.3683  0.2338
 1306TIP3    H125333   2.175   5.354  11.044 -0.4936  2.5730  1.5854
 1306TIP3    H225334   2.111   5.217  11.047  1.4271  1.4901 -2.9865
 1307TIP3   OH225335   4.117   4.325   4.366 -0.2712 -0.7149 -0.5120
 1307TIP3    H125336   4.025   4.298   4.372 -0.0415 -0.9516  2.7648
 1307TIP3    H225337   4.167   4.252   4.401  0.9363  0.6571  0.7252
 1308TIP3   OH225338   0.897   1.660   1.945 -0.2369 -0.3470 -0.6377
 1308TIP3    H125339   0.944   1.714   2.009 -1.4290  1.7160 -1.4547
 1308TIP3    H225340   0.942   1.677   1.862 -0.5990 -0.6305 -0.8910
 1309TIP3   OH225341   0.752   4.903   1.221  0.1190 -0.2736  0.1343
 1309TIP3    H125342   0.770   4.939   1.308 -1.8463  1.7169 -0.2284
 1309TIP3    H225343   0.827   4.931   1.167  1.0972 -1.0971  1.0546
 1310TIP3   OH225344   3.689   5.879  16.500 -0.2087  0.4276  0.6472
 1310TIP3    H125345   3.687   5.973  16.482  1.4985  0.4436  0.4894
 1310TIP3    H225346   3.665   5.872  16.592 -0.3175  1.0263  0.6675
 1311TIP3   OH225347   6.391   4.137  10.773 -0.1158  0.1053 -0.2911
 1311TIP3    H125348   6.481   4.104  10.775 -0.1240  0.1333  1.3062
 1311TIP3    H225349   6.342   4.071  10.723  0.3236 -1.1563  0.9046
 1312TIP3   OH225350   3.640   5.263  16.501  0.1423 -0.1113 -0.5023
 1312TIP3    H125351   3.644   5.176  16.462  0.3048 -0.5298  0.4283
 1312TIP3    H225352   3.717   5.308  16.468  1.6575 -1.3036  1.2884
 1313TIP3   OH225353   4.053   1.537  14.729 -0.1458 -0.4077  0.1762
 1313TIP3    H125354   4.086   1.464  14.676  1.6677  0.4116  0.1415
 1313TIP3    H225355   4.125   1.600  14.729 -0.8065  0.3538  2.1595
 1314TIP3   OH225356   5.463   1.358   4.570  0.0971  0.4687 -0.8711
 1314TIP3    H125357   5.517   1.285   4.600  0.8061  1.2230 -0.2715
 1314TIP3    H225358   5.380   1.346   4.615  0.4719  0.4551 -0.1674
 1315TIP3   OH225359   2.523   0.286  13.961  0.2262  0.1548 -0.2456
 1315TIP3    H125360   2.475   0.213  14.002  0.2768  0.3077  0.0891
 1315TIP3    H225361   2.583   0.244  13.900  1.7972 -0.2375  1.5072
 1316TIP3   OH225362   4.628   1.906   2.064 -0.4683  0.3994 -0.8214
 1316TIP3    H125363   4.582   1.823   2.078  1.5604 -0.7837 -1.0507
 1316TIP3    H225364   4.630   1.947   2.150 -1.9478  0.4830 -0.8057
 1317TIP3   OH225365   2.363   5.489  11.961 -0.2111  0.4904 -0.3663
 1317TIP3    H125366   2.324   5.569  11.996  0.6464  1.2187 -1.0490
 1317TIP3    H225367   2.337   5.489  11.869  2.4582  1.6791 -1.1718
 1318TIP3   OH225368   4.101   0.921   1.018  0.0414 -0.6949  0.0158
 1318TIP3    H125369   4.160   0.972   1.073  1.1490 -2.3890  0.4457
 1318TIP3    H225370   4.158   0.881   0.952 -0.7741 -1.4825 -0.2232
 1319TIP3   OH225371   1.884   6.191   2.493  0.1483  0.6332  0.1496
 1319TIP3    H125372   1.858   6.239   2.572  1.5751  0.7100  0.5865
 1319TIP3    H225373   1.933   6.256   2.442  0.6978  0.0925 -0.0040
 1320TIP3   OH225374   2.517   4.885   1.041 -0.3046 -0.2909  0.0394
 1320TIP3    H125375   2.468   4.827   0.982 -0.9049  0.6106 -0.3670
 1320TIP3    H225376   2.459   4.897   1.116 -1.0168  1.3116 -0.7392
 1321TIP3   OH225377   6.712   2.241  14.283 -0.2511 -0.1329 -0.1868
 1321TIP3    H125378   6.755   2.235  14.198 -0.1817 -0.8996 -0.1014
 1321TIP3    H225379   6.783   2.232  14.347 -0.6212 -2.2211 -0.0397
 1322TIP3   OH225380   3.362   1.327  11.987 -0.0962  0.2607  0.3794
 1322TIP3    H125381   3.439   1.375  11.957  1.2205 -0.6915  2.1291
 1322TIP3    H225382   3.393   1.239  12.004 -1.5643 -0.1435  1.1277
 1323TIP3   OH225383   4.413   1.507   2.613  0.3234 -1.4399  0.0691
 1323TIP3    H125384   4.320   1.483   2.603  0.0822  0.1618 -1.7808
 1323TIP3    H225385   4.413   1.602   2.613  2.0009 -1.4287 -0.1943
 1324TIP3   OH225386   0.046   4.193   6.379  0.1157 -0.3953  0.0107
 1324TIP3    H125387   0.123   4.161   6.333 -0.2361 -2.1408  0.5814
 1324TIP3    H225388   0.003   4.113   6.412 -2.7227  0.3881 -1.5737
 1325TIP3   OH225389   1.052   5.221  15.125 -0.3809  0.2951  0.5469
 1325TIP3    H125390   0.965   5.205  15.163  0.3929  1.2276  2.8034
 1325TIP3    H225391   1.111   5.166  15.176  0.5402  0.6996 -0.0649
 1326TIP3   OH225392   4.014   3.802   1.849  0.0379  0.5368  0.1930
 1326TIP3    H125393   4.018   3.885   1.897  1.1638  0.8106 -0.3443
 1326TIP3    H225394   4.045   3.824   1.761  2.6601 -0.9179  0.7075
 1327TIP3   OH225395   4.992   5.130  12.831 -0.0559  0.2096  0.6054
 1327TIP3    H125396   4.954   5.074  12.898  1.2097  1.3357  2.2939
 1327TIP3    H225397   4.957   5.217  12.851  1.1390  0.7329  0.4399
 1328TIP3   OH225398   2.575   1.864  13.235 -0.1460  0.0851  0.1349
 1328TIP3    H125399   2.509   1.885  13.168 -1.9484 -1.9042  1.2081
 1328TIP3    H225400   2.531   1.801  13.292  2.6599 -1.1263  1.0212
 1329TIP3   OH225401   4.740   3.174   4.323  0.1137 -0.2388 -0.7925
 1329TIP3    H125402   4.789   3.092   4.314  0.2529 -0.1141 -1.1516
 1329TIP3    H225403   4.648   3.147   4.321  0.1490 -0.6134  1.0925
 1330TIP3   OH225404   2.719   4.803   3.517 -0.0866  0.3396 -0.5678
 1330TIP3    H125405   2.805   4.773   3.547 -0.2893  0.9054  0.5981
 1330TIP3    H225406   2.723   4.795   3.421  1.7372  1.6258 -0.6272
 1331TIP3   OH225407   1.984   0.458  12.045  0.2988  0.2610 -0.7384
 1331TIP3    H125408   1.987   0.428  11.955 -1.4653 -0.1160 -0.6998
 1331TIP3    H225409   1.936   0.540  12.042  0.2048  0.2359 -0.1449
 1332TIP3   OH225410   0.549   5.514  14.858  0.5700 -0.1704  0.3956
 1332TIP3    H125411   0.595   5.594  14.834 -1.4047  0.3659 -1.7238
 1332TIP3    H225412   0.523   5.527  14.949  1.8661  0.7977  0.6428
 1333TIP3   OH225413   3.351   0.395   1.574 -0.1688  0.5593 -0.0376
 1333TIP3    H125414   3.360   0.300   1.569 -1.4718  0.3700  0.9556
 1333TIP3    H225415   3.425   0.423   1.627  0.7335  0.2167 -1.0764
 1334TIP3   OH225416   2.753   1.737   4.801  0.5591 -0.1121  0.3897
 1334TIP3    H125417   2.733   1.824   4.767 -0.7385 -0.1598  0.9919
 1334TIP3    H225418   2.848   1.735   4.809  0.6146  1.1199  0.0222
 1335TIP3   OH225419   4.763   5.255   5.112 -0.2123 -0.0916 -0.5401
 1335TIP3    H125420   4.801   5.253   5.024 -0.7975 -2.4187 -0.7843
 1335TIP3    H225421   4.669   5.264   5.097 -0.3244 -0.6190 -0.1650
 1336TIP3   OH225422   3.835   5.585   0.577  0.3335  0.1660 -0.9875
 1336TIP3    H125423   3.868   5.659   0.526  4.2438 -1.5098 -1.0539
 1336TIP3    H225424   3.873   5.597   0.664 -1.8296  0.0421  0.0149
 1337TIP3   OH225425   6.214   5.156  12.628 -0.0650  0.0203  0.2319
 1337TIP3    H125426   6.280   5.091  12.651 -0.4348 -0.4412 -0.0009
 1337TIP3    H225427   6.246   5.197  12.548 -2.0352 -3.0712 -2.2404
 1338TIP3   OH225428   5.898   0.761  17.094  0.5363 -0.3873  0.2669
 1338TIP3    H125429   5.951   0.839  17.114  2.1937 -1.1173 -1.1954
 1338TIP3    H225430   5.871   0.728  17.180  0.4047  1.3865  0.9321
 1339TIP3   OH225431   4.508   1.078   2.598 -0.4052  0.5642  0.2947
 1339TIP3    H125432   4.419   1.113   2.589  0.0487  1.7579  0.3290
 1339TIP3    H225433   4.552   1.140   2.656  0.0728 -0.7387  1.3419
 1340TIP3   OH225434   6.741   5.909   2.780 -0.2678  0.1985  0.0626
 1340TIP3    H125435   6.687   5.836   2.749  0.3202  0.4065 -1.4764
 1340TIP3    H225436   6.689   5.950   2.849 -1.3042 -0.6847 -0.1858
 1341TIP3   OH225437   6.494   6.561  11.875 -0.0819 -0.0192 -0.0860
 1341TIP3    H125438   6.482   6.490  11.813 -2.0206 -1.5007  1.9173
 1341TIP3    H225439   6.589   6.568  11.885  0.1656 -1.3843 -1.3734
 1342TIP3   OH225440   5.389   0.277   4.481  0.3538 -0.4572 -0.4412
 1342TIP3    H125441   5.337   0.221   4.423  1.0423 -0.8359 -0.6993
 1342TIP3    H225442   5.470   0.292   4.433  0.7538 -0.4228  0.2501
 1343TIP3   OH225443   4.590   5.454   1.913  0.1501  0.1205 -0.1587
 1343TIP3    H125444   4.654   5.435   1.844  2.9101 -0.6373  2.4872
 1343TIP3    H225445   4.542   5.372   1.924 -0.4045  0.2936 -1.2707
 1344TIP3   OH225446   0.797   6.624  16.669  0.4017  0.4961 -0.1607
 1344TIP3    H125447   0.764   6.647  16.756 -0.8881  1.0518 -0.7802
 1344TIP3    H225448   0.854   6.549  16.683 -0.6033 -0.0550  1.0349
 1345TIP3   OH225449   1.337   0.147  12.201  0.6528 -0.1443  0.7335
 1345TIP3    H125450   1.316   0.185  12.286 -0.4664  1.9926 -0.4647
 1345TIP3    H225451   1.312   0.214  12.138  3.4219 -0.8419 -1.1966
 1346TIP3   OH225452   1.182   4.628   1.006 -0.1393 -0.2871  0.7567
 1346TIP3    H125453   1.276   4.624   0.985  0.0954 -0.1644  1.7855
 1346TIP3    H225454   1.153   4.537   0.999  0.0195 -0.3069  0.2894
 1347TIP3   OH225455   1.140   1.383  13.322 -0.0873 -0.2596 -0.3365
 1347TIP3    H125456   1.166   1.299  13.360  1.2203  0.2889  0.0091
 1347TIP3    H225457   1.055   1.365  13.282 -1.5196 -0.8455  2.8032
 1348TIP3   OH225458   3.488   1.947   0.035 -0.0293 -0.1099 -0.1809
 1348TIP3    H125459   3.461   1.911   0.119  0.3506 -1.7739 -0.7519
 1348TIP3    H225460   3.437   1.899  -0.030  0.3355  0.5179 -0.9532
 1349TIP3   OH225461   2.837   1.690   1.614  0.1882  0.7655 -0.4448
 1349TIP3    H125462   2.807   1.601   1.597  0.8748  0.2819  0.7934
 1349TIP3    H225463   2.815   1.706   1.706  1.1045  1.4447 -0.3310
 1350TIP3   OH225464   0.942   4.426  10.928  0.6131 -0.0956  0.2316
 1350TIP3    H125465   0.917   4.504  10.878  0.4364 -0.6180 -0.5170
 1350TIP3    H225466   1.035   4.415  10.910  0.3546 -0.8136 -0.7566
 1351TIP3   OH225467   3.761   2.953   3.816 -0.2166 -0.3297  0.0830
 1351TIP3    H125468   3.748   2.937   3.909 -0.9900 -2.6370 -0.3899
 1351TIP3    H225469   3.838   2.900   3.793  0.7808  1.2654 -0.3314
 1352TIP3   OH225470   5.776   3.255   0.840  0.7894 -0.6746 -0.1344
 1352TIP3    H125471   5.682   3.261   0.823  0.3935  0.0067  2.1096
 1352TIP3    H225472   5.793   3.323   0.905  2.6178 -1.5467  0.3366
 1353TIP3   OH225473   2.008   2.205  13.708 -0.4209 -0.0541 -0.4669
 1353TIP3    H125474   2.002   2.201  13.613  0.7365 -0.2184 -0.5394
 1353TIP3    H225475   2.026   2.115  13.735  0.5790  0.2127 -0.2027
 1354TIP3   OH225476   4.172   1.151  13.552  0.0817  0.1328 -0.1352
 1354TIP3    H125477   4.078   1.167  13.550  0.0623  0.0846  0.3207
 1354TIP3    H225478   4.208   1.229  13.596  0.2717  0.2413 -0.4843
 1355TIP3   OH225479   3.654   0.238   2.074  0.6295  0.2962 -0.0434
 1355TIP3    H125480   3.628   0.269   1.987 -0.9256 -1.1393 -0.1054
 1355TIP3    H225481   3.623   0.307   2.134 -0.0404  0.3626 -0.4610
 1356TIP3   OH225482   2.192   1.007  14.456 -0.0103 -0.1413  0.1607
 1356TIP3    H125483   2.101   1.010  14.428 -0.2540 -0.6488  0.8674
 1356TIP3    H225484   2.188   0.988  14.550  0.7734  2.2934  0.7290
 1357TIP3   OH225485   6.652   6.457  14.512  0.2882 -0.0451 -0.3886
 1357TIP3    H125486   6.645   6.522  14.443 -0.2510  0.5279  0.1941
 1357TIP3    H225487   6.653   6.509  14.593 -0.7080 -0.7968  0.1051
 1358TIP3   OH225488   5.347   6.636  16.951  0.1707 -0.3584 -0.2260
 1358TIP3    H125489   5.267   6.677  16.984  0.1908 -0.3830 -0.1445
 1358TIP3    H225490   5.317   6.570  16.889  0.1119 -0.6186  0.0790
 1359TIP3   OH225491   2.484   3.158  15.926  0.1732 -0.3777 -0.2985
 1359TIP3    H125492   2.556   3.122  15.977 -0.4371 -0.8417  0.2393
 1359TIP3    H225493   2.440   3.081  15.889 -1.9958 -0.3011  2.0116
 1360TIP3   OH225494   6.008   5.573   1.786 -0.8280 -0.1274 -0.4098
 1360TIP3    H125495   5.913   5.582   1.792 -0.5473  2.1894  0.9348
 1360TIP3    H225496   6.032   5.524   1.865 -0.7104  1.0214  0.2774
 1361TIP3   OH225497   0.794   5.585   5.799 -0.2517  0.1219 -1.2180
 1361TIP3    H125498   0.878   5.584   5.753 -0.1649 -1.5018 -1.0748
 1361TIP3    H225499   0.752   5.503   5.772 -0.7001 -0.2943  0.6757
 1362TIP3   OH225500   1.928   4.944   3.155 -0.3209 -0.5145 -0.5565
 1362TIP3    H125501   1.959   4.955   3.065 -1.9616  2.4852 -0.8321
 1362TIP3    H225502   2.002   4.969   3.210 -0.0944  0.0802 -1.1257
 1363TIP3   OH225503   2.706   2.302  15.518  0.0663 -0.0736  0.1270
 1363TIP3    H125504   2.681   2.263  15.435 -1.6324 -1.1141  1.1010
 1363TIP3    H225505   2.646   2.263  15.582  2.4797 -0.6436  2.1261
 1364TIP3   OH225506   4.671   5.361  15.111 -0.5217  0.3834  0.7123
 1364TIP3    H125507   4.650   5.368  15.018 -0.1494  1.1883  0.6906
 1364TIP3    H225508   4.588   5.335  15.152 -0.8468  0.6797  0.2446
 1365TIP3   OH225509   3.824   0.396   2.397  0.8135  0.4783 -0.3062
 1365TIP3    H125510   3.828   0.472   2.455 -0.7590 -0.0997  0.5744
 1365TIP3    H225511   3.858   0.324   2.451  1.0160  0.2831 -0.6936
 1366TIP3   OH225512   4.450   1.221   0.499 -0.7549  0.0111  0.1897
 1366TIP3    H125513   4.421   1.310   0.479  0.7124  0.2213 -1.1028
 1366TIP3    H225514   4.503   1.196   0.423  1.5627 -0.7159  2.0067
 1367TIP3   OH225515   2.955   3.447  17.040 -0.3958  0.4936 -0.1013
 1367TIP3    H125516   2.865   3.471  17.020 -0.2218  0.9142 -0.4011
 1367TIP3    H225517   3.005   3.528  17.028  0.1004  0.1400 -0.4884
 1368TIP3   OH225518   1.425   5.575   4.988 -0.1151  0.1622  0.1707
 1368TIP3    H125519   1.342   5.589   4.943  0.6266  0.6936 -1.0705
 1368TIP3    H225520   1.474   5.516   4.930  0.3858 -0.1138  0.8715
 1369TIP3   OH225521   6.403   4.871  12.944  0.2023 -0.1048 -0.7513
 1369TIP3    H125522   6.406   4.910  12.856  0.9487 -2.3512 -1.7685
 1369TIP3    H225523   6.358   4.787  12.931 -0.7192  0.0498  1.2394
 1370TIP3   OH225524   5.457   5.710  11.999  0.5447  0.3511 -0.0636
 1370TIP3    H125525   5.422   5.665  12.076  1.5699  1.4072  1.0474
 1370TIP3    H225526   5.417   5.797  12.002  0.4976  0.3529 -0.7826
 1371TIP3   OH225527   6.535   1.397   1.076  0.2291  0.2020  0.0306
 1371TIP3    H125528   6.618   1.402   1.123  0.6691 -0.3248 -0.6937
 1371TIP3    H225529   6.548   1.452   0.999  0.1768 -0.5525 -0.5103
 1372TIP3   OH225530   1.190   6.415   1.603 -0.3784 -0.1215  0.2994
 1372TIP3    H125531   1.161   6.475   1.671  0.0865 -0.1223  0.5019
 1372TIP3    H225532   1.286   6.423   1.603 -0.5305  2.4566 -2.7256
 1373TIP3   OH225533   1.089   0.366   4.212 -0.3927 -0.1894 -0.2117
 1373TIP3    H125534   1.081   0.408   4.298 -1.3086 -0.5744 -0.0997
 1373TIP3    H225535   1.143   0.289   4.228 -0.5668 -0.2645  0.0165
 1374TIP3   OH225536   5.934   6.704  11.024  0.3988 -0.1686 -0.4999
 1374TIP3    H125537   5.949   6.798  11.018 -0.8288  0.0722 -0.0723
 1374TIP3    H225538   6.020   6.666  11.039  1.1526  0.7238 -2.4451
 1375TIP3   OH225539   4.935   3.111  13.541  0.2942 -0.2298  0.1389
 1375TIP3    H125540   4.945   3.083  13.632 -0.3046  2.4883  1.0816
 1375TIP3    H225541   4.850   3.154  13.538  0.5505  0.1868 -1.5759
 1376TIP3   OH225542   4.119   2.070   5.038 -0.3149 -0.0515 -0.9804
 1376TIP3    H125543   4.140   2.016   5.114 -3.2409  3.4432  2.5535
 1376TIP3    H225544   4.204   2.099   5.005  1.0303 -0.2036  2.1426
 1377TIP3   OH225545   0.556   5.979  17.141 -0.3077 -0.2166  0.3235
 1377TIP3    H125546   0.635   6.033  17.137 -0.0247 -0.7151 -2.0860
 1377TIP3    H225547   0.521   5.992  17.229  1.5320  1.3422  0.8444
 1378TIP3   OH225548   3.534   4.027   0.277 -0.6509 -0.7919 -0.3357
 1378TIP3    H125549   3.510   3.939   0.309 -1.9403 -0.0321  0.8733
 1378TIP3    H225550   3.472   4.085   0.321 -1.2793  0.5121 -2.8450
 1379TIP3   OH225551   3.833   1.522  15.057 -0.0117  0.3798 -0.6122
 1379TIP3    H125552   3.882   1.474  14.991 -0.6776 -0.7315 -0.3243
 1379TIP3    H225553   3.805   1.454  15.119  1.4673  1.5202  1.3661
 1380TIP3   OH225554   0.133   6.261   5.318  0.0560  0.2755  0.3405
 1380TIP3    H125555   0.214   6.248   5.270 -0.0915 -0.0390  0.1724
 1380TIP3    H225556   0.101   6.172   5.334 -1.8869  0.4298 -2.3558
 1381TIP3   OH225557   3.107   5.964   3.602 -0.6461  0.0831 -0.0134
 1381TIP3    H125558   3.149   5.888   3.643  0.8259 -0.4435 -2.3953
 1381TIP3    H225559   3.080   6.019   3.676 -1.4680 -2.5835  1.7414
 1382TIP3   OH225560   2.558   2.710  12.569 -0.0962 -0.2250 -0.0120
 1382TIP3    H125561   2.578   2.697  12.476 -0.3159 -1.8144  0.1364
 1382TIP3    H225562   2.480   2.766  12.569 -0.3489 -0.5700 -0.8043
 1383TIP3   OH225563   4.301   2.309  15.195 -0.3156 -0.4346 -0.4649
 1383TIP3    H125564   4.324   2.219  15.218 -0.4228 -0.1311  0.8389
 1383TIP3    H225565   4.253   2.300  15.113  0.3992 -1.4881 -0.7895
 1384TIP3   OH225566   5.076   1.148   5.527  0.1032 -0.1931 -0.0187
 1384TIP3    H125567   5.038   1.066   5.560  0.4298 -0.3885 -0.1296
 1384TIP3    H225568   5.074   1.207   5.602 -1.9528  0.3333 -0.4408
 1385TIP3   OH225569   4.515   3.600  14.578 -0.1899  0.4941  0.2071
 1385TIP3    H125570   4.474   3.526  14.622  0.7549 -0.2176 -0.1051
 1385TIP3    H225571   4.486   3.594  14.487 -0.0709  0.4823  0.1705
 1386TIP3   OH225572   3.953   2.711   1.174  0.4004 -0.0653  0.0334
 1386TIP3    H125573   3.902   2.638   1.209 -0.8670  1.5720  1.7714
 1386TIP3    H225574   4.023   2.724   1.238  2.3930 -1.5893 -1.7741
 1387TIP3   OH225575   2.076   0.506  11.453 -0.1918 -0.2006 -0.1201
 1387TIP3    H125576   2.136   0.559  11.505 -0.3229 -0.8225  0.6662
 1387TIP3    H225577   1.989   0.544  11.470 -0.2212 -0.3348  0.0320
 1388TIP3   OH225578   2.346   3.903  15.516 -0.3159  0.0063 -0.1844
 1388TIP3    H125579   2.439   3.918  15.534 -0.2362 -1.3266  0.5997
 1388TIP3    H225580   2.329   3.953  15.436  0.9008  0.8213  0.0405
 1389TIP3   OH225581   4.405   4.608   5.344  0.4262  0.7590 -0.4140
 1389TIP3    H125582   4.386   4.678   5.283 -0.2602  1.7310  0.8851
 1389TIP3    H225583   4.464   4.647   5.408  1.9546 -0.5331 -1.0219
 1390TIP3   OH225584   1.087   2.149  17.184  0.1071  0.2165 -0.1862
 1390TIP3    H125585   1.080   2.167  17.090  1.1380  2.7191  0.1852
 1390TIP3    H225586   1.050   2.226  17.226  2.8186  0.6680  1.4709
 1391TIP3   OH225587   4.447   3.675  12.760 -0.2054 -0.0643  0.2209
 1391TIP3    H125588   4.506   3.662  12.834  1.1711 -0.7929 -0.9650
 1391TIP3    H225589   4.414   3.587  12.740  0.2191 -0.0268 -0.6609
 1392TIP3   OH225590   1.514   1.848   5.732 -0.5604 -0.1154 -0.5962
 1392TIP3    H125591   1.453   1.779   5.760  1.1555 -1.5173 -0.2665
 1392TIP3    H225592   1.572   1.805   5.669  3.5627 -0.3015  3.1212
 1393TIP3   OH225593   1.030   2.914   3.961 -0.3439  0.5145 -0.1214
 1393TIP3    H125594   1.033   2.866   3.878  2.6823  0.1228  0.1397
 1393TIP3    H225595   0.976   2.991   3.943 -1.7051 -0.7827 -1.7540
 1394TIP3   OH225596   0.141   6.591  14.993  0.1464 -0.4122 -0.5417
 1394TIP3    H125597   0.132   6.499  14.967  1.9680 -0.4824 -0.9997
 1394TIP3    H225598   0.197   6.589  15.071 -2.1223  0.1146  1.1600
 1395TIP3   OH225599   2.449   5.251  14.045  0.2132  0.0663  0.9361
 1395TIP3    H125600   2.434   5.338  14.082 -0.8782  0.6498 -0.8167
 1395TIP3    H225601   2.526   5.218  14.091  2.8860  3.4346 -0.9282
 1396TIP3   OH225602   2.877   0.903   2.804  0.5216  0.1734 -0.0973
 1396TIP3    H125603   2.914   0.857   2.728 -0.4362 -0.6240 -0.1025
 1396TIP3    H225604   2.914   0.991   2.799  0.8693 -0.0207 -1.2056
 1397TIP3   OH225605   2.333   2.829   0.283  0.0635  0.5347  0.1072
 1397TIP3    H125606   2.283   2.857   0.360  1.2770  1.4739  0.5657
 1397TIP3    H225607   2.274   2.770   0.237 -0.4813 -0.4969  2.0554
 1398TIP3   OH225608   1.569   4.103  14.190 -0.1500  0.3404 -0.2884
 1398TIP3    H125609   1.502   4.124  14.256 -0.4932  1.4047 -0.9719
 1398TIP3    H225610   1.637   4.056  14.239 -0.9577  0.0912  0.5944
 1399TIP3   OH225611   4.839   1.231  11.074 -0.0215 -0.0733 -0.5067
 1399TIP3    H125612   4.872   1.286  11.003 -1.8339 -1.0709 -2.1601
 1399TIP3    H225613   4.914   1.177  11.100  0.5233 -0.0263 -1.9601
 1400TIP3   OH225614   4.825   5.121   2.882 -0.3637  0.6213  0.3403
 1400TIP3    H125615   4.845   5.128   2.975  1.2515  3.0694 -0.1112
 1400TIP3    H225616   4.910   5.108   2.840 -1.0084  0.0747 -0.8326
 1401TIP3   OH225617   1.095   2.934   5.411 -0.1093 -0.2910  0.6562
 1401TIP3    H125618   0.999   2.933   5.412 -0.1541  1.9002  0.7312
 1401TIP3    H225619   1.118   2.969   5.325  0.7055 -3.3321 -0.4328
 1402TIP3   OH225620   3.526   3.543   4.778  0.1010  0.4469 -0.6429
 1402TIP3    H125621   3.555   3.619   4.726 -0.7352  0.6478 -0.8243
 1402TIP3    H225622   3.598   3.481   4.772  0.8409  1.2732 -0.4076
 1403TIP3   OH225623   6.534   6.737  15.293  0.0571 -0.0876  0.5121
 1403TIP3    H125624   6.551   6.647  15.265 -1.6866  0.0305 -1.0086
 1403TIP3    H225625   6.451   6.760  15.251 -1.2222  1.1060  3.5116
 1404TIP3   OH225626   1.092   3.249  16.487  0.0600  0.3231 -0.2946
 1404TIP3    H125627   1.062   3.158  16.490  1.6390 -0.1588  0.9977
 1404TIP3    H225628   1.025   3.293  16.434 -0.2340 -1.7617 -1.7455
 1405TIP3   OH225629   5.919   4.523  15.697  0.3058 -0.1833 -0.5002
 1405TIP3    H125630   5.917   4.619  15.696 -1.8456 -0.1946 -0.1889
 1405TIP3    H225631   5.975   4.501  15.770 -1.6427  0.8716  1.3699
 1406TIP3   OH225632   1.886   6.507  17.056  0.3693 -0.4303  0.2937
 1406TIP3    H125633   1.876   6.420  17.095  2.2170  0.0374  1.8645
 1406TIP3    H225634   1.826   6.563  17.105  1.9632 -0.0488  1.8386
 1407TIP3   OH225635   1.272   3.242   1.281 -0.6743 -0.2144  0.0676
 1407TIP3    H125636   1.346   3.185   1.258 -0.7428  0.0981 -0.9328
 1407TIP3    H225637   1.232   3.199   1.357 -0.8861 -1.6588 -0.8345
 1408TIP3   OH225638   2.584   0.852  13.979  0.1836  0.1032  0.0569
 1408TIP3    H125639   2.674   0.858  14.011  0.0140 -0.0628  0.5784
 1408TIP3    H225640   2.541   0.792  14.040 -0.3152  0.2878 -0.1074
 1409TIP3   OH225641   3.573   0.925  13.054  0.0397  0.7207  0.3030
 1409TIP3    H125642   3.663   0.916  13.085  0.4306 -0.2831 -1.1019
 1409TIP3    H225643   3.522   0.941  13.133  1.0219 -1.7240  1.4610
 1410TIP3   OH225644   2.547   2.828   6.001  0.1000 -0.5764  0.3131
 1410TIP3    H125645   2.564   2.883   6.077  0.7803  0.0729 -0.2914
 1410TIP3    H225646   2.633   2.819   5.959 -0.2055 -1.2170 -0.1745
 1411TIP3   OH225647   6.455   3.068  17.010 -0.1266 -0.3940 -0.2621
 1411TIP3    H125648   6.455   3.014  17.090  2.8670 -0.0816 -0.0128
 1411TIP3    H225649   6.481   3.155  17.040  3.3772 -0.8087 -1.8487
 1412TIP3   OH225650   1.630   2.519  11.897  0.0743 -0.0234 -0.4496
 1412TIP3    H125651   1.573   2.447  11.870  1.8361 -1.5299 -0.3208
 1412TIP3    H225652   1.694   2.526  11.826  0.1791  1.1150 -0.2427
 1413TIP3   OH225653   3.605   5.760   3.841  0.1278  0.1622  0.1642
 1413TIP3    H125654   3.555   5.686   3.807  1.8779  0.4056 -3.1454
 1413TIP3    H225655   3.695   5.730   3.842  0.4498  1.1148  2.1285
 1414TIP3   OH225656   5.637   4.938  15.904  0.4707  0.2423  0.2219
 1414TIP3    H125657   5.697   4.893  15.844 -1.3431 -1.7387 -0.1677
 1414TIP3    H225658   5.695   4.985  15.964  2.4587 -2.3644  0.4547
 1415TIP3   OH225659   6.450   3.675  12.983 -0.4094  0.4135  0.0880
 1415TIP3    H125660   6.519   3.676  13.050 -1.3922  1.5597  1.0911
 1415TIP3    H225661   6.382   3.732  13.018 -2.2333 -1.3482 -0.5287
 1416TIP3   OH225662   1.378   6.003  15.160  0.4170  0.4812 -0.3878
 1416TIP3    H125663   1.379   6.045  15.245  2.3449 -1.4787  0.6265
 1416TIP3    H225664   1.335   5.918  15.175  0.0496  0.4552 -1.5328
 1417TIP3   OH225665   4.520   4.731   3.799 -0.2726  0.2466 -0.5557
 1417TIP3    H125666   4.614   4.715   3.789 -0.3776 -0.1080 -0.9951
 1417TIP3    H225667   4.492   4.762   3.713 -0.5374  0.4582 -0.3928
 1418TIP3   OH225668   3.164   3.717   2.802 -0.4463 -0.4790 -0.5094
 1418TIP3    H125669   3.103   3.655   2.841 -0.1520  0.3177  1.2565
 1418TIP3    H225670   3.143   3.801   2.843  2.4114 -0.3516  0.8458
 1419TIP3   OH225671   0.582   5.892   6.214 -0.5894 -0.2196  0.4628
 1419TIP3    H125672   0.592   5.799   6.234  2.5130 -0.1249 -0.4538
 1419TIP3    H225673   0.627   5.904   6.130  0.3085  2.3548  1.2608
 1420TIP3   OH225674   2.003   6.347   2.284 -0.8642  0.5529  0.1606
 1420TIP3    H125675   1.988   6.314   2.195  0.0933  0.5914 -0.0146
 1420TIP3    H225676   2.000   6.442   2.274  1.6155  0.6170 -0.2628
 1421TIP3   OH225677   6.169   5.872   1.210 -0.2405 -0.1794 -0.2565
 1421TIP3    H125678   6.228   5.930   1.163 -1.0760  0.2056 -0.8451
 1421TIP3    H225679   6.091   5.865   1.154 -1.8456  1.4007  1.6808
 1422TIP3   OH225680   6.233   2.379   4.252  0.0418  0.6435  0.4839
 1422TIP3    H125681   6.247   2.462   4.297  0.0790  0.3159  1.0780
 1422TIP3    H225682   6.233   2.314   4.322 -0.1203  0.1592  0.0305
 1423TIP3   OH225683   4.315   6.568   5.078  0.0274  0.3931 -0.0799
 1423TIP3    H125684   4.278   6.565   4.990 -0.9800  0.8036  0.3280
 1423TIP3    H225685   4.249   6.526   5.134 -0.4852  2.4211  0.8728
 1424TIP3   OH225686   2.602   1.967   3.989  0.3150 -0.4481  0.3785
 1424TIP3    H125687   2.642   1.951   3.904 -0.2809  0.5396 -0.0965
 1424TIP3    H225688   2.606   1.883   4.034  1.3652 -0.7711 -0.3153
 1425TIP3   OH225689   0.455   5.324   4.776  0.6346 -0.0782  0.2024
 1425TIP3    H125690   0.547   5.320   4.750  1.3782  2.4736  2.2649
 1425TIP3    H225691   0.424   5.408   4.743 -0.4046 -0.0420  1.2213
 1426TIP3   OH225692   4.558   6.691   5.591 -0.4334  0.6340 -0.6723
 1426TIP3    H125693   4.482   6.742   5.622  0.0673  1.9350 -1.5247
 1426TIP3    H225694   4.631   6.725   5.642 -0.3936 -0.6049  0.1302
 1427TIP3   OH225695   2.870   1.450   2.808 -0.2352 -0.1544  0.4616
 1427TIP3    H125696   2.958   1.441   2.844 -0.8324 -0.1491  1.9289
 1427TIP3    H225697   2.841   1.536   2.836 -1.6502 -1.1303  2.1101
 1428TIP3   OH225698   0.000   6.448   0.255  0.0148  0.4152  0.0466
 1428TIP3    H125699  -0.054   6.381   0.298 -0.4812 -0.8704 -2.4620
 1428TIP3    H225700   0.039   6.497   0.327 -3.0800  0.2473  1.9373
 1429TIP3   OH225701   4.809   4.512   3.459  0.6764  0.3604 -0.2649
 1429TIP3    H125702   4.764   4.502   3.376 -0.0184 -2.3593  0.3917
 1429TIP3    H225703   4.750   4.472   3.523  1.3924  2.0263  1.4862
 1430TIP3   OH225704   2.901   3.823  15.689  0.0687 -0.1664 -0.3684
 1430TIP3    H125705   2.924   3.735  15.660  2.1017 -0.2630  1.3523
 1430TIP3    H225706   2.864   3.810  15.776 -0.0057  0.6421 -0.2775
 1431TIP3   OH225707   1.126   2.557  17.219 -0.2760 -0.5036 -0.2396
 1431TIP3    H125708   1.198   2.528  17.275  0.0523 -0.0476 -0.4183
 1431TIP3    H225709   1.143   2.651  17.206 -1.8832  0.0128  1.1872
 1432TIP3   OH225710   3.376   0.652   4.711 -0.1394  0.2772  0.1790
 1432TIP3    H125711   3.410   0.591   4.776  0.2883  0.3650  0.0401
 1432TIP3    H225712   3.284   0.663   4.734 -0.8658 -2.3138 -1.2308
 1433TIP3   OH225713   3.981   4.219  16.912 -0.0722  0.2495  0.3152
 1433TIP3    H125714   4.013   4.136  16.948 -1.0559 -0.3027 -0.0707
 1433TIP3    H225715   3.898   4.235  16.958 -0.2011  0.6998 -0.0662
 1434TIP3   OH225716   2.967   2.261   2.917 -0.4245 -0.1220  0.4514
 1434TIP3    H125717   3.062   2.249   2.908 -0.5362 -1.3746  0.8030
 1434TIP3    H225718   2.957   2.319   2.992  0.1688  2.5291 -1.4812
 1435TIP3   OH225719   1.595   3.713   4.054  0.1189  0.0713 -0.7403
 1435TIP3    H125720   1.522   3.667   4.012 -0.5421 -0.6135  1.1021
 1435TIP3    H225721   1.564   3.803   4.063 -0.5759 -0.2452  0.1489
 1436TIP3   OH225722   0.411   3.434   2.524  0.4271  0.7202  0.1947
 1436TIP3    H125723   0.327   3.450   2.566  0.4555  1.6253 -0.0939
 1436TIP3    H225724   0.468   3.405   2.595  0.1472  1.0786  0.5675
 1437TIP3   OH225725   6.211   0.873   1.943  0.4035 -0.2058  0.2242
 1437TIP3    H125726   6.137   0.863   1.883  0.8508 -0.5476 -0.2776
 1437TIP3    H225727   6.229   0.784   1.972  1.3696 -0.2759 -0.5725
 1438TIP3   OH225728   5.129   6.669   3.465 -0.2209  0.4834 -0.0653
 1438TIP3    H125729   5.076   6.591   3.482  1.5695 -0.7081  0.2805
 1438TIP3    H225730   5.067   6.736   3.438 -1.9377 -0.7143  0.8433
 1439TIP3   OH225731   1.402   1.294   3.903 -0.1143 -0.0542  0.7283
 1439TIP3    H125732   1.445   1.273   3.986  2.1242 -1.0832 -0.6489
 1439TIP3    H225733   1.356   1.214   3.879 -0.4094  0.1046  0.7632
 1440TIP3   OH225734   6.044   3.452   6.211 -0.0742 -0.9838  0.6741
 1440TIP3    H125735   6.050   3.401   6.130  0.0066 -0.9630  0.6667
 1440TIP3    H225736   5.955   3.437   6.242 -0.1437 -0.8930  0.5177
 1441TIP3   OH225737   2.796   4.480  15.904  0.3221 -0.0954 -0.0219
 1441TIP3    H125738   2.825   4.434  15.825  1.7266 -0.3305  0.6161
 1441TIP3    H225739   2.710   4.444  15.923  1.2284 -2.1694  0.2269
 1442TIP3   OH225740   2.027   1.320  16.276 -0.6402  0.1477 -0.0894
 1442TIP3    H125741   1.968   1.386  16.310  1.1547  1.4143  0.6579
 1442TIP3    H225742   2.043   1.260  16.349 -2.2835 -1.1577 -0.7735
 1443TIP3   OH225743   4.441   1.680   3.418 -0.2535 -0.0820 -0.4978
 1443TIP3    H125744   4.502   1.641   3.355 -0.8447 -0.1676 -1.0289
 1443TIP3    H225745   4.355   1.673   3.375 -0.7561 -0.7122  0.5793
 1444TIP3   OH225746   2.548   3.168   1.148  0.4769 -0.4195  0.0873
 1444TIP3    H125747   2.626   3.219   1.169  1.2434 -0.8588 -1.6340
 1444TIP3    H225748   2.479   3.234   1.138  0.8190  0.0434  0.7598
 1445TIP3   OH225749   4.223   1.367  17.038 -0.1431 -0.7795  1.0976
 1445TIP3    H125750   4.310   1.329  17.031  0.0442 -0.2466  0.4966
 1445TIP3    H225751   4.204   1.367  17.132 -0.0538 -2.1199  1.1112
 1446TIP3   OH225752   2.911   3.944  16.435  0.3024  0.4551 -0.1343
 1446TIP3    H125753   2.835   4.001  16.446  0.5010  0.8251 -0.6552
 1446TIP3    H225754   2.962   3.958  16.515 -0.1050  0.3043  0.1579
 1447TIP3   OH225755   5.512   1.863   1.540 -0.3963  0.6756 -0.0133
 1447TIP3    H125756   5.425   1.900   1.525 -0.3382  0.8125 -0.0107
 1447TIP3    H225757   5.549   1.853   1.452 -0.3248  0.8355 -0.0018
 1448TIP3   OH225758   0.923   1.802  11.449 -0.3812  0.1583  0.0215
 1448TIP3    H125759   0.971   1.746  11.510  0.7941  0.2987 -0.7587
 1448TIP3    H225760   0.848   1.834  11.499 -0.9712 -1.9528  0.5427
 1449TIP3   OH225761   0.518   2.124  11.933  0.1303 -0.1316  0.0398
 1449TIP3    H125762   0.476   2.179  11.867 -1.2356  0.5892  1.4882
 1449TIP3    H225763   0.459   2.049  11.944 -0.5789  0.6504  1.7372
 1450TIP3   OH225764   4.174   5.166  13.343 -0.4946  0.5248  0.5711
 1450TIP3    H125765   4.171   5.204  13.431 -1.5792  3.5996 -0.7024
 1450TIP3    H225766   4.112   5.093  13.346 -2.7544  2.4209  1.6102
 1451TIP3   OH225767   6.282   2.571  15.243  0.0872 -0.7310 -0.1840
 1451TIP3    H125768   6.197   2.590  15.283  0.9079  0.8229  0.8820
 1451TIP3    H225769   6.282   2.476  15.231 -1.2868 -0.9045  0.9982
 1452TIP3   OH225770   3.031   2.232  11.181  0.2125 -0.1252 -0.0950
 1452TIP3    H125771   2.980   2.160  11.217 -0.2193 -0.3775 -1.1691
 1452TIP3    H225772   3.075   2.271  11.256 -0.3699 -0.8594  0.6365
 1453TIP3   OH225773   3.958   5.968  11.824  0.3228  0.5889 -0.1027
 1453TIP3    H125774   3.914   6.051  11.808 -1.0560 -0.2695 -0.8185
 1453TIP3    H225775   4.007   5.951  11.744 -0.9018 -0.2069 -0.6923
 1454TIP3   OH225776   0.076   5.262  10.854  0.6723 -0.9814 -0.1746
 1454TIP3    H125777   0.101   5.175  10.823  2.3122 -0.7474  0.4777
 1454TIP3    H225778   0.005   5.288  10.794 -0.2488 -2.9769 -0.0140
 1455TIP3   OH225779   4.278   3.090   3.983  0.4249 -1.0349 -0.0624
 1455TIP3    H125780   4.357   3.125   3.942 -0.3406 -0.3046 -0.9357
 1455TIP3    H225781   4.248   3.159   4.042  0.6757 -1.4868  0.6062
 1456TIP3   OH225782   2.221   4.432  11.589  0.0202  0.6883 -0.6632
 1456TIP3    H125783   2.131   4.429  11.557 -0.1438 -0.8047 -0.1252
 1456TIP3    H225784   2.274   4.408  11.513 -0.2391 -1.0006 -0.3358
 1457TIP3   OH225785   5.595   2.288   3.220 -0.2671 -0.0147  0.1268
 1457TIP3    H125786   5.582   2.341   3.299 -0.5289  1.5639 -0.9521
 1457TIP3    H225787   5.519   2.306   3.166 -0.6214 -1.9277 -0.0453
 1458TIP3   OH225788   5.391   3.061  11.755 -0.8250 -0.0576  0.2868
 1458TIP3    H125789   5.318   3.048  11.816  0.1397 -0.3587  1.4007
 1458TIP3    H225790   5.448   3.124  11.799 -0.1892 -0.1775 -0.3614
 1459TIP3   OH225791   5.290   2.520   0.295  0.4552 -0.1171 -0.1664
 1459TIP3    H125792   5.208   2.550   0.256 -0.1868  0.4940  1.6012
 1459TIP3    H225793   5.274   2.428   0.316 -0.7838  0.7266  2.7268
 1460TIP3   OH225794   4.474   3.311  16.258  0.2405  0.7725  0.2261
 1460TIP3    H125795   4.385   3.318  16.224  0.9811 -1.3309 -2.2840
 1460TIP3    H225796   4.500   3.402  16.275 -2.3075  1.4329  0.9402
 1461TIP3   OH225797   3.333   0.084  16.104  0.5265 -0.0963  0.0477
 1461TIP3    H125798   3.386   0.006  16.087  2.5758  0.9985  1.2298
 1461TIP3    H225799   3.385   0.136  16.165 -0.5701  2.4431 -1.0743
 1462TIP3   OH225800   1.418   6.503   2.763 -0.0507 -0.5208 -0.2119
 1462TIP3    H125801   1.468   6.581   2.785 -1.1342  0.1014  0.1054
 1462TIP3    H225802   1.408   6.508   2.668 -1.7685  0.7737  0.0089
 1463TIP3   OH225803   6.252   3.134  14.143 -0.5522 -0.6525 -0.2015
 1463TIP3    H125804   6.314   3.130  14.070  0.7021 -2.4713  0.9196
 1463TIP3    H225805   6.306   3.154  14.220 -1.6529 -0.2389  0.4909
 1464TIP3   OH225806   3.854   1.008   3.144  0.0898  0.0150  0.3647
 1464TIP3    H125807   3.770   0.973   3.173  0.6188  0.4419  2.5253
 1464TIP3    H225808   3.916   0.978   3.209  1.7861 -0.9474 -1.6445
 1465TIP3   OH225809   5.963   4.195   4.469 -0.8248  0.4671  0.4431
 1465TIP3    H125810   5.939   4.181   4.561 -0.7834  0.4422  0.4497
 1465TIP3    H225811   5.879   4.197   4.423 -0.9230  1.6148  0.6389
 1466TIP3   OH225812   3.288   4.955  16.090 -0.2538  0.7228 -0.0167
 1466TIP3    H125813   3.341   4.960  16.010  1.3136  2.8663  1.1192
 1466TIP3    H225814   3.197   4.961  16.059  0.2394 -0.4909 -1.7866
 1467TIP3   OH225815   1.706   3.181  11.221  0.0143  0.3986 -0.7318
 1467TIP3    H125816   1.766   3.244  11.262 -2.3091  1.9163  0.4225
 1467TIP3    H225817   1.677   3.225  11.141 -0.8170  0.3697 -0.4483
 1468TIP3   OH225818   2.491   4.585  11.753  0.6255 -0.3033  0.1923
 1468TIP3    H125819   2.539   4.568  11.672  0.1330  0.6040 -0.3063
 1468TIP3    H225820   2.545   4.650  11.798  1.9819 -2.3506  1.6056
 1469TIP3   OH225821   1.012   1.548   5.904 -0.8422 -0.5234 -0.3919
 1469TIP3    H125822   0.973   1.461   5.910 -0.3320 -0.7361 -0.1591
 1469TIP3    H225823   1.003   1.584   5.993 -1.4110 -0.1870 -0.5856
 1470TIP3   OH225824   3.307   5.354  13.302  0.4234  0.2927  0.2301
 1470TIP3    H125825   3.331   5.424  13.242  0.0378  0.0706 -0.1860
 1470TIP3    H225826   3.214   5.340  13.287  0.4196 -0.0585  0.5716
 1471TIP3   OH225827   2.293   3.914   5.579 -0.0171 -0.4962  0.4326
 1471TIP3    H125828   2.307   3.834   5.528  1.6967 -0.1981  0.4248
 1471TIP3    H225829   2.242   3.885   5.655 -0.2826 -1.4150 -0.0896
 1472TIP3   OH225830   3.579   0.947   2.083  0.3417  0.3481 -0.4133
 1472TIP3    H125831   3.493   0.929   2.120  0.8388  0.0984  0.6601
 1472TIP3    H225832   3.563   1.009   2.012 -1.0870 -2.1497 -2.3512
 1473TIP3   OH225833   4.899   1.391   4.544  0.0989 -0.0989  0.0559
 1473TIP3    H125834   4.937   1.394   4.456  1.6937 -0.5193  0.7135
 1473TIP3    H225835   4.885   1.297   4.560 -0.2915 -0.0125  0.2103
 1474TIP3   OH225836   4.464   6.535  15.478  0.1863 -1.0000 -0.0626
 1474TIP3    H125837   4.391   6.552  15.537  0.9696 -0.2237  0.6997
 1474TIP3    H225838   4.474   6.440  15.477  0.6492 -0.9818  1.6595
 1475TIP3   OH225839   5.939   3.666   1.610  0.0014  0.0797 -0.1197
 1475TIP3    H125840   6.033   3.666   1.628 -0.0915  0.5458  0.4062
 1475TIP3    H225841   5.906   3.588   1.653 -0.2332  1.2430  1.8544
 1476TIP3   OH225842   4.757   4.326  15.668 -0.3002  0.2402 -0.3777
 1476TIP3    H125843   4.848   4.298  15.679 -0.6308  0.1243  2.2900
 1476TIP3    H225844   4.748   4.403  15.724 -1.9313  0.0721 -0.3874
 1477TIP3   OH225845   2.717   6.000  13.467 -0.4908  0.4427  0.2628
 1477TIP3    H125846   2.726   6.095  13.481  0.1641  0.3954  0.1814
 1477TIP3    H225847   2.763   5.984  13.385 -0.6688  0.0637  0.2363
 1478TIP3   OH225848   2.727   2.655   5.373  0.4419 -0.2915 -0.2870
 1478TIP3    H125849   2.719   2.561   5.386 -2.2067 -0.1648 -0.7394
 1478TIP3    H225850   2.808   2.665   5.323  0.4169 -2.3764 -0.8026
 1479TIP3   OH225851   3.145   1.751  14.798 -0.6265 -0.0832  0.0859
 1479TIP3    H125852   3.150   1.682  14.864 -0.6930  0.0868  0.2679
 1479TIP3    H225853   3.198   1.822  14.834 -0.7413  0.0462  0.0007
 1480TIP3   OH225854   6.366   5.391   0.650  0.2555 -0.2951  0.0300
 1480TIP3    H125855   6.328   5.311   0.685  1.0344 -0.0183  1.5584
 1480TIP3    H225856   6.306   5.460   0.679  1.4198  0.0431  1.6782
 1481TIP3   OH225857   4.096   3.330   3.423 -0.0941 -0.0432  0.0855
 1481TIP3    H125858   4.074   3.283   3.504  2.0399  0.7525  1.1673
 1481TIP3    H225859   4.019   3.319   3.367 -0.4862 -3.0541  1.1039
 1482TIP3   OH225860   0.245   3.540  11.986  0.1164 -0.1643 -0.3499
 1482TIP3    H125861   0.167   3.586  11.955  0.4448 -0.9396 -2.4565
 1482TIP3    H225862   0.314   3.606  11.985 -0.8675  0.9971  3.3144
 1483TIP3   OH225863   5.589   5.104  14.432  0.2819 -0.0968  0.2001
 1483TIP3    H125864   5.655   5.129  14.497  0.0019  0.4319  0.2854
 1483TIP3    H225865   5.625   5.027  14.388  0.4803 -0.4493  0.9742
 1484TIP3   OH225866   2.951   0.641   4.387 -0.1355 -0.6154 -0.4045
 1484TIP3    H125867   2.959   0.726   4.343  0.3565 -0.1604  0.5509
 1484TIP3    H225868   2.861   0.614   4.373 -0.8054  0.9243  0.8385
 1485TIP3   OH225869   1.620   1.723  15.546  0.0252  0.3759 -0.0601
 1485TIP3    H125870   1.560   1.795  15.529 -1.7401 -0.6322  1.6870
 1485TIP3    H225871   1.657   1.742  15.633  2.4040  1.0858 -1.1893
 1486TIP3   OH225872   0.906   3.196   0.352 -0.1079  0.0104  0.2119
 1486TIP3    H125873   0.943   3.268   0.403 -1.0614  0.7041 -0.0679
 1486TIP3    H225874   0.811   3.208   0.358 -0.2601 -0.6906 -0.6005
 1487TIP3   OH225875   5.473   6.099  15.896  0.1484 -0.1523  0.4118
 1487TIP3    H125876   5.517   6.165  15.843 -0.1784  0.4182  0.8569
 1487TIP3    H225877   5.545   6.050  15.937  0.4643 -1.7076 -1.8820
 1488TIP3   OH225878   5.359   0.705  15.656  0.3788 -0.3659 -0.5843
 1488TIP3    H125879   5.301   0.731  15.727  0.7832  1.2568 -0.8274
 1488TIP3    H225880   5.343   0.611  15.645  1.0716 -0.8767  2.3277
 1489TIP3   OH225881   2.898   6.540  13.868  0.3345  0.9369 -0.0513
 1489TIP3    H125882   2.899   6.591  13.787 -1.5803 -0.6344 -1.1125
 1489TIP3    H225883   2.950   6.462  13.849  0.1140  0.6954  0.3209
 1490TIP3   OH225884   4.589   3.755  13.621 -0.1118  0.8897 -0.2313
 1490TIP3    H125885   4.659   3.712  13.670  0.4478 -0.8317 -2.4268
 1490TIP3    H225886   4.546   3.684  13.573 -2.1776  2.1801 -0.3750
 1491TIP3   OH225887   0.644   3.081  12.726  0.0121 -0.0015  0.2825
 1491TIP3    H125888   0.724   3.082  12.779  1.5556 -2.0050 -1.9129
 1491TIP3    H225889   0.583   3.028  12.776  0.7323 -0.1235  1.0452
 1492TIP3   OH225890   2.579   5.021   5.899 -0.2567 -0.6480 -0.5649
 1492TIP3    H125891   2.572   5.016   5.804 -1.7385 -0.6961 -0.4647
 1492TIP3    H225892   2.495   5.056   5.928 -0.1022 -1.3265  0.7705
 1493TIP3   OH225893   4.029   6.370   0.785 -0.3586  0.8654 -0.2165
 1493TIP3    H125894   3.939   6.399   0.797 -0.1986  1.5026 -0.5054
 1493TIP3    H225895   4.028   6.277   0.806 -0.7319  1.2398  1.5453
 1494TIP3   OH225896   6.774   3.469   4.140 -0.7216 -0.5438 -0.2186
 1494TIP3    H125897   6.719   3.535   4.099  2.3519  0.7555 -2.3893
 1494TIP3    H225898   6.819   3.426   4.068  0.5517 -2.1156  1.4458
 1495TIP3   OH225899   6.235   5.915   4.555  0.1218  0.0464  0.3422
 1495TIP3    H125900   6.263   5.991   4.607  2.0621 -0.7417  0.4789
 1495TIP3    H225901   6.223   5.845   4.619  1.6129 -0.6696 -0.1284
 1496TIP3   OH225902   0.264   5.402  14.214  0.4262  0.2898 -0.0244
 1496TIP3    H125903   0.212   5.396  14.295 -0.0530 -1.3661 -0.4180
 1496TIP3    H225904   0.326   5.329  14.221  0.0659 -0.1605 -1.3531
 1497TIP3   OH225905   5.472   4.599   5.804  0.6166  0.2098 -0.1505
 1497TIP3    H125906   5.517   4.683   5.814  2.1967 -0.5377 -0.6769
 1497TIP3    H225907   5.382   4.621   5.784  0.9483  1.7854  0.0743
 1498TIP3   OH225908   1.593   5.450   5.778 -0.1186 -0.5517  0.1502
 1498TIP3    H125909   1.664   5.504   5.744  0.1179 -0.7963  0.2559
 1498TIP3    H225910   1.580   5.481   5.868  1.1621 -1.8142  0.7792
 1499TIP3   OH225911   0.446   1.671  14.653  0.2444  0.5653  0.3895
 1499TIP3    H125912   0.524   1.656  14.706  1.2839 -1.1457 -1.5454
 1499TIP3    H225913   0.374   1.638  14.705  0.9599  0.9997  1.6755
 1500TIP3   OH225914   2.656   5.355  11.664 -0.5620  0.3553  0.0301
 1500TIP3    H125915   2.576   5.301  11.668 -1.0120  1.0571  0.5683
 1500TIP3    H225916   2.706   5.318  11.591 -0.9046 -0.7472  0.3471
 1501TIP3   OH225917   2.688   1.541   5.009 -0.3212 -0.6332 -0.0921
 1501TIP3    H125918   2.700   1.458   4.963 -0.3149  1.0630 -3.2544
 1501TIP3    H225919   2.679   1.606   4.940  0.3599  2.1366  2.3356
 1502TIP3   OH225920   1.687   0.799   3.974  0.0306 -0.3736  0.2129
 1502TIP3    H125921   1.609   0.743   3.970  0.1218 -0.4554 -0.4834
 1502TIP3    H225922   1.675   0.863   3.904  0.0147  0.3793  0.8866
 1503TIP3   OH225923   6.219   6.510   4.683 -0.0092  0.0194 -0.5764
 1503TIP3    H125924   6.129   6.478   4.695 -0.6485 -0.1234 -4.7950
 1503TIP3    H225925   6.273   6.431   4.685 -0.1845 -0.0870  0.1831
 1504TIP3   OH225926   0.936   6.567   4.739  0.7867  0.1768  0.8545
 1504TIP3    H125927   0.907   6.507   4.807  3.5708 -0.4555  1.5400
 1504TIP3    H225928   0.932   6.654   4.779 -0.3141  0.1279  0.8620
 1505TIP3   OH225929   2.527   1.350  12.665 -0.0954  0.1726  0.0121
 1505TIP3    H125930   2.619   1.351  12.639  0.0552  0.8972  0.5226
 1505TIP3    H225931   2.493   1.435  12.635 -0.1888  0.5636  1.1637
 1506TIP3   OH225932   3.455   4.989  16.593 -0.2581 -0.8602 -0.4031
 1506TIP3    H125933   3.542   4.951  16.608 -0.8405 -1.4763  1.6114
 1506TIP3    H225934   3.448   4.997  16.498  1.2567 -2.5618 -0.6888
 1507TIP3   OH225935   3.919   3.299   5.800 -0.1331  0.0245  0.6058
 1507TIP3    H125936   3.916   3.240   5.724  0.3188 -0.6695  1.1103
 1507TIP3    H225937   3.836   3.347   5.797 -0.0159  0.1692 -0.4530
 1508TIP3   OH225938   6.709   5.184  14.508 -0.1353 -0.4265  0.3424
 1508TIP3    H125939   6.686   5.237  14.584 -2.1649  1.1446 -1.3112
 1508TIP3    H225940   6.735   5.099  14.544 -0.6930  0.4124  2.7816
 1509TIP3   OH225941   0.840   3.787   4.169  0.3515 -0.2988  0.1275
 1509TIP3    H125942   0.795   3.870   4.153  0.6292 -0.1699  0.0144
 1509TIP3    H225943   0.856   3.751   4.082 -1.7946 -1.5650  0.2227
 1510TIP3   OH225944   1.807   1.724   5.725  0.3789 -0.2395 -0.1505
 1510TIP3    H125945   1.824   1.816   5.705 -0.4941 -0.1352 -0.4523
 1510TIP3    H225946   1.809   1.719   5.820  1.9252 -0.2074 -0.1761
 1511TIP3   OH225947   6.305   0.057  16.994 -0.0664 -0.1061  0.1931
 1511TIP3    H125948   6.277   0.118  16.926 -0.0665 -0.1867  0.1208
 1511TIP3    H225949   6.388   0.022  16.962 -1.5082 -2.3851 -1.1803
 1512TIP3   OH225950   5.575   0.809  12.507  0.2412  0.3207 -0.1529
 1512TIP3    H125951   5.664   0.818  12.472  0.7129 -1.1387  0.6347
 1512TIP3    H225952   5.587   0.771  12.594 -1.1682 -0.0967 -0.1251
 1513TIP3   OH225953   4.989   1.210  16.005 -0.0125 -0.7696 -0.6616
 1513TIP3    H125954   5.053   1.267  15.963 -1.9111  1.6130 -0.4478
 1513TIP3    H225955   4.982   1.244  16.095 -3.2740  0.5699 -1.3527
 1514TIP3   OH225956   2.709   0.405  14.375  0.0679 -0.2644  0.0589
 1514TIP3    H125957   2.702   0.461  14.297  0.3310 -1.0233 -0.5196
 1514TIP3    H225958   2.791   0.432  14.417  1.5952 -1.9865 -1.6648
 1515TIP3   OH225959   6.094   3.377  16.842  0.2904  0.3592  0.1666
 1515TIP3    H125960   6.145   3.360  16.921 -0.3606 -1.4104  0.2424
 1515TIP3    H225961   6.158   3.403  16.776  1.2119 -1.0020  0.5023
 1516TIP3   OH225962   1.252   1.236  11.145 -0.2851  0.2614  0.3998
 1516TIP3    H125963   1.158   1.249  11.139 -0.1832  0.4759 -0.8736
 1516TIP3    H225964   1.288   1.292  11.076  0.7773  0.2224  0.9113
 1517TIP3   OH225965   0.368   4.376  17.109 -0.1057  0.4186  0.0477
 1517TIP3    H125966   0.345   4.317  17.181  0.5389  1.2773  0.9748
 1517TIP3    H225967   0.444   4.424  17.141 -0.4949  1.6009 -0.7635
 1518TIP3   OH225968   3.417   2.235   1.548 -0.1814  0.4140 -0.3296
 1518TIP3    H125969   3.420   2.215   1.455 -1.2651 -1.3271 -0.0183
 1518TIP3    H225970   3.504   2.215   1.581 -0.8331 -2.6360 -0.2941
 1519TIP3   OH225971   4.026   4.291   0.640 -0.6981 -0.5037 -0.2666
 1519TIP3    H125972   3.976   4.362   0.599  0.5916  1.2169  1.0870
 1519TIP3    H225973   4.075   4.253   0.568 -0.8679  0.4394 -0.8956
 1520TIP3   OH225974   1.473   0.388   3.116  0.4973  0.0182 -0.0428
 1520TIP3    H125975   1.456   0.428   3.202  2.8900 -0.0432  0.4957
 1520TIP3    H225976   1.499   0.461   3.061 -2.0811  0.2256 -1.0684
 1521TIP3   OH225977   0.218   4.271   5.767 -0.1962  0.4537 -0.1716
 1521TIP3    H125978   0.133   4.248   5.729 -0.7035 -0.8511  1.6564
 1521TIP3    H225979   0.282   4.243   5.702 -1.1459  1.3574 -1.5291
 1522TIP3   OH225980   1.290   3.821   5.020 -0.6794 -0.1833 -0.9234
 1522TIP3    H125981   1.368   3.838   5.071 -0.3129 -0.6155 -1.3347
 1522TIP3    H225982   1.288   3.726   5.009 -1.5257 -0.2207 -0.4993
 1523TIP3   OH225983   2.762   3.461   3.086 -0.2600  0.5970 -0.4642
 1523TIP3    H125984   2.836   3.496   3.036  0.4775 -1.6739 -1.0266
 1523TIP3    H225985   2.754   3.519   3.161  2.5519  0.4996 -0.0295
 1524TIP3   OH225986   4.276   1.943   0.370  0.1216  0.4259 -0.1255
 1524TIP3    H125987   4.191   1.986   0.384 -0.8029 -1.2974 -0.3556
 1524TIP3    H225988   4.263   1.890   0.291  1.1621 -0.4915  0.3192
 1525TIP3   OH225989   2.485   1.458  12.297  0.2138  0.0133  0.0957
 1525TIP3    H125990   2.474   1.509  12.377 -0.9331 -0.6932  0.4039
 1525TIP3    H225991   2.531   1.379  12.325 -2.0523 -1.2198  0.4771
 1526TIP3   OH225992   0.058   1.847   2.247 -0.5846  0.7456  0.2626
 1526TIP3    H125993   0.087   1.797   2.323  1.3418  1.1450 -0.1796
 1526TIP3    H225994   0.138   1.887   2.213 -1.4303  0.6280 -1.9361
 1527TIP3   OH225995   5.572   2.239   3.651 -0.2116 -0.1448  0.1850
 1527TIP3    H125996   5.503   2.207   3.710 -0.4075 -2.2557 -1.1335
 1527TIP3    H225997   5.562   2.186   3.572  0.9137  1.7300 -1.2407
 1528TIP3   OH225998   0.413   4.444   4.737 -0.1576 -0.1208  0.3387
 1528TIP3    H125999   0.438   4.458   4.829  2.0416  1.5464 -0.4734
 1528TIP3    H226000   0.327   4.485   4.730  1.3801  3.3787  0.7434
 1529TIP3   OH226001   2.209   5.381  16.390  0.1594  0.4836  0.3877
 1529TIP3    H126002   2.279   5.318  16.373  0.6034  1.3489 -1.0501
 1529TIP3    H226003   2.158   5.341  16.461  0.1877 -1.6729 -0.7720
 1530TIP3   OH226004   0.207   5.619  13.798  0.2335  0.0866  0.0388
 1530TIP3    H126005   0.117   5.586  13.796 -0.0347  0.8054  0.1220
 1530TIP3    H226006   0.234   5.609  13.889  1.2387 -2.7525 -0.5058
 1531TIP3   OH226007   2.730   0.392   0.152  0.5908 -0.4254  0.2486
 1531TIP3    H126008   2.648   0.349   0.176  0.5647 -0.1822  0.5952
 1531TIP3    H226009   2.711   0.437   0.070  0.0683  0.5255  0.8827
 1532TIP3   OH226010   3.279   4.684  14.727 -0.4207 -0.3738 -0.3290
 1532TIP3    H126011   3.363   4.731  14.730  0.1666 -1.3920 -0.4478
 1532TIP3    H226012   3.251   4.692  14.636 -0.5433  0.1165 -0.2503
 1533TIP3   OH226013   3.744   6.221  11.407 -0.0356 -0.2558  0.7714
 1533TIP3    H126014   3.816   6.171  11.367  1.4178  0.4573  2.4662
 1533TIP3    H226015   3.680   6.155  11.433 -0.4376 -0.8355 -1.5366
 1534TIP3   OH226016   3.863   1.030  16.395  0.5811  0.7424  0.3497
 1534TIP3    H126017   3.955   1.052  16.380  0.8761  0.1385  1.2275
 1534TIP3    H226018   3.829   1.103  16.447  0.6382  0.8475  0.2351
 1535TIP3   OH226019   1.353   3.712  15.921  0.2304  0.1433  0.3439
 1535TIP3    H126020   1.429   3.709  15.863  0.4516  2.9534  0.4261
 1535TIP3    H226021   1.364   3.636  15.978  1.4032 -1.1440 -1.5439
 1536TIP3   OH226022   3.597   0.316  14.169 -0.2212  0.7016 -0.0424
 1536TIP3    H126023   3.605   0.341  14.261 -2.0305  0.9986  0.0398
 1536TIP3    H226024   3.503   0.311  14.153  0.0673  1.4824 -2.1112
 1537TIP3   OH226025   1.980   4.671  11.624  0.0395  0.0692  0.2226
 1537TIP3    H126026   2.006   4.669  11.532  1.2875  0.4421  0.5612
 1537TIP3    H226027   2.062   4.681  11.672 -0.7730  2.0090  1.2818
 1538TIP3   OH226028   6.562   0.879  11.831  0.3320 -0.2069  0.0097
 1538TIP3    H126029   6.632   0.815  11.818 -0.6436 -0.6500 -3.6042
 1538TIP3    H226030   6.603   0.964  11.816  1.0835 -0.0712  2.5086
 1539TIP3   OH226031   3.339   1.110   3.358 -0.3265 -0.2729 -0.5262
 1539TIP3    H126032   3.273   1.112   3.289 -0.4215  0.6885 -0.4237
 1539TIP3    H226033   3.291   1.138   3.437 -0.5381 -2.6225  0.2197
 1540TIP3   OH226034   5.173   0.560   5.200 -0.7216  1.1109 -0.4992
 1540TIP3    H126035   5.124   0.484   5.229  0.7836  0.2516 -0.1343
 1540TIP3    H226036   5.144   0.631   5.258  0.9232 -0.1634  1.9977
 1541TIP3   OH226037   4.763   0.504  16.331  0.1741 -0.2569 -0.6317
 1541TIP3    H126038   4.716   0.581  16.298  0.2682  0.0520 -0.0679
 1541TIP3    H226039   4.856   0.528  16.323  0.1927  0.4092  1.1438
 1542TIP3   OH226040   3.621   1.244  17.036 -0.3271  0.0716  0.5921
 1542TIP3    H126041   3.580   1.181  17.094  1.6754 -2.6681 -0.8194
 1542TIP3    H226042   3.653   1.313  17.094 -3.2444  0.2436  2.0910
 1543TIP3   OH226043   3.180   4.661  16.465 -0.1031 -0.0263  0.4337
 1543TIP3    H126044   3.148   4.571  16.469  2.4948 -1.0438 -0.4079
 1543TIP3    H226045   3.237   4.663  16.389  0.0684  2.2782  0.5833
 1544TIP3   OH226046   3.017   5.674  13.786 -0.0437  0.0900  0.3454
 1544TIP3    H126047   2.966   5.695  13.864 -1.2016  3.2829 -1.1977
 1544TIP3    H226048   2.957   5.625  13.730 -0.1556  0.4082  0.1888
 1545TIP3   OH226049   0.166   4.672   1.122  0.4483 -0.4853  0.4968
 1545TIP3    H126050   0.245   4.630   1.157  2.6883  0.1893 -3.5040
 1545TIP3    H226051   0.145   4.621   1.044 -1.0159  1.5222 -0.4411
 1546TIP3   OH226052   4.400   5.053   4.779  0.2343 -0.3044  0.3520
 1546TIP3    H126053   4.434   4.987   4.840 -0.1203 -0.9148 -0.0971
 1546TIP3    H226054   4.393   5.006   4.696 -0.0611  0.2999  0.0372
 1547TIP3   OH226055   4.915   2.378   1.479  0.6994  0.0102 -0.0852
 1547TIP3    H126056   4.926   2.400   1.571 -0.7319 -0.2171  0.1545
 1547TIP3    H226057   4.856   2.447   1.445  1.0564 -0.0201 -0.7755
 1548TIP3   OH226058   1.308   5.005  11.013  0.6121  0.0489 -0.4386
 1548TIP3    H126059   1.315   5.047  11.099  0.0445  1.8229 -1.2454
 1548TIP3    H226060   1.396   5.013  10.975  0.9878 -1.1428  0.1281
 1549TIP3   OH226061   4.667   3.048  12.126 -0.1428 -0.2727  0.4527
 1549TIP3    H126062   4.706   3.135  12.119 -0.8092  0.0754  1.0996
 1549TIP3    H226063   4.650   3.022  12.035 -0.6224  0.5795  0.2955
 1550TIP3   OH226064   2.273   3.501  12.490 -0.1881  0.3029  0.2862
 1550TIP3    H126065   2.338   3.532  12.553  1.5060  0.0116 -1.2795
 1550TIP3    H226066   2.250   3.413  12.520  0.9300  0.0020  0.2606
 1551TIP3   OH226067   2.706   0.524   1.633  0.1022 -0.2560  0.9968
 1551TIP3    H126068   2.722   0.526   1.539  0.9459 -1.3447  1.1023
 1551TIP3    H226069   2.611   0.527   1.642 -0.0535 -2.1485  0.0468
 1552TIP3   OH226070   2.479   0.262   0.003 -0.1233  0.1825  0.3876
 1552TIP3    H126071   2.411   0.320  -0.032  0.5513  0.4670 -0.4690
 1552TIP3    H226072   2.504   0.207  -0.072  0.2278 -0.2736  0.8340
 1553TIP3   OH226073   4.500   4.363  16.789 -0.0901  0.1526  0.0760
 1553TIP3    H126074   4.547   4.393  16.866 -1.4504  0.7240  0.6981
 1553TIP3    H226075   4.413   4.403  16.796 -0.5304 -0.5050 -1.2870
 1554TIP3   OH226076   1.807   6.228   3.150 -0.4535 -0.2947  0.1426
 1554TIP3    H126077   1.794   6.202   3.059  1.3880 -1.0139  0.0761
 1554TIP3    H226078   1.890   6.189   3.175 -0.4739  0.7030  1.8482
 1555TIP3   OH226079   2.457   4.354  16.274  0.2921 -0.1618 -0.2471
 1555TIP3    H126080   2.417   4.367  16.188  0.6536  0.6809 -0.2935
 1555TIP3    H226081   2.490   4.441  16.298  0.5846 -0.4907  0.5424
 1556TIP3   OH226082   1.126   1.092  15.865 -0.6256  0.1930  0.0296
 1556TIP3    H126083   1.199   1.053  15.913  0.1467  1.3427 -0.1691
 1556TIP3    H226084   1.053   1.032  15.878  0.2618 -0.7832  0.5451
 1557TIP3   OH226085   5.335   1.999  15.058  0.2204 -0.1048  0.9135
 1557TIP3    H126086   5.412   2.023  15.108  0.5591  0.1163  0.2996
 1557TIP3    H226087   5.370   1.950  14.983 -0.3481 -1.2899  1.4088
 1558TIP3   OH226088   5.011   4.656   4.177 -0.0048 -0.3248  0.0466
 1558TIP3    H126089   5.106   4.648   4.181 -0.1055 -1.7970 -0.1847
 1558TIP3    H226090   4.989   4.642   4.085 -0.2918  2.0740 -0.2867
 1559TIP3   OH226091   5.764   5.104   3.287  0.1351  0.0643 -0.1525
 1559TIP3    H126092   5.845   5.138   3.326  0.4051  0.4785 -1.0696
 1559TIP3    H226093   5.699   5.171   3.304 -0.7354 -1.4862  3.0747
 1560TIP3   OH226094   1.173   6.128   0.801  0.4740  0.0872 -0.0204
 1560TIP3    H126095   1.255   6.158   0.841  0.9605  1.0124 -1.6285
 1560TIP3    H226096   1.175   6.167   0.713 -1.1164 -0.8971 -0.5002
 1561TIP3   OH226097   4.459   0.176   3.564 -0.0883 -0.7466 -0.0223
 1561TIP3    H126098   4.375   0.217   3.585 -0.8317 -2.2125 -0.0621
 1561TIP3    H226099   4.508   0.244   3.516 -0.3941  0.8566  1.8707
 1562TIP3   OH226100   6.367   0.371  12.450 -0.5250 -0.0219 -0.0052
 1562TIP3    H126101   6.300   0.431  12.416 -1.1922  0.8955  2.8030
 1562TIP3    H226102   6.319   0.292  12.473 -0.8410  0.9040  2.7121
 1563TIP3   OH226103   0.479   3.637   4.947 -0.2822 -0.4842 -0.1051
 1563TIP3    H126104   0.415   3.649   4.876  0.0120 -0.2190 -0.3315
 1563TIP3    H226105   0.490   3.725   4.983 -0.2733 -0.5836  0.1323
 1564TIP3   OH226106   2.079   4.362   1.777  0.1795 -0.2083  0.0937
 1564TIP3    H126107   2.095   4.425   1.848 -1.2925 -0.0405  0.2829
 1564TIP3    H226108   2.148   4.297   1.788 -0.8293 -0.9497  2.5567
 1565TIP3   OH226109   1.801   4.874  11.483 -0.6229  0.4742 -0.4002
 1565TIP3    H126110   1.766   4.879  11.572  1.8232 -0.2725  0.6553
 1565TIP3    H226111   1.881   4.927  11.486  0.3836 -0.9385 -1.7055
 1566TIP3   OH226112   4.773   0.745   0.181  0.2897  0.1088  0.4118
 1566TIP3    H126113   4.769   0.815   0.247  1.7680  1.9212 -1.3735
 1566TIP3    H226114   4.857   0.702   0.197  1.1997  1.3312 -1.0567
 1567TIP3   OH226115   5.185   3.739   6.022  0.2319  0.1138 -0.3218
 1567TIP3    H126116   5.139   3.722   6.105 -0.6145 -0.8220 -0.9673
 1567TIP3    H226117   5.267   3.780   6.048  0.4868 -1.2220  1.0673
 1568TIP3   OH226118   2.164   6.716  16.522 -0.2916  0.0566 -0.6043
 1568TIP3    H126119   2.088   6.658  16.524 -2.4795  2.8046 -0.9366
 1568TIP3    H226120   2.191   6.718  16.431  0.5340 -1.3304 -0.3996
 1569TIP3   OH226121   0.954   3.960   3.515 -0.4588 -0.4438 -0.2130
 1569TIP3    H126122   1.023   3.897   3.493 -0.3606  0.0361 -1.3540
 1569TIP3    H226123   0.874   3.908   3.516 -0.5157 -0.4527 -2.1188
 1570TIP3   OH226124   3.021   3.867   1.706  0.6244 -0.3098  0.6206
 1570TIP3    H126125   3.046   3.777   1.683 -0.4096 -0.5505  0.4038
 1570TIP3    H226126   3.000   3.864   1.799 -0.7079 -0.6031  0.3256
 1571TIP3   OH226127   3.342   3.391  12.147 -0.2009  0.3815 -0.4489
 1571TIP3    H126128   3.326   3.326  12.215 -1.1662 -0.2648 -1.2759
 1571TIP3    H226129   3.259   3.396  12.099 -0.3859  2.7974  0.0964
 1572TIP3   OH226130   5.606   1.808   3.038 -0.2438  0.0221  0.0784
 1572TIP3    H126131   5.534   1.855   3.079  0.2418  1.0570 -0.2507
 1572TIP3    H226132   5.649   1.763   3.111  0.4313  1.6078  0.6799
 1573TIP3   OH226133   3.946   3.224  13.905 -0.3248  0.0160  0.6509
 1573TIP3    H126134   4.020   3.211  13.845  0.5831  0.0171  1.7595
 1573TIP3    H226135   3.870   3.193  13.856  0.4568 -0.2963 -0.3796
 1574TIP3   OH226136   0.823   0.141  16.317 -0.2124  0.6208  0.0944
 1574TIP3    H126137   0.746   0.169  16.366 -1.6420  0.3488 -1.9334
 1574TIP3    H226138   0.816   0.045  16.316  1.0654  0.5064  1.3252
 1575TIP3   OH226139   4.997   0.679  14.124 -0.7897  0.1280  0.0039
 1575TIP3    H126140   5.087   0.651  14.139 -1.0589 -1.0323 -0.5450
 1575TIP3    H226141   4.963   0.698  14.212 -0.1792  0.0684  0.2553
 1576TIP3   OH226142   4.405   5.161   1.540  0.5872  0.1593  0.1232
 1576TIP3    H126143   4.440   5.093   1.598 -2.0626  0.0338  1.6635
 1576TIP3    H226144   4.479   5.187   1.486  2.0725 -2.7691  0.6528
 1577TIP3   OH226145   4.160   2.307  13.071 -0.1863  0.3193 -0.0998
 1577TIP3    H126146   4.120   2.223  13.095 -1.2537  0.9309  0.3027
 1577TIP3    H226147   4.113   2.335  12.993  1.6767 -0.5171 -1.5314
 1578TIP3   OH226148   1.819   6.067  14.191  0.8434  0.2317  0.2090
 1578TIP3    H126149   1.891   6.114  14.150  1.3794  1.3866  2.4140
 1578TIP3    H226150   1.755   6.135  14.212 -0.0325 -0.5287  0.0224
 1579TIP3   OH226151   3.592   2.775  10.911  0.0608 -0.3480 -0.0409
 1579TIP3    H126152   3.583   2.680  10.912  0.8762 -0.4233  1.6050
 1579TIP3    H226153   3.687   2.790  10.908 -0.0709  0.4043 -0.5169
 1580TIP3   OH226154   0.188   4.056   2.478 -0.3599 -0.5113  0.2519
 1580TIP3    H126155   0.174   4.076   2.386  0.6828  0.3459  0.2743
 1580TIP3    H226156   0.101   4.067   2.518 -0.6178  0.0596 -0.4473
 1581TIP3   OH226157   6.029   6.066  16.680  0.0306 -0.2093 -0.3737
 1581TIP3    H126158   6.082   6.054  16.601  0.0403  1.1008 -0.5740
 1581TIP3    H226159   5.939   6.053  16.651  0.0626 -0.1196 -0.5115
 1582TIP3   OH226160   4.174   4.748  15.656 -0.2437 -0.2143 -0.8972
 1582TIP3    H126161   4.151   4.828  15.609  0.1199  0.7595  0.5175
 1582TIP3    H226162   4.125   4.755  15.739  2.4708  0.2872  0.7344
 1583TIP3   OH226163   4.846   1.552   4.279  0.6720 -0.2121  0.3992
 1583TIP3    H126164   4.788   1.481   4.254  0.9773 -0.4277  0.3002
 1583TIP3    H226165   4.917   1.550   4.214  0.2162  0.7545 -0.1360
 1584TIP3   OH226166   3.736   5.650   4.150 -0.1160 -0.8301 -0.0665
 1584TIP3    H126167   3.713   5.615   4.236  0.8052 -0.8488  0.1696
 1584TIP3    H226168   3.674   5.722   4.136 -1.0084 -1.5518  0.1146
 1585TIP3   OH226169   2.471   3.793   2.544  0.0086 -0.7083  0.3577
 1585TIP3    H126170   2.433   3.714   2.505  1.6848 -2.7493  2.6751
 1585TIP3    H226171   2.436   3.795   2.633  1.2344  0.2374  0.8362
 1586TIP3   OH226172   5.259   2.617   5.345  0.1364  0.7997  0.0994
 1586TIP3    H126173   5.295   2.669   5.272 -1.8777  1.1026 -0.7191
 1586TIP3    H226174   5.193   2.562   5.304 -0.4266  0.3604  1.5938
 1587TIP3   OH226175   0.190   6.151  13.194  0.4690  0.2861  0.1586
 1587TIP3    H126176   0.112   6.205  13.194  0.0463 -0.2975 -0.5966
 1587TIP3    H226177   0.237   6.176  13.114  2.1171  2.0990  1.6497
 1588TIP3   OH226178   1.362   6.400  15.985  0.3555 -0.2175 -0.1856
 1588TIP3    H126179   1.358   6.304  15.981  2.4131 -0.4210  1.4127
 1588TIP3    H226180   1.418   6.425  15.911  1.0277 -0.3798  0.2627
 1589TIP3   OH226181   1.557   2.672  15.970 -0.0931  0.8086 -0.3422
 1589TIP3    H126182   1.499   2.723  15.913 -0.9192  1.1520  0.7833
 1589TIP3    H226183   1.525   2.582  15.962  1.0479  0.5268 -1.9411
 1590TIP3   OH226184   5.693   4.949   3.553 -0.2077 -0.6005  0.8133
 1590TIP3    H126185   5.611   4.996   3.539  0.4916 -0.4176 -3.3170
 1590TIP3    H226186   5.750   5.011   3.597 -0.5235  1.1459 -1.2026
 1591TIP3   OH226187   2.696   4.673   4.581  0.0039  0.5364 -0.4039
 1591TIP3    H126188   2.782   4.705   4.607 -0.0936  1.0363 -0.6833
 1591TIP3    H226189   2.643   4.752   4.572 -0.2245  0.3061 -1.1479
 1592TIP3   OH226190   1.140   5.001   4.125 -0.5008  0.1897  0.0372
 1592TIP3    H126191   1.048   5.028   4.128 -0.6867 -0.1688 -2.0864
 1592TIP3    H226192   1.138   4.913   4.087  0.6409 -0.2795  1.0280
 1593TIP3   OH226193   4.830   5.337   3.348  0.0351 -0.1544  0.6380
 1593TIP3    H126194   4.838   5.310   3.439  0.7863 -1.1826  0.2705
 1593TIP3    H226195   4.851   5.259   3.297  1.1524  0.8176 -0.4318
 1594TIP3   OH226196   5.351   0.266  11.074 -0.1851  0.2763 -0.1763
 1594TIP3    H126197   5.277   0.232  11.125 -0.7540  0.9734 -0.5177
 1594TIP3    H226198   5.428   0.223  11.111 -0.7299 -0.2074  0.4088
 1595TIP3   OH226199   2.219   6.537  15.113  0.0415 -0.1730 -0.4809
 1595TIP3    H126200   2.137   6.581  15.136  1.1882  0.5983  2.3251
 1595TIP3    H226201   2.282   6.607  15.102  0.9219 -0.8938 -0.1163
 1596TIP3   OH226202   5.767   3.291   3.851 -0.2459 -0.1526  0.2125
 1596TIP3    H126203   5.769   3.372   3.799 -0.5718  0.3388  0.9472
 1596TIP3    H226204   5.675   3.264   3.849 -0.0206 -0.8937 -0.6048
 1597TIP3   OH226205   2.611   3.210  12.756 -0.0770  0.1134  0.1138
 1597TIP3    H126206   2.643   3.172  12.675  0.1079  1.7669 -0.6094
 1597TIP3    H226207   2.526   3.168  12.771  0.7136 -1.5159  0.0324
 1598TIP3   OH226208   2.078   3.503  13.258 -0.1973  0.4039 -0.1339
 1598TIP3    H126209   2.133   3.466  13.327 -1.5413  1.8674  1.7611
 1598TIP3    H226210   2.017   3.433  13.236  0.3844 -0.1451 -0.0156
 1599TIP3   OH226211   4.755   6.494   4.008 -0.1421  0.6263  0.0097
 1599TIP3    H126212   4.803   6.475   3.928 -0.1966  0.6985 -0.0403
 1599TIP3    H226213   4.814   6.468   4.078  0.9371  2.8595 -0.0075
 1600TIP3   OH226214   3.244   5.637  14.095  0.1876 -0.8267 -0.3813
 1600TIP3    H126215   3.293   5.719  14.090  0.4303 -0.9146  0.4108
 1600TIP3    H226216   3.244   5.603  14.006  2.4307 -1.3160 -0.2070
 1601TIP3   OH226217   5.560   0.201  16.537 -0.2068 -0.3943 -0.0073
 1601TIP3    H126218   5.490   0.185  16.474 -0.2930  0.2901 -0.0885
 1601TIP3    H226219   5.515   0.229  16.617 -0.1137 -1.5323  0.4518
 1602TIP3   OH226220   2.230   6.235   2.368  0.5797 -0.6386  0.1370
 1602TIP3    H126221   2.262   6.307   2.423  0.8120 -1.2519  0.8163
 1602TIP3    H226222   2.153   6.271   2.325  0.6587  0.0057  0.5203
 1603TIP3   OH226223   4.313   3.948   3.054 -0.3182 -0.1433 -0.2169
 1603TIP3    H126224   4.223   3.939   3.025 -0.4990  2.2020 -0.4771
 1603TIP3    H226225   4.364   3.897   2.991 -1.2877 -0.0181 -1.1173
 1604TIP3   OH226226   3.254   3.015  16.874 -0.7104  0.0094  0.2589
 1604TIP3    H126227   3.294   3.078  16.814  0.3491 -1.0328 -0.1488
 1604TIP3    H226228   3.184   3.064  16.917  0.9043  1.8547  0.8874
 1605TIP3   OH226229   6.501   4.063  16.942 -0.4538  0.2059 -0.1684
 1605TIP3    H126230   6.477   4.028  16.856 -1.8553 -0.2287  0.3826
 1605TIP3    H226231   6.520   4.155  16.926 -1.5477  0.3295 -0.8092
 1606TIP3   OH226232   4.377   6.481  11.431  0.1559 -0.2026  0.1942
 1606TIP3    H126233   4.416   6.559  11.391 -0.3392  0.2898  0.6683
 1606TIP3    H226234   4.325   6.515  11.503  1.1024 -1.0831  1.3132
 1607TIP3   OH226235   3.521   0.258   1.800 -0.2147 -0.8870  0.5848
 1607TIP3    H126236   3.580   0.221   1.734 -1.6904 -1.2338 -0.5550
 1607TIP3    H226237   3.456   0.190   1.816 -2.4547  0.8051 -0.8950
 1608TIP3   OH226238   4.425   0.647  16.318 -0.1361  0.1083 -0.5647
 1608TIP3    H126239   4.363   0.689  16.259 -0.8106  1.4381  1.0439
 1608TIP3    H226240   4.373   0.583  16.366  0.0581  0.1522 -0.2915
 1609TIP3   OH226241   5.020   4.015   1.593 -0.3743 -0.1107 -0.4862
 1609TIP3    H126242   5.005   3.955   1.520 -0.5737 -0.7512  0.0725
 1609TIP3    H226243   5.109   4.046   1.580 -0.2789 -0.5059 -0.8021
 1610TIP3   OH226244   3.412   2.146  16.494  0.1066  0.1856  0.2535
 1610TIP3    H126245   3.459   2.065  16.516 -0.6813 -0.5310 -0.6770
 1610TIP3    H226246   3.467   2.189  16.429  1.6913  1.5729  2.4242
 1611TIP3   OH226247   3.438   1.408   3.278 -0.2607 -0.0152  0.4533
 1611TIP3    H126248   3.458   1.380   3.367  0.7327  0.6198  0.4417
 1611TIP3    H226249   3.430   1.503   3.284  0.2162  0.0700 -0.2022
 1612TIP3   OH226250   6.415   0.019   6.557 -0.2027 -0.4615  0.1616
 1612TIP3    H126251   6.325  -0.008   6.573 -0.3649  0.4409  0.8302
 1612TIP3    H226252   6.408   0.081   6.484  0.0601 -1.5007 -0.7664
 1613TIP3   OH226253   5.764   0.447  11.933 -0.1540  0.1300  0.1584
 1613TIP3    H126254   5.844   0.497  11.914 -0.0601  0.2453  0.8730
 1613TIP3    H226255   5.779   0.362  11.891  0.6004 -0.0619  0.8150
 1614TIP3   OH226256   1.944   1.594  14.500  0.2155  0.4374 -0.1006
 1614TIP3    H126257   1.957   1.571  14.408  1.9610  0.9154  0.0180
 1614TIP3    H226258   1.984   1.680  14.510  0.0099  0.4040  1.1080
 1615TIP3   OH226259   5.555   1.558   5.799  0.2126 -0.3509 -0.1861
 1615TIP3    H126260   5.465   1.547   5.769  0.2929  0.5816 -0.7857
 1615TIP3    H226261   5.602   1.594   5.723  0.9973 -0.4325  0.2500
 1616TIP3   OH226262   5.752   5.414  14.662  0.4736 -0.0476  0.4049
 1616TIP3    H126263   5.663   5.386  14.683 -0.1263 -0.0415 -1.9987
 1616TIP3    H226264   5.778   5.468  14.736 -1.6278  0.1584  1.0310
 1617TIP3   OH226265   0.573   4.194  16.951  0.0417  0.5831  0.2047
 1617TIP3    H126266   0.614   4.182  17.036 -0.4343  0.6107  0.4416
 1617TIP3    H226267   0.482   4.215  16.971 -0.4579 -0.9516 -0.3238
 1618TIP3   OH226268   1.204   6.301   3.420 -0.2699 -0.9131 -0.1514
 1618TIP3    H126269   1.259   6.322   3.344 -0.5285 -0.0289 -0.0962
 1618TIP3    H226270   1.191   6.384   3.464 -0.9191 -1.2706  0.3418
 1619TIP3   OH226271   2.308   5.098   5.898  0.7079  0.2262 -0.2634
 1619TIP3    H126272   2.309   5.171   5.836  3.4102  1.5710  1.3032
 1619TIP3    H226273   2.224   5.107   5.943 -1.3096 -0.7608 -3.5900
 1620TIP3   OH226274   4.046   2.015  11.660  0.8913  0.1334 -0.8056
 1620TIP3    H126275   4.069   2.102  11.627  1.0983  0.6890  0.7561
 1620TIP3    H226276   4.042   2.025  11.755 -1.4006 -1.0293 -0.7442
 1621TIP3   OH226277   3.179   0.260   4.916 -0.1526  0.1944  0.1064
 1621TIP3    H126278   3.149   0.218   4.997  2.1033 -1.8648 -0.0541
 1621TIP3    H226279   3.116   0.233   4.850 -0.7470  0.0229  0.7353
 1622TIP3   OH226280   1.926   4.109   3.359 -0.0255 -0.0391  0.2682
 1622TIP3    H126281   1.872   4.152   3.425 -0.7952  0.4921 -0.6714
 1622TIP3    H226282   1.962   4.182   3.307  0.3092 -0.4507 -0.0822
 1623TIP3   OH226283   5.368   3.569   1.038  0.6285 -0.0908  0.5596
 1623TIP3    H126284   5.303   3.519   0.989  1.4001 -1.4414  0.9052
 1623TIP3    H226285   5.426   3.606   0.971  1.1631 -1.2079  0.4051
 1624TIP3   OH226286   6.214   4.669  12.959 -0.1171 -0.0049  0.0306
 1624TIP3    H126287   6.267   4.629  13.028 -0.7734  0.9334  1.0770
 1624TIP3    H226288   6.234   4.617  12.881  5.1023  2.3662 -0.5023
 1625TIP3   OH226289   3.402   0.251   1.088  0.5261  0.7395 -0.6106
 1625TIP3    H126290   3.421   0.344   1.099 -0.2261  0.6715  1.3794
 1625TIP3    H226291   3.317   0.238   1.128  1.3374 -1.1076  0.6015
 1626TIP3   OH226292   3.467   0.894  15.163 -0.4460 -0.3524 -0.3449
 1626TIP3    H126293   3.522   0.972  15.166  0.9139 -1.2228 -1.6977
 1626TIP3    H226294   3.461   0.866  15.254  0.1267  0.6185 -0.0022
 1627TIP3   OH226295   1.807   4.542  13.984  0.1173 -0.5166  0.2025
 1627TIP3    H126296   1.714   4.525  13.974 -0.4926  2.4240  0.4119
 1627TIP3    H226297   1.836   4.571  13.898  0.3988  0.4385  0.6130
 1628TIP3   OH226298   4.758   1.256  15.819 -0.1520 -0.2222 -0.2285
 1628TIP3    H126299   4.743   1.323  15.886 -1.0108  1.3979 -2.0112
 1628TIP3    H226300   4.845   1.222  15.839  0.1900  1.2471  0.8700
 1629TIP3   OH226301   6.496   5.244  13.818  0.1891  0.3627  0.3518
 1629TIP3    H126302   6.404   5.267  13.813  0.0904  0.1431  1.1502
 1629TIP3    H226303   6.521   5.225  13.727 -0.1514  1.9264 -0.0823
 1630TIP3   OH226304   4.032   3.535   1.752  0.0669 -0.2264 -0.4550
 1630TIP3    H126305   4.100   3.530   1.685 -1.0702  1.4478 -1.7600
 1630TIP3    H226306   4.044   3.621   1.792 -0.0506 -0.7190  0.6596
 1631TIP3   OH226307   0.146   4.187   5.085  0.0350 -0.1925 -0.5428
 1631TIP3    H126308   0.230   4.211   5.048  0.2135 -0.3373 -0.2292
 1631TIP3    H226309   0.124   4.258   5.144  0.8531 -1.0808  0.8555
 1632TIP3   OH226310   4.510   4.451   4.153 -0.2122 -0.4174 -0.2486
 1632TIP3    H126311   4.440   4.497   4.198  0.8917  0.8081  0.2407
 1632TIP3    H226312   4.521   4.369   4.202 -0.9108 -0.3580  0.0066
 1633TIP3   OH226313   0.826   6.269   1.040  0.0845  0.1325  0.0277
 1633TIP3    H126314   0.774   6.347   1.062  0.1752  0.8525 -2.1833
 1633TIP3    H226315   0.913   6.288   1.076 -0.3950  0.1937  1.1858
 1634TIP3   OH226316   3.769   1.032   6.085 -0.1549  0.2386  0.3467
 1634TIP3    H126317   3.764   0.952   6.137 -1.1001  0.4575  0.6160
 1634TIP3    H226318   3.683   1.074   6.097  0.3283  1.2945  0.2180
 1635TIP3   OH226319   2.354   0.698   3.854 -0.1002 -0.1826 -0.7479
 1635TIP3    H126320   2.392   0.741   3.930 -0.3438 -0.6243 -0.3705
 1635TIP3    H226321   2.286   0.758   3.824 -0.2080 -0.1483 -0.4338
 1636TIP3   OH226322   4.624   6.030  16.906 -0.1508 -0.5019  0.0000
 1636TIP3    H126323   4.648   5.984  16.825 -1.5952  0.0641 -0.7793
 1636TIP3    H226324   4.534   6.002  16.924 -0.7316  1.2810  0.0024
 1637TIP3   OH226325   1.197   1.937  14.204 -0.1962  0.0912 -0.1905
 1637TIP3    H126326   1.196   1.844  14.179  3.5885  0.7003 -2.8540
 1637TIP3    H226327   1.131   1.977  14.147  0.1941 -0.4743 -1.0508
 1638TIP3   OH226328   6.019   5.897   0.483 -0.6303 -0.2598 -0.3054
 1638TIP3    H126329   6.042   5.989   0.497  0.1070 -0.5882  0.7719
 1638TIP3    H226330   5.934   5.886   0.525  0.9143 -0.8917  2.8650
 1639TIP3   OH226331   6.658   5.907  14.515 -0.1527  0.2757 -0.3855
 1639TIP3    H126332   6.600   5.980  14.539  0.8661  1.0007 -0.1072
 1639TIP3    H226333   6.705   5.938  14.438  0.6518  0.1070  0.0391
 1640TIP3   OH226334   3.026   6.294  13.793  0.2768 -0.3801 -0.1288
 1640TIP3    H126335   3.110   6.306  13.837 -1.1567 -0.0882  2.6225
 1640TIP3    H226336   3.020   6.200  13.777  1.4698 -0.3077 -1.1170
 1641TIP3   OH226337   1.862   2.072  13.146 -0.3855  0.4872  0.9444
 1641TIP3    H126338   1.800   2.000  13.155 -0.9308  0.9055  0.5875
 1641TIP3    H226339   1.820   2.145  13.192 -0.6987  1.1102 -0.3261
 1642TIP3   OH226340   2.200   1.975   3.288 -0.5266 -0.4247 -0.0863
 1642TIP3    H126341   2.201   2.048   3.351  0.2769  0.6493 -1.3272
 1642TIP3    H226342   2.113   1.980   3.247 -0.9716 -0.9947  0.7714
 1643TIP3   OH226343   2.784   1.748   2.140  0.0212  0.0112  0.1555
 1643TIP3    H126344   2.797   1.837   2.173 -1.0644  0.7319 -1.3164
 1643TIP3    H226345   2.847   1.695   2.189  1.2601  1.7224  0.4591
 1644TIP3   OH226346   1.664   6.615  13.745  0.1423 -0.2778 -0.0387
 1644TIP3    H126347   1.709   6.656  13.819 -0.6288  0.2403  0.1566
 1644TIP3    H226348   1.574   6.604  13.776  0.2212 -1.6806 -0.2647
 1645TIP3   OH226349   3.893   5.804   4.963  0.0880 -0.0937  0.0857
 1645TIP3    H126350   3.800   5.782   4.961  0.2485 -0.7712 -0.3263
 1645TIP3    H226351   3.936   5.723   4.991  0.6671 -0.1841 -1.0513
 1646TIP3   OH226352   3.890   6.047  12.172 -0.7118  0.2531 -0.0757
 1646TIP3    H126353   3.866   6.002  12.253 -0.6458  0.4044  0.0284
 1646TIP3    H226354   3.816   6.103  12.152 -0.3414  0.9042  0.3779
 1647TIP3   OH226355   1.249   4.672   2.373 -0.0337  0.1444  0.4554
 1647TIP3    H126356   1.184   4.618   2.329  0.9792 -0.1730 -0.6974
 1647TIP3    H226357   1.274   4.622   2.450  0.2546 -0.6278 -0.1322
 1648TIP3   OH226358   6.642   4.381   4.611 -0.3364  0.0017  1.0019
 1648TIP3    H126359   6.584   4.332   4.551  1.6592 -1.3851  0.1234
 1648TIP3    H226360   6.605   4.366   4.697 -2.0424  0.2240  0.3247
 1649TIP3   OH226361   5.551   5.655  14.780  0.1628  0.7742  0.5508
 1649TIP3    H126362   5.502   5.712  14.721  0.2801  0.0836 -0.2282
 1649TIP3    H226363   5.487   5.587  14.805  0.5198  0.2617  0.0813
 1650TIP3   OH226364   0.263   5.092  16.064 -0.1078  0.1011 -0.4577
 1650TIP3    H126365   0.339   5.038  16.085  0.5067  0.3466 -2.0306
 1650TIP3    H226366   0.282   5.177  16.105  0.9076  0.4505 -1.6085
 1651TIP3   OH226367   6.201   0.170  15.685  0.4642 -0.1257  0.0456
 1651TIP3    H126368   6.293   0.195  15.676 -0.1161  2.1562 -0.0206
 1651TIP3    H226369   6.193   0.144  15.777  1.6048 -2.3908 -0.4557
 1652TIP3   OH226370   2.978   4.479   4.191 -0.0144  0.0339 -0.2707
 1652TIP3    H126371   3.046   4.525   4.241 -0.3840  0.8130 -0.4777
 1652TIP3    H226372   2.942   4.546   4.132  2.3905 -1.5361 -3.6833
 1653TIP3   OH226373   2.990   2.704   0.255 -0.0035 -0.0941 -0.6072
 1653TIP3    H126374   2.987   2.687   0.161  0.4191  0.9998 -0.8246
 1653TIP3    H226375   2.972   2.619   0.295  0.4458 -0.7010 -1.6677
 1654TIP3   OH226376   5.279   3.702  12.243 -0.0285 -0.1184  0.1821
 1654TIP3    H126377   5.255   3.793  12.228 -0.0195 -0.0030  0.8494
 1654TIP3    H226378   5.249   3.656  12.164 -0.2237  0.4227 -0.0630
 1655TIP3   OH226379   5.020   2.970  13.903 -0.0751 -0.2109 -0.2406
 1655TIP3    H126380   4.941   2.951  13.955 -0.3515  0.0468 -0.5689
 1655TIP3    H226381   5.011   2.915  13.825 -1.2641  1.8187 -1.5746
 1656TIP3   OH226382   4.544   4.887   1.016 -0.0033 -0.3632 -0.3678
 1656TIP3    H126383   4.531   4.947   1.090  1.0778  2.5658 -2.4572
 1656TIP3    H226384   4.617   4.831   1.043 -1.1896 -0.9635  1.7262
 1657TIP3   OH226385   1.059   2.027  12.329  0.3523 -0.0442  0.5674
 1657TIP3    H126386   1.030   2.059  12.414 -0.9102 -0.2183  0.2228
 1657TIP3    H226387   1.078   1.934  12.344 -0.0095 -0.1088  0.6293
 1658TIP3   OH226388   3.153   0.198   1.242  0.2142  0.4211 -0.1512
 1658TIP3    H126389   3.096   0.162   1.310  2.2498 -0.1475  1.2676
 1658TIP3    H226390   3.187   0.279   1.280 -0.3759  1.2589 -1.3779
 1659TIP3   OH226391   1.316   2.094  12.821  0.4145  0.1215  0.1236
 1659TIP3    H126392   1.343   2.174  12.776  0.0542  0.1642 -0.0135
 1659TIP3    H226393   1.224   2.108  12.843  0.6362  0.1690  1.0326
 1660TIP3   OH226394   1.172   6.195   4.875  0.3993  0.1298  0.3533
 1660TIP3    H126395   1.172   6.267   4.812  0.1076  1.3183  1.6896
 1660TIP3    H226396   1.176   6.237   4.961 -2.7800 -1.3134  1.3102
 1661TIP3   OH226397   1.532   5.245  15.018 -0.4425  0.3746 -0.2413
 1661TIP3    H126398   1.512   5.293  15.098 -1.7295 -0.9928  0.2966
 1661TIP3    H226399   1.626   5.259  15.004 -0.6954  2.5721  0.1800
 1662TIP3   OH226400   3.753   4.962  12.035  0.0376 -0.1072 -0.1387
 1662TIP3    H126401   3.832   4.909  12.029  0.4225  0.5282 -0.7780
 1662TIP3    H226402   3.761   5.026  11.964 -0.4323  0.7815  0.5861
 1663TIP3   OH226403   0.743   2.032   0.732  0.4357 -0.3205  0.9051
 1663TIP3    H126404   0.712   2.088   0.803  0.9185  1.8443 -0.5358
 1663TIP3    H226405   0.834   2.058   0.719 -0.4754  1.5099 -2.4534
 1664TIP3   OH226406   5.114   2.584  13.827  0.3072 -0.2478 -0.1282
 1664TIP3    H126407   5.171   2.533  13.886 -1.5074 -2.6389 -0.3535
 1664TIP3    H226408   5.034   2.532  13.821 -0.0658  0.6090 -3.6788
 1665TIP3   OH226409   6.314   0.158  15.976  0.1854  0.2249 -0.1912
 1665TIP3    H126410   6.409   0.149  15.987  0.5040 -0.2070 -3.0197
 1665TIP3    H226411   6.299   0.252  15.974  0.8021  0.2982 -1.6283
 1666TIP3   OH226412   3.802   6.162  14.674  0.1812 -0.4102  0.2686
 1666TIP3    H126413   3.872   6.096  14.664 -0.9720 -1.4273 -1.2727
 1666TIP3    H226414   3.814   6.220  14.598 -1.9138 -1.8243 -1.1967
 1667TIP3   OH226415   6.742   1.219   0.612 -0.0944 -0.0090  0.4975
 1667TIP3    H126416   6.825   1.229   0.660  0.2027 -0.3498  0.0561
 1667TIP3    H226417   6.768   1.213   0.520 -0.6226  0.0191  0.3452
 1668TIP3   OH226418   0.837   0.040   4.870 -0.7091 -0.9485  0.1233
 1668TIP3    H126419   0.810   0.100   4.802 -2.2563 -0.3688  1.2211
 1668TIP3    H226420   0.929   0.061   4.886 -1.1774  0.9726  0.3465
 1669TIP3   OH226421   1.758   2.004  15.039  0.1795 -0.2048 -0.0139
 1669TIP3    H126422   1.776   2.087  15.084  0.5942 -1.5102  2.2804
 1669TIP3    H226423   1.844   1.969  15.017  0.1489 -1.4779  1.7721
 1670TIP3   OH226424   4.039   1.837  14.530 -0.5536  0.0844  1.1167
 1670TIP3    H126425   4.082   1.923  14.531 -0.4374  0.0158  2.0215
 1670TIP3    H226426   4.096   1.782  14.477 -0.9292  0.7202  0.0354
 1671TIP3   OH226427   1.837   4.273  15.802 -0.7250 -0.4345 -0.7689
 1671TIP3    H126428   1.914   4.230  15.839  0.2101  2.2545  0.5339
 1671TIP3    H226429   1.836   4.245  15.711  0.9840 -1.6081 -0.4600
 1672TIP3   OH226430   5.048   3.423  11.666  0.3541  0.5367 -0.0776
 1672TIP3    H126431   5.105   3.492  11.701  0.3326  1.2924 -1.5012
 1672TIP3    H226432   5.038   3.445  11.574 -0.1813 -1.0333 -0.4023
 1673TIP3   OH226433   4.364   4.346   6.118 -0.0783 -0.2312 -0.1507
 1673TIP3    H126434   4.449   4.342   6.075 -0.1678  1.8013 -0.5583
 1673TIP3    H226435   4.372   4.286   6.192  2.1953  1.0184  0.6550
 1674TIP3   OH226436   5.517   3.809   3.518  0.1436 -0.5191 -0.2401
 1674TIP3    H126437   5.491   3.753   3.591 -2.2949 -0.6683 -1.1655
 1674TIP3    H226438   5.438   3.817   3.465  1.1691  1.6617 -1.5206
 1675TIP3   OH226439   2.166   5.024   1.468 -0.5804  0.4406 -0.0020
 1675TIP3    H126440   2.210   5.109   1.476  0.4967 -0.2488  1.4944
 1675TIP3    H226441   2.098   5.026   1.535 -2.3360  1.1639 -1.7468
 1676TIP3   OH226442   0.098   4.146  14.786 -0.6003 -0.2543 -0.0651
 1676TIP3    H126443   0.068   4.186  14.868 -1.2134 -0.2516 -0.2869
 1676TIP3    H226444   0.034   4.077  14.768  0.5556 -1.4654  0.4064
 1677TIP3   OH226445   3.956   5.278   2.882  0.0882  0.4295  0.1191
 1677TIP3    H126446   4.002   5.311   2.805 -0.6684  0.7723 -0.1920
 1677TIP3    H226447   4.011   5.304   2.956 -1.1532  3.6462 -0.0036
 1678TIP3   OH226448   1.918   3.471  11.084  0.0273 -0.5266  0.2017
 1678TIP3    H126449   1.986   3.490  11.019 -1.3139 -0.2616 -1.1435
 1678TIP3    H226450   1.918   3.547  11.141 -1.8134  1.2794 -2.1346
 1679TIP3   OH226451   2.196   2.413  14.210 -0.7047 -0.1884 -0.2556
 1679TIP3    H126452   2.231   2.335  14.166  0.7270  0.5445 -0.4741
 1679TIP3    H226453   2.117   2.435  14.161 -0.3237 -0.6650 -1.1074
 1680TIP3   OH226454   5.399   1.494  15.576 -0.2694  0.9987  0.6813
 1680TIP3    H126455   5.465   1.563  15.572  0.7755 -0.0329 -0.2441
 1680TIP3    H226456   5.323   1.536  15.617  0.8483  2.2834  1.5009
 1681TIP3   OH226457   1.047   0.586  15.187  0.4524 -0.4922 -0.3227
 1681TIP3    H126458   1.083   0.498  15.184 -1.4925 -1.2578 -3.1021
 1681TIP3    H226459   0.955   0.573  15.213  0.4423  0.8285  0.3498
 1682TIP3   OH226460   5.221   5.313   0.039  0.4665 -0.2014  0.8104
 1682TIP3    H126461   5.285   5.325  -0.031  2.4591 -1.9209  2.2645
 1682TIP3    H226462   5.136   5.313  -0.005  1.3094  3.3668 -1.0099
 1683TIP3   OH226463   2.371   3.482   0.197 -0.1229  0.0701  0.8046
 1683TIP3    H126464   2.388   3.433   0.117  0.7644  1.4504  0.1288
 1683TIP3    H226465   2.331   3.419   0.256 -0.2357 -1.1140 -0.5195
 1684TIP3   OH226466   5.370   1.198   5.321  0.3010 -0.4933 -0.3567
 1684TIP3    H126467   5.458   1.212   5.285  0.2110  1.9427  0.2498
 1684TIP3    H226468   5.340   1.117   5.281  2.7417 -1.2389 -0.7537
 1685TIP3   OH226469   4.985   6.135  10.301  0.2897  0.4430  0.8230
 1685TIP3    H126470   5.078   6.116  10.306  0.1447 -0.3612  0.6553
 1685TIP3    H226471   4.974   6.180  10.217  0.1203 -2.1278 -0.6041
 1686TIP3   OH226472   0.911   5.292  12.266  0.0919 -0.4399  0.2202
 1686TIP3    H126473   0.877   5.375  12.234  1.3522 -0.1160 -0.2971
 1686TIP3    H226474   0.919   5.237  12.188  2.1257 -0.0138  0.0964
 1687TIP3   OH226475   3.089   0.766   4.573  0.7198 -0.0544  0.1395
 1687TIP3    H126476   3.036   0.692   4.543 -0.6917  1.5281 -1.3280
 1687TIP3    H226477   3.071   0.772   4.667 -0.8046 -0.2592 -0.1279
 1688TIP3   OH226478   5.292   2.041  12.917  0.3420 -0.1655 -0.2086
 1688TIP3    H126479   5.258   1.951  12.918  0.4981 -0.2233  0.9571
 1688TIP3    H226480   5.215   2.095  12.935 -0.1145  0.0782 -2.8015
 1689TIP3   OH226481   5.131   6.128  11.800 -0.7672 -0.0316 -0.1349
 1689TIP3    H126482   5.149   6.220  11.817 -2.3210  0.2799 -0.0436
 1689TIP3    H226483   5.054   6.130  11.742 -1.5768 -1.2890  0.8819
 1690TIP3   OH226484   0.867   3.300  11.093 -0.1181  0.2773 -0.1771
 1690TIP3    H126485   0.856   3.394  11.107  0.9749  0.3977 -0.0263
 1690TIP3    H226486   0.811   3.280  11.018 -1.3535  0.7932  0.5983
 1691TIP3   OH226487   2.645   1.615  12.993  0.6094 -0.4421  0.0452
 1691TIP3    H126488   2.714   1.675  12.963  3.3596 -2.4329  2.0390
 1691TIP3    H226489   2.578   1.672  13.030  2.0992  1.5193 -0.1797
 1692TIP3   OH226490   3.883   6.110   4.589 -0.3104  0.0796 -0.5530
 1692TIP3    H126491   3.924   6.051   4.653  0.1131 -0.8358 -1.6622
 1692TIP3    H226492   3.852   6.183   4.642 -0.1411 -0.7562  0.7422
 1693TIP3   OH226493   1.301   4.211   2.747 -0.2863  0.1633  0.2867
 1693TIP3    H126494   1.230   4.147   2.748 -0.2855  0.1587  0.0331
 1693TIP3    H226495   1.307   4.241   2.838 -0.1732 -0.3185  0.4421
 1694TIP3   OH226496   5.267   5.151  16.088 -0.5198 -0.3086  0.1757
 1694TIP3    H126497   5.314   5.233  16.081  0.1744 -0.3358  3.5315
 1694TIP3    H226498   5.190   5.171  16.142 -0.9485 -1.6159  0.0894
 1695TIP3   OH226499   2.804   0.756  17.051 -0.6752  0.3058 -0.2939
 1695TIP3    H126500   2.890   0.774  17.088 -1.2811  1.7067  0.4756
 1695TIP3    H226501   2.811   0.780  16.959  0.2810 -1.3533 -0.6698
 1696TIP3   OH226502   2.021   4.711  12.232 -0.3555 -0.0569  0.4853
 1696TIP3    H126503   2.034   4.642  12.297  1.8473 -1.2652 -1.1367
 1696TIP3    H226504   1.938   4.690  12.190  0.4927 -2.0580 -0.2915
 1697TIP3   OH226505   5.854   2.618   5.849  0.4022 -0.0234 -0.1172
 1697TIP3    H126506   5.944   2.635   5.824  0.2331  0.7706 -0.2043
 1697TIP3    H226507   5.806   2.696   5.822 -0.2280 -0.2383  0.3504
 1698TIP3   OH226508   2.039   1.116  10.832 -0.4404  0.2328  0.5131
 1698TIP3    H126509   2.045   1.116  10.737 -3.6336 -0.3852  0.2579
 1698TIP3    H226510   2.117   1.068  10.861  1.3000  1.6543 -1.6867
 1699TIP3   OH226511   2.215   1.428   6.268 -0.3285  0.6613 -0.0401
 1699TIP3    H126512   2.189   1.346   6.309 -1.5851  1.4455  0.7785
 1699TIP3    H226513   2.268   1.472   6.334 -1.1443  1.2803  0.2181
 1700TIP3   OH226514   0.501   6.105   0.590 -1.0735 -0.2107  0.1256
 1700TIP3    H126515   0.462   6.165   0.654 -1.0974  0.1682 -0.2407
 1700TIP3    H226516   0.585   6.080   0.629 -0.2416  1.4731 -0.5207
 1701TIP3   OH226517   1.482   4.541  15.950 -0.0316 -0.1961  0.2231
 1701TIP3    H126518   1.543   4.580  16.013  0.5894  0.8783 -1.0003
 1701TIP3    H226519   1.499   4.447  15.954  0.3698 -0.0747  1.2721
 1702TIP3   OH226520   4.331   0.167   1.864 -0.1249 -0.3874  0.3742
 1702TIP3    H126521   4.266   0.167   1.934  1.4046  0.0500  1.8168
 1702TIP3    H226522   4.291   0.220   1.795 -1.4471 -0.4278  1.0928
 1703TIP3   OH226523   5.226   1.274  16.600 -0.0317 -0.2938  0.3673
 1703TIP3    H126524   5.229   1.334  16.675  0.4395  1.1609 -0.7903
 1703TIP3    H226525   5.133   1.262  16.583 -0.1139  0.6884  0.1418
 1704TIP3   OH226526   2.671   0.632   2.759  0.0404  0.4383 -0.2397
 1704TIP3    H126527   2.704   0.714   2.797  1.2261 -0.3022  0.3788
 1704TIP3    H226528   2.706   0.564   2.817 -2.0140 -0.4351  0.0268
 1705TIP3   OH226529   3.907   1.000  15.722  0.1019  0.0357 -0.2737
 1705TIP3    H126530   3.861   1.013  15.639 -3.0872  1.5546  1.6149
 1705TIP3    H226531   3.918   1.089  15.757  0.2574 -0.6518  1.4804
 1706TIP3   OH226532   5.481   5.829   1.308  0.4909  0.0142  0.8570
 1706TIP3    H126533   5.504   5.917   1.338  0.6926  0.0102  0.7183
 1706TIP3    H226534   5.552   5.805   1.249  0.2619 -0.1081  0.6313
 1707TIP3   OH226535   5.721   2.150   4.892  0.1266 -0.3370 -0.0191
 1707TIP3    H126536   5.636   2.153   4.936 -0.3461  0.4008 -0.9600
 1707TIP3    H226537   5.701   2.170   4.801  1.1367 -1.5259 -0.5219
 1708TIP3   OH226538   3.713   6.546  15.009  0.2151 -0.4922 -0.2317
 1708TIP3    H126539   3.667   6.464  15.025 -0.2832 -0.7484 -2.7299
 1708TIP3    H226540   3.664   6.587  14.937  1.0485  1.5108  0.2990
 1709TIP3   OH226541   5.537   0.602   0.211  0.4110  0.8460 -0.3732
 1709TIP3    H126542   5.476   0.584   0.139 -0.7580  1.9130  0.3158
 1709TIP3    H226543   5.559   0.695   0.199  0.1247  1.0516  0.7020
 1710TIP3   OH226544   0.435   6.277  11.671 -0.4660 -0.5574  0.4830
 1710TIP3    H126545   0.349   6.312  11.695 -0.2148 -0.3203  1.0521
 1710TIP3    H226546   0.497   6.342  11.703 -0.1007 -0.4398 -0.4626
 1711TIP3   OH226547   1.369   4.682   0.080  0.1099  0.3183 -0.2453
 1711TIP3    H126548   1.403   4.608   0.029 -0.6130  0.5173 -1.0274
 1711TIP3    H226549   1.278   4.658   0.099  0.8362 -0.5025  2.3832
 1712TIP3   OH226550   4.801   2.980   1.383 -0.3669  0.3915 -0.2182
 1712TIP3    H126551   4.750   3.056   1.356  0.4749  0.6749 -1.0373
 1712TIP3    H226552   4.891   3.012   1.390 -0.2433 -0.1773  0.9207
 1713TIP3   OH226553   5.845   1.689  11.197  0.4449  0.3690 -0.2213
 1713TIP3    H126554   5.894   1.629  11.253  0.3193  0.0349 -0.4692
 1713TIP3    H226555   5.884   1.678  11.111 -0.3631 -0.2334 -0.5155
 1714TIP3   OH226556   4.205   3.176  11.023 -0.0410 -0.1025  0.3155
 1714TIP3    H126557   4.227   3.269  11.015 -0.0228 -0.0836  0.5824
 1714TIP3    H226558   4.130   3.164  10.964 -0.1068  0.1014  0.3578
 1715TIP3   OH226559   2.423   6.661   3.448  0.2293  0.2396 -0.2639
 1715TIP3    H126560   2.358   6.603   3.489  0.9558 -1.2172 -1.0987
 1715TIP3    H226561   2.507   6.615   3.461  1.0365  1.8525  0.3711
 1716TIP3   OH226562   0.911   6.392   3.461  0.8046 -0.5518 -0.0868
 1716TIP3    H126563   0.847   6.339   3.508  1.3907 -0.7507  0.4959
 1716TIP3    H226564   0.990   6.386   3.514  0.8481  0.9884  0.0397
 1717TIP3   OH226565   3.960   4.136  11.657 -0.5116 -0.4157  0.2101
 1717TIP3    H126566   4.046   4.171  11.681 -0.3438 -0.1022 -0.7967
 1717TIP3    H226567   3.899   4.176  11.718  0.0654 -0.6542  0.9447
 1718TIP3   OH226568   2.071   1.818  11.429 -0.3562 -0.4355 -0.1971
 1718TIP3    H126569   2.016   1.845  11.501  3.3125  1.1405  2.1618
 1718TIP3    H226570   2.089   1.898  11.380 -0.9091 -1.0864 -1.4983
 1719TIP3   OH226571   2.935   0.340   2.649 -0.1201 -0.3220  0.4024
 1719TIP3    H126572   2.975   0.285   2.716  0.7673 -1.2415 -0.8487
 1719TIP3    H226573   2.930   0.427   2.688 -0.0962 -0.9522  1.8354
 1720TIP3   OH226574   3.595   6.069  13.310 -0.2276 -0.0428 -0.6780
 1720TIP3    H126575   3.583   5.984  13.353 -0.7019  1.0992  1.5398
 1720TIP3    H226576   3.606   6.130  13.382  2.4470  1.4605 -2.2998
 1721TIP3   OH226577   5.876   6.672  11.307  0.3779  0.3198 -0.1151
 1721TIP3    H126578   5.920   6.658  11.223  1.8943  0.8958  0.5673
 1721TIP3    H226579   5.940   6.646  11.372 -0.6967  0.1529  0.8892
 1722TIP3   OH226580   6.308   4.070  13.627 -0.7337  0.3858  0.0959
 1722TIP3    H126581   6.322   4.007  13.698 -2.8345  0.0042  0.2072
 1722TIP3    H226582   6.364   4.039  13.556 -0.6301 -0.7649  0.6731
 1723TIP3   OH226583   1.239   5.551   1.728 -0.4229  0.5500 -0.1944
 1723TIP3    H126584   1.161   5.569   1.780 -0.5382  1.4833 -0.6729
 1723TIP3    H226585   1.292   5.495   1.783 -0.5390  1.5339  0.9429
 1724TIP3   OH226586   2.013   0.341   5.329  0.7829 -0.0359  0.0288
 1724TIP3    H126587   2.053   0.261   5.295 -0.0113 -0.0748 -0.8333
 1724TIP3    H226588   2.051   0.352   5.417  0.1311 -1.9037  0.5641
 1725TIP3   OH226589   3.180   0.118   2.599  0.2322  0.4931  0.2458
 1725TIP3    H126590   3.247   0.186   2.587  1.1914 -0.2050  1.5187
 1725TIP3    H226591   3.133   0.144   2.678  0.8135 -0.4917  0.9165
 1726TIP3   OH226592   0.998   2.639  11.473 -0.1693  0.8455 -0.1266
 1726TIP3    H126593   1.083   2.596  11.482  0.4014  1.8549 -0.6190
 1726TIP3    H226594   1.017   2.733  11.481 -1.0735  1.1518 -1.4294
 1727TIP3   OH226595   3.742   3.792   4.084 -0.0476 -0.2667  0.0303
 1727TIP3    H126596   3.764   3.873   4.129  3.3090 -1.2081  0.1552
 1727TIP3    H226597   3.799   3.791   4.007 -2.1142 -1.1480 -1.5552
 1728TIP3   OH226598   4.522   4.879   4.965 -0.0174  0.4752 -0.3801
 1728TIP3    H126599   4.455   4.833   5.016 -0.5840 -1.3692 -2.6642
 1728TIP3    H226600   4.579   4.920   5.030 -1.7862 -0.2128  1.6579
 1729TIP3   OH226601   0.906   0.340  14.293  0.6404  0.6015 -0.2879
 1729TIP3    H126602   0.910   0.383  14.378  0.2660  0.2076 -0.0692
 1729TIP3    H226603   0.818   0.302  14.289  1.2696 -0.8921 -0.1126
 1730TIP3   OH226604   2.437   0.179   2.661  0.2732 -0.0049 -0.0586
 1730TIP3    H126605   2.376   0.211   2.728  1.0670  0.5414  0.4155
 1730TIP3    H226606   2.400   0.095   2.633 -0.5248  0.1692  0.4464
 1731TIP3   OH226607   4.215   4.908   1.615 -0.1687  0.1163  0.2618
 1731TIP3    H126608   4.307   4.927   1.593  0.4569 -0.5166  2.1804
 1731TIP3    H226609   4.200   4.956   1.697 -0.2491 -3.0690  2.1985
 1732TIP3   OH226610   4.214   0.196  13.945  0.1033 -0.1172  0.3461
 1732TIP3    H126611   4.258   0.260  14.001 -2.0644  1.2531  0.5127
 1732TIP3    H226612   4.182   0.130  14.007  0.9591 -0.5586  0.3283
 1733TIP3   OH226613   1.450   1.622   5.963  0.7760  0.5324 -0.4636
 1733TIP3    H126614   1.394   1.580   6.028  0.2224  0.0554 -1.2452
 1733TIP3    H226615   1.528   1.647   6.012 -0.8964  2.9629  1.1060
 1734TIP3   OH226616   3.313   2.082   5.612  0.5246 -0.3940  0.9807
 1734TIP3    H126617   3.248   2.042   5.554  0.0214  0.5278  0.9104
 1734TIP3    H226618   3.318   2.022   5.687 -1.5626  0.3165  1.7282
 1735TIP3   OH226619   2.755   6.037   1.720  0.3689  0.6974 -0.1638
 1735TIP3    H126620   2.665   6.005   1.726  0.1918  1.3644  0.9340
 1735TIP3    H226621   2.758   6.085   1.637 -0.4723  1.1848  0.0766
 1736TIP3   OH226622   6.505   4.303   4.848 -0.0788 -0.0045  0.5384
 1736TIP3    H126623   6.482   4.302   4.941  1.6255 -0.2327  0.9736
 1736TIP3    H226624   6.492   4.212   4.820 -0.1505 -0.0361  0.6727
 1737TIP3   OH226625   3.276   2.522  10.951 -0.4130 -0.2566 -0.0269
 1737TIP3    H126626   3.255   2.586  11.019  0.7693  2.5399 -2.1912
 1737TIP3    H226627   3.204   2.531  10.888 -0.0041 -0.7236 -0.5622
 1738TIP3   OH226628   2.783   4.505  15.321  0.4667  0.1371 -0.5849
 1738TIP3    H126629   2.758   4.591  15.357  0.7549 -0.1872  0.4294
 1738TIP3    H226630   2.716   4.485  15.257  0.5995  1.2984 -1.0972
 1739TIP3   OH226631   0.278   5.294  15.756 -0.4134 -0.1523  0.0626
 1739TIP3    H126632   0.254   5.351  15.829  1.1605 -0.9265  1.2098
 1739TIP3    H226633   0.345   5.342  15.708 -0.1285 -0.4161  0.1945
 1740TIP3   OH226634   0.749   2.494   0.080 -0.1329  0.2091 -0.2892
 1740TIP3    H126635   0.723   2.585   0.099 -1.7421 -0.4439  0.7095
 1740TIP3    H226636   0.824   2.479   0.138 -1.6816 -0.0264  1.6898
 1741TIP3   OH226637   0.701   5.559   1.985 -0.0264 -0.1075  0.0068
 1741TIP3    H126638   0.707   5.494   2.055 -0.3380 -0.3335 -0.1747
 1741TIP3    H226639   0.670   5.509   1.909 -2.9109  0.7556  0.5648
 1742TIP3   OH226640   1.043   4.621  14.492 -0.0701  0.2609  0.1057
 1742TIP3    H126641   0.972   4.607  14.555  0.3569  0.5843  0.6603
 1742TIP3    H226642   1.092   4.539  14.494 -1.2688 -0.5043 -1.3546
 1743TIP3   OH226643   1.639   6.264   0.757 -0.2451 -0.6590 -0.0310
 1743TIP3    H126644   1.612   6.290   0.669  0.0134 -0.4457 -0.0464
 1743TIP3    H226645   1.734   6.275   0.757 -0.3296  0.0836  0.5215
 1744TIP3   OH226646   2.631   3.874   4.456 -0.4117  0.2571  0.6221
 1744TIP3    H126647   2.594   3.858   4.369  0.4640 -0.6310  0.4022
 1744TIP3    H226648   2.666   3.963   4.451  0.8448 -0.2763 -0.3777
 1745TIP3   OH226649   4.452   2.494  12.915 -0.0457  0.6200  0.2833
 1745TIP3    H126650   4.457   2.492  13.010 -0.6920 -0.6427  0.2987
 1745TIP3    H226651   4.362   2.519  12.895 -0.6723 -1.7292  0.0212
 1746TIP3   OH226652   0.801   4.087  14.833  0.0256 -0.1286  0.0146
 1746TIP3    H126653   0.793   4.159  14.894 -1.2905  1.2958 -1.7766
 1746TIP3    H226654   0.774   4.124  14.748 -2.9776 -3.2976 -0.5379
 1747TIP3   OH226655   6.153   5.599  17.058  0.6076 -0.0247 -0.6191
 1747TIP3    H126656   6.219   5.638  17.115 -0.0478  0.8799 -0.4685
 1747TIP3    H226657   6.097   5.672  17.033 -0.1650 -0.7342 -0.9825
 1748TIP3   OH226658   3.467   1.135   1.307  0.2690  0.2501  0.0009
 1748TIP3    H126659   3.396   1.184   1.348  0.9419 -1.6839  3.6991
 1748TIP3    H226660   3.543   1.193   1.315  0.4550 -0.2203  1.8159
 1749TIP3   OH226661   2.852   3.269  13.931  0.4750  0.5351  0.1647
 1749TIP3    H126662   2.791   3.337  13.903  0.0601  0.9363  1.9932
 1749TIP3    H226663   2.826   3.191  13.882 -2.1924  0.4281  1.6695
 1750TIP3   OH226664   3.441   5.116   7.120  0.2588  0.2465 -0.4366
 1750TIP3    H126665   3.531   5.146   7.107  0.8336 -1.7230 -1.2235
 1750TIP3    H226666   3.449   5.021   7.128 -1.7304  0.0765 -0.2294
 1751TIP3   OH226667   3.423   1.142  16.002  0.5183  0.0902  0.3701
 1751TIP3    H126668   3.442   1.074  15.938 -0.4473 -0.0861  0.2620
 1751TIP3    H226669   3.509   1.170  16.034  0.9819 -0.1637 -0.6351
 1752TIP3   OH226670   0.731   3.605   1.010  0.5619  0.0146 -0.0778
 1752TIP3    H126671   0.770   3.520   1.027  0.4808 -0.1088 -0.5081
 1752TIP3    H226672   0.793   3.668   1.046  0.6938 -0.2195  0.1017
 1753TIP3   OH226673   2.720   2.878   2.618  0.0645  0.4466 -0.1693
 1753TIP3    H126674   2.779   2.817   2.572 -1.2001 -2.3123  1.7496
 1753TIP3    H226675   2.762   2.963   2.608  3.8588 -1.2673  0.2219
 1754TIP3   OH226676   0.821   0.910  10.990 -0.0214 -0.5083 -0.6954
 1754TIP3    H126677   0.744   0.857  10.971  0.8255 -1.5383 -1.2727
 1754TIP3    H226678   0.889   0.877  10.931  0.8241  0.4917 -0.3036
 1755TIP3   OH226679   0.660   0.648  10.915  0.0360  0.6437 -0.0573
 1755TIP3    H126680   0.671   0.623  11.007  1.3650  1.3198 -0.0275
 1755TIP3    H226681   0.689   0.572  10.865  1.2982  1.0273  0.0696
 1756TIP3   OH226682   2.295   5.544  15.290  0.1266 -0.1797 -0.5548
 1756TIP3    H126683   2.225   5.504  15.342  1.2008 -0.2414  0.8891
 1756TIP3    H226684   2.278   5.638  15.296 -0.7457 -0.2683 -1.5481
 1757TIP3   OH226685   2.368   2.738   5.501 -0.8694 -0.1040 -0.4587
 1757TIP3    H126686   2.379   2.816   5.447 -2.7501  0.4481 -0.0767
 1757TIP3    H226687   2.444   2.738   5.559  0.1868  0.3226 -1.8143
 1758TIP3   OH226688   5.267   1.978   4.998  0.1058 -0.0538  0.6827
 1758TIP3    H126689   5.222   1.894   5.002  0.2899 -0.1131  1.8614
 1758TIP3    H226690   5.197   2.043   5.007 -0.0306 -0.0794 -0.1765
 1759TIP3   OH226691   0.975   0.379  16.981  0.2264  0.7270  0.1420
 1759TIP3    H126692   0.989   0.295  17.025 -0.9761  1.6045  2.2867
 1759TIP3    H226693   1.063   0.410  16.960  0.7021 -0.8844 -0.3496
 1760TIP3   OH226694   4.600   5.199   6.231 -0.0105  1.2201  0.0594
 1760TIP3    H126695   4.562   5.234   6.150  1.0756  0.0111 -0.9911
 1760TIP3    H226696   4.576   5.106   6.230  0.4868  1.0833  0.8495
 1761TIP3   OH226697   0.532   1.928  13.786  0.6769 -0.0067 -0.4694
 1761TIP3    H126698   0.522   1.982  13.707 -1.4476  0.3227 -0.0055
 1761TIP3    H226699   0.607   1.966  13.831  0.3972  1.3399 -1.1143
 1762TIP3   OH226700   5.399   1.969   0.397 -0.1969  0.2374 -1.1471
 1762TIP3    H126701   5.345   1.972   0.476  2.4612  0.3805  0.7659
 1762TIP3    H226702   5.484   1.935   0.428  0.5455 -0.8235 -4.1742
 1763TIP3   OH226703   6.053   2.597   4.758  0.1623 -0.6677  0.4376
 1763TIP3    H126704   5.959   2.603   4.776  0.0592  0.7152 -0.5212
 1763TIP3    H226705   6.088   2.550   4.834 -0.8503  1.5784  2.3682
 1764TIP3   OH226706   1.698   5.108  13.271  0.0987 -0.3976 -0.4024
 1764TIP3    H126707   1.703   5.173  13.201 -0.3791 -0.1879 -0.2491
 1764TIP3    H226708   1.786   5.104  13.307 -0.2451  1.3915  0.6847
 1765TIP3   OH226709   2.214   5.040   4.720 -0.1795 -0.8036 -0.3420
 1765TIP3    H126710   2.209   4.992   4.803  0.0278 -0.2449 -0.0075
 1765TIP3    H226711   2.122   5.060   4.699 -0.0422  1.7610  1.3380
 1766TIP3   OH226712   0.046   2.326  15.605 -0.6927 -0.2110 -0.1831
 1766TIP3    H126713   0.081   2.244  15.639  0.9633  0.1928 -0.8750
 1766TIP3    H226714   0.069   2.326  15.512  0.2119  1.4844  0.0242
 1767TIP3   OH226715   2.099   5.942   2.386 -0.1110 -0.0371  0.1509
 1767TIP3    H126716   2.086   5.874   2.452 -1.7694  1.7478  1.7528
 1767TIP3    H226717   2.128   6.018   2.437 -2.1256  1.5757 -1.0496
 1768TIP3   OH226718   3.836   1.320   1.655  0.0282 -0.1603  0.1251
 1768TIP3    H126719   3.861   1.379   1.726  0.9982  1.1319 -1.2705
 1768TIP3    H226720   3.741   1.329   1.648  0.0440  0.4244  0.6317
 1769TIP3   OH226721   3.434   3.719   2.863  0.0343  0.0584  0.0740
 1769TIP3    H126722   3.489   3.786   2.822  0.5416 -0.3855  0.0401
 1769TIP3    H226723   3.346   3.738   2.830 -0.2058  2.0311  1.6965
 1770TIP3   OH226724   1.534   6.729   3.667 -0.1078 -0.0336  0.1817
 1770TIP3    H126725   1.594   6.792   3.707 -0.6441 -0.0369  1.0076
 1770TIP3    H226726   1.567   6.643   3.694  1.1868 -0.1776 -1.7306
 1771TIP3   OH226727   2.007   5.880   4.121 -0.2457 -0.4347 -0.3832
 1771TIP3    H126728   2.079   5.856   4.180 -0.5787 -0.6101 -0.0452
 1771TIP3    H226729   1.953   5.939   4.173 -0.6756 -0.7875 -0.4308
 1772TIP3   OH226730   4.599   6.406   1.569  0.3909 -0.1866 -1.0954
 1772TIP3    H126731   4.653   6.432   1.495  0.7198  2.4454  0.0289
 1772TIP3    H226732   4.510   6.401   1.534  0.7834 -0.6152 -2.0377
 1773TIP3   OH226733   1.028   4.288   5.016  0.2289  0.3533  0.6207
 1773TIP3    H126734   1.089   4.226   4.976  1.6999  0.7153  2.2461
 1773TIP3    H226735   0.971   4.234   5.071 -0.5542  0.0918 -0.4204
 1774TIP3   OH226736   1.929   0.690   0.735  0.2262  0.7544  0.2448
 1774TIP3    H126737   1.956   0.749   0.805 -1.0248 -0.2220  1.5851
 1774TIP3    H226738   1.852   0.732   0.696 -1.9509 -0.8993  2.5602
 1775TIP3   OH226739   5.892   5.746   4.086 -0.1007  0.0249  0.0245
 1775TIP3    H126740   5.920   5.655   4.088 -2.0096 -0.6316 -1.3870
 1775TIP3    H226741   5.881   5.770   4.178  1.5090 -0.7781  0.4607
 1776TIP3   OH226742   1.347   6.512  14.269 -0.3193 -0.1305  0.0716
 1776TIP3    H126743   1.409   6.530  14.340 -0.8216  1.0877  0.2291
 1776TIP3    H226744   1.284   6.451  14.308  0.4127 -0.8554  0.1173
 1777TIP3   OH226745   2.508   2.787   3.440  0.2852  0.5220 -0.0007
 1777TIP3    H126746   2.508   2.876   3.405  1.0875  1.3680  2.0673
 1777TIP3    H226747   2.599   2.771   3.465  0.2249 -1.0249 -0.7107
 1778TIP3   OH226748   4.224   2.747   1.316  0.6867  0.6691 -0.7851
 1778TIP3    H126749   4.226   2.725   1.222 -1.5192 -1.2566 -0.4395
 1778TIP3    H226750   4.249   2.666   1.360 -1.1417  0.6893  0.3557
 1779TIP3   OH226751   0.977   3.534   1.599  0.2426  0.4155  0.0314
 1779TIP3    H126752   0.949   3.617   1.638 -0.9336  1.0624 -2.0970
 1779TIP3    H226753   0.898   3.479   1.601 -0.4954  1.2293 -3.3410
 1780TIP3   OH226754   1.257   3.793  15.255 -0.3922 -0.1517 -0.2052
 1780TIP3    H126755   1.278   3.858  15.187 -1.8253 -0.4831 -0.9854
 1780TIP3    H226756   1.252   3.844  15.336 -0.5984  0.5798 -0.6734
 1781TIP3   OH226757   6.339   5.853  15.696  0.1993 -0.1144 -0.2024
 1781TIP3    H126758   6.392   5.825  15.621  0.6344 -0.4474  0.2212
 1781TIP3    H226759   6.251   5.820  15.677  0.4208 -0.6505 -0.3251
 1782TIP3   OH226760   5.562   1.785  12.088 -0.0772 -0.0063  0.5862
 1782TIP3    H126761   5.483   1.794  12.141 -0.5662  0.0850 -0.1373
 1782TIP3    H226762   5.631   1.762  12.150 -0.3834  1.3039  1.4304
 1783TIP3   OH226763   0.627   5.941  12.634  0.0708 -0.1285  0.1759
 1783TIP3    H126764   0.665   6.028  12.647  0.2148 -0.1340 -0.2074
 1783TIP3    H226765   0.649   5.893  12.714  2.7979 -0.8387 -0.9342
 1784TIP3   OH226766   2.090   4.105  15.802  0.0195 -0.1137  0.2404
 1784TIP3    H126767   2.165   4.046  15.808 -0.6328 -1.1222 -1.3761
 1784TIP3    H226768   2.014   4.047  15.804 -0.6057  0.5830 -2.3575
 1785TIP3   OH226769   4.435   4.719  16.002 -0.3588 -0.1668 -0.2169
 1785TIP3    H126770   4.407   4.784  15.939  1.2037 -0.0058 -0.7566
 1785TIP3    H226771   4.365   4.652  16.000 -1.2352  0.7500 -0.7196
 1786TIP3   OH226772   2.221   5.484  12.610  0.1710 -0.3665  0.7001
 1786TIP3    H126773   2.180   5.525  12.534  0.0872 -1.2911  0.2433
 1786TIP3    H226774   2.192   5.393  12.608  1.2035 -0.7158  1.1027
 1787TIP3   OH226775   5.805   4.854   4.292 -0.2341  0.4964  0.4994
 1787TIP3    H126776   5.868   4.920   4.321 -0.3918  0.0356  1.9161
 1787TIP3    H226777   5.831   4.834   4.202  0.0238  2.2335  0.1681
 1788TIP3   OH226778   2.233   2.170  14.098  0.4443 -0.4345 -0.1521
 1788TIP3    H126779   2.326   2.165  14.077  0.5871 -0.4376  0.4724
 1788TIP3    H226780   2.192   2.103  14.043  0.7670 -0.2234 -0.6538
 1789TIP3   OH226781   1.421   1.428  10.506 -0.1479 -0.4871  0.7151
 1789TIP3    H126782   1.476   1.362  10.547 -1.3336 -1.6250  0.4792
 1789TIP3    H226783   1.460   1.511  10.533  0.8958 -1.2582  1.6258
 1790TIP3   OH226784   2.262   4.855   6.556 -0.5205 -0.1785  0.6490
 1790TIP3    H126785   2.189   4.912   6.583  0.1981  0.0873  2.1040
 1790TIP3    H226786   2.230   4.766   6.571 -1.5612 -0.1759 -1.4048
 1791TIP3   OH226787   4.358   2.251  13.261 -0.3131  0.0627  0.4338
 1791TIP3    H126788   4.308   2.303  13.199 -0.7834 -1.0025 -0.1053
 1791TIP3    H226789   4.404   2.315  13.315 -1.9442  1.0426  0.6771
 1792TIP3   OH226790   1.860   6.711  14.388 -0.1228 -0.4292 -0.9452
 1792TIP3    H126791   1.931   6.724  14.326 -0.1975  0.2460 -0.8948
 1792TIP3    H226792   1.780   6.732  14.339 -0.3005 -1.2068 -1.0098
 1793TIP3   OH226793   3.805   5.362  13.319  0.3820 -0.7052 -0.2646
 1793TIP3    H126794   3.781   5.323  13.235 -0.1130 -1.6881  0.3280
 1793TIP3    H226795   3.819   5.287  13.377  0.6332 -0.0278  0.5545
 1794TIP3   OH226796   3.966   1.876  10.792 -0.0305 -0.1592  0.0360
 1794TIP3    H126797   4.000   1.920  10.870  1.3016  1.0073 -1.1570
 1794TIP3    H226798   4.027   1.901  10.722 -0.4945 -2.1551 -1.1365
 1795TIP3   OH226799   6.480   1.312   0.644  0.2299  0.5950 -0.1564
 1795TIP3    H126800   6.569   1.281   0.626 -0.0585  1.3151 -3.1604
 1795TIP3    H226801   6.435   1.236   0.680  1.3081 -0.6088 -1.3008
 1796TIP3   OH226802   5.825   2.209   1.842 -0.1851 -0.1650 -0.3103
 1796TIP3    H126803   5.828   2.189   1.749 -2.4385 -0.9035 -0.2512
 1796TIP3    H226804   5.779   2.293   1.847 -0.1744 -0.1866  0.1607
 1797TIP3   OH226805   1.279   2.240   6.016 -0.2633  0.4076  0.0678
 1797TIP3    H126806   1.269   2.229   6.111  1.4010 -0.3722  0.1640
 1797TIP3    H226807   1.232   2.166   5.979  1.3708 -0.8056  0.3797
 1798TIP3   OH226808   6.234   0.255   0.875 -0.2348 -0.1132 -0.0294
 1798TIP3    H126809   6.241   0.341   0.832  0.1210 -0.7167 -1.1830
 1798TIP3    H226810   6.144   0.227   0.857  0.2299 -0.8170 -1.2181
 1799TIP3   OH226811   2.250   0.107  17.014  0.0162  0.5491 -0.4247
 1799TIP3    H126812   2.229   0.014  17.004 -0.4965  0.5953  0.1770
 1799TIP3    H226813   2.327   0.108  17.071  0.5126  0.4577 -1.0941
 1800TIP3   OH226814   2.571   2.875  16.189 -0.3496 -0.0391 -0.0894
 1800TIP3    H126815   2.478   2.859  16.175 -0.6185  0.4231  1.1187
 1800TIP3    H226816   2.603   2.906  16.105 -1.1029 -1.0186 -0.7460
 1801TIP3   OH226817   6.604   3.125   6.567  0.5829 -0.4738 -0.4369
 1801TIP3    H126818   6.699   3.132   6.581  0.4918 -2.5310  1.3743
 1801TIP3    H226819   6.566   3.192   6.624  0.8772 -0.4388 -0.2812
 1802TIP3   OH226820   3.577   5.114  13.418  0.0320 -0.1242  0.2141
 1802TIP3    H126821   3.625   5.097  13.499  0.8837 -0.4377 -0.3531
 1802TIP3    H226822   3.644   5.114  13.350 -0.6146  0.6175 -0.4336
 1803TIP3   OH226823   0.863   6.333  15.654 -0.2421 -0.1056 -0.3961
 1803TIP3    H126824   0.858   6.403  15.588  0.1534  0.6548  0.3635
 1803TIP3    H226825   0.913   6.372  15.726 -0.1894 -1.1152  0.1208
 1804TIP3   OH226826   2.108   0.525  14.337 -1.0283 -0.4185  0.0282
 1804TIP3    H126827   2.089   0.433  14.356  0.2499 -0.8357 -0.6665
 1804TIP3    H226828   2.035   0.553  14.282 -0.0032 -1.8486 -2.1605
 1805TIP3   OH226829   4.877   3.653   2.668 -0.2002 -0.4088 -0.0953
 1805TIP3    H126830   4.913   3.732   2.630  0.3273 -0.3162  0.6043
 1805TIP3    H226831   4.782   3.665   2.664 -0.1071  0.9453  1.4620
 1806TIP3   OH226832   6.537   2.469   6.113  0.2953 -0.0154  0.0696
 1806TIP3    H126833   6.468   2.528   6.144  0.7113  0.1023  0.7903
 1806TIP3    H226834   6.516   2.385   6.154  0.9583  0.1881  0.8375
 1807TIP3   OH226835   4.091   1.153   0.411 -0.3788  0.2038  0.4264
 1807TIP3    H126836   4.016   1.096   0.393  0.9106 -0.8792 -1.6829
 1807TIP3    H226837   4.106   1.144   0.505 -0.4009 -2.7608  0.1970
 1808TIP3   OH226838   6.351   0.814  15.751 -0.6485 -0.4494  0.1730
 1808TIP3    H126839   6.274   0.822  15.696 -0.5973 -1.5390 -0.0712
 1808TIP3    H226840   6.317   0.807  15.840 -0.7421  1.0452  0.2718
 1809TIP3   OH226841   5.471   4.455  16.061  0.3856 -0.5159  0.0520
 1809TIP3    H126842   5.388   4.410  16.079  0.9871 -0.7332  2.3649
 1809TIP3    H226843   5.449   4.548  16.067  0.0404 -0.5402 -0.6828
 1810TIP3   OH226844   0.018   2.570   6.331 -0.1457  0.2099  0.7036
 1810TIP3    H126845   0.091   2.544   6.387 -2.0474 -0.5577  2.9180
 1810TIP3    H226846   0.033   2.662   6.312  2.0335 -0.2556  0.0989
 1811TIP3   OH226847   3.427   2.152  13.976  0.5802  0.0710  0.0657
 1811TIP3    H126848   3.459   2.203  13.901  0.3285 -1.3864 -1.0537
 1811TIP3    H226849   3.476   2.186  14.051  0.4968  1.8686 -0.6784
 1812TIP3   OH226850   3.963   3.138   4.833  0.4604  0.0198 -0.0160
 1812TIP3    H126851   3.885   3.085   4.817 -0.1632  0.7483  0.5673
 1812TIP3    H226852   4.033   3.093   4.786  0.0989 -1.6995  1.0629
 1813TIP3   OH226853   4.236   0.716  16.128  0.5524  0.1132 -0.5372
 1813TIP3    H126854   4.177   0.688  16.057 -0.1295  1.0106 -0.3406
 1813TIP3    H226855   4.296   0.777  16.085  0.1670  0.6225 -0.3695
 1814TIP3   OH226856   4.567   5.867  16.403  0.2275 -0.0514 -0.7595
 1814TIP3    H126857   4.538   5.958  16.408 -0.8049 -0.4776  3.0500
 1814TIP3    H226858   4.660   5.870  16.425 -0.4149 -0.1077  2.2123
 1815TIP3   OH226859   2.736   0.883   1.519  0.3226  0.5677 -0.1089
 1815TIP3    H126860   2.764   0.936   1.594  0.3794  0.0943  0.2095
 1815TIP3    H226861   2.650   0.849   1.545  1.2708 -1.3371  0.6504
 1816TIP3   OH226862   5.565   6.462  14.436 -0.2164 -0.4223 -0.3681
 1816TIP3    H126863   5.486   6.507  14.467  0.1408 -0.5078  0.7130
 1816TIP3    H226864   5.601   6.421  14.515  1.4403  0.4314 -0.6511
 1817TIP3   OH226865   6.665   6.777  13.967 -0.0966 -0.1127 -0.5180
 1817TIP3    H126866   6.641   6.701  14.021  0.4205 -0.4646 -0.7776
 1817TIP3    H226867   6.615   6.766  13.886 -0.5597  0.1994 -0.2792
 1818TIP3   OH226868   3.845   5.191   1.543  0.3415  0.2907 -0.0688
 1818TIP3    H126869   3.769   5.147   1.580 -0.4091  1.0824 -0.6595
 1818TIP3    H226870   3.830   5.192   1.448  1.0024  0.5845 -0.1806
 1819TIP3   OH226871   4.187   5.743   6.629 -1.0164  0.1655 -0.0626
 1819TIP3    H126872   4.093   5.746   6.609 -1.6728 -0.3607  2.6733
 1819TIP3    H226873   4.196   5.800   6.706  0.7325 -0.5718  0.2996
 1820TIP3   OH226874   6.054   0.365   1.990  0.2536 -0.2173 -0.3892
 1820TIP3    H126875   6.072   0.298   1.924  0.2643 -1.4144  0.7986
 1820TIP3    H226876   6.081   0.325   2.073 -1.2462  0.6416  0.5387
 1821TIP3   OH226877   5.312   4.509  14.496 -0.0608  0.5538  0.4189
 1821TIP3    H126878   5.343   4.420  14.478  1.9622  1.2660  0.3553
 1821TIP3    H226879   5.258   4.499  14.575  3.2552 -0.1611  2.6920
 1822TIP3   OH226880   4.222   2.654   2.664  0.4353 -0.5203 -0.3070
 1822TIP3    H126881   4.142   2.677   2.616  0.0265 -0.4557  0.4018
 1822TIP3    H226882   4.197   2.580   2.719 -0.0491  1.5780  2.3926
 1823TIP3   OH226883   4.356   2.055  12.096  0.0921  0.7016  0.1286
 1823TIP3    H126884   4.446   2.066  12.064 -0.7961  0.6509 -2.4951
 1823TIP3    H226885   4.354   1.965  12.128  1.1225  0.8701  0.6982
 1824TIP3   OH226886   0.369   6.418   3.452  0.4581  0.1437  0.2725
 1824TIP3    H126887   0.422   6.390   3.526 -0.3338 -0.8602  0.4633
 1824TIP3    H226888   0.385   6.352   3.384  0.1508  0.3379  0.0079
 1825TIP3   OH226889   1.076   5.279   0.802 -0.0397 -0.2697  0.1470
 1825TIP3    H126890   1.055   5.188   0.781 -0.1971 -0.3038  0.4528
 1825TIP3    H226891   1.132   5.308   0.730 -0.9987 -0.2326 -0.5974
 1826TIP3   OH226892   3.505   6.783   1.378  0.1032  0.5447  0.1777
 1826TIP3    H126893   3.426   6.833   1.400 -0.2665 -0.1714  0.5037
 1826TIP3    H226894   3.480   6.692   1.394  0.4887  0.1836 -1.2244
 1827TIP3   OH226895   6.497   4.341  10.996 -0.4532  0.2414 -0.0226
 1827TIP3    H126896   6.466   4.425  11.029 -0.4988  0.9632 -1.8343
 1827TIP3    H226897   6.591   4.354  10.983  0.0096 -0.8029  2.0450
 1828TIP3   OH226898   1.036   1.981  12.689  0.3795 -0.5713  0.5751
 1828TIP3    H126899   0.956   1.985  12.742 -0.4053 -2.1497 -0.4732
 1828TIP3    H226900   1.100   1.939  12.747 -0.0541 -0.9390  0.7951
 1829TIP3   OH226901   0.090   4.922   1.040  0.1372 -0.5767  0.2408
 1829TIP3    H126902   0.117   4.830   1.037 -1.7364 -1.2030  1.9210
 1829TIP3    H226903   0.041   4.935   0.959 -0.2822 -1.2805  0.3796
 1830TIP3   OH226904   3.186   3.455   5.974 -0.5986  0.4082  0.4664
 1830TIP3    H126905   3.247   3.388   6.007  0.1390  1.4578  1.2411
 1830TIP3    H226906   3.198   3.453   5.879  0.3626  0.3336  0.5836
 1831TIP3   OH226907   1.722   0.056  11.739 -0.0464 -0.3279  0.3184
 1831TIP3    H126908   1.645   0.002  11.722 -1.3441  1.9319 -1.2097
 1831TIP3    H226909   1.781   0.036  11.666 -1.2229  1.4941 -1.1826
 1832TIP3   OH226910   1.451   3.512  16.066 -0.0134  0.7507 -0.2721
 1832TIP3    H126911   1.519   3.569  16.103  0.4626 -0.4184  0.6875
 1832TIP3    H226912   1.416   3.464  16.141  0.3729 -1.0485 -1.2182
 1833TIP3   OH226913   2.682   1.843   3.478 -0.0929 -0.4023  0.4546
 1833TIP3    H126914   2.649   1.771   3.425  0.6821 -0.6489  0.2897
 1833TIP3    H226915   2.615   1.910   3.472 -0.8907 -1.1757  0.7411
 1834TIP3   OH226916   2.533   5.557   3.086  0.1547 -0.0182  0.3000
 1834TIP3    H126917   2.527   5.513   3.001  1.6590  1.0467 -0.3984
 1834TIP3    H226918   2.450   5.603   3.095 -0.5328 -1.1803  0.0082
 1835TIP3   OH226919   5.872   0.818   3.826  0.1718 -1.1292 -0.6042
 1835TIP3    H126920   5.904   0.734   3.792 -0.7850 -0.8042 -2.3802
 1835TIP3    H226921   5.782   0.824   3.794 -0.3118 -0.1634  0.8942
 1836TIP3   OH226922   2.040   3.708   1.644 -0.0894 -0.1554  0.1896
 1836TIP3    H126923   1.951   3.710   1.609  0.3771 -1.4338 -1.1572
 1836TIP3    H226924   2.081   3.788   1.612 -0.0626 -0.6959 -1.1891
 1837TIP3   OH226925   5.945   4.831  12.377 -0.8357  0.3229 -0.3230
 1837TIP3    H126926   5.968   4.884  12.300  2.0805 -1.1425 -0.5296
 1837TIP3    H226927   5.980   4.879  12.451  1.9372 -1.2707 -0.5216
 1838TIP3   OH226928   5.587   2.794  16.980  0.0796 -0.1611 -0.0497
 1838TIP3    H126929   5.570   2.841  17.062 -2.1884  1.6056 -1.4550
 1838TIP3    H226930   5.540   2.711  16.990 -0.1024  0.0062  0.4974
 1839TIP3   OH226931   5.956   0.587   3.703  0.2173  0.3107 -0.5443
 1839TIP3    H126932   5.890   0.524   3.675 -1.5101  1.1299  1.5755
 1839TIP3    H226933   6.015   0.538   3.760 -0.7917  0.4502  0.6387
 1840TIP3   OH226934   2.984   5.229   1.332 -0.3252 -0.3380  0.8768
 1840TIP3    H126935   3.078   5.224   1.318 -0.0058  0.1281  2.7944
 1840TIP3    H226936   2.957   5.309   1.286 -0.0617 -1.2963 -1.0019
 1841TIP3   OH226937   0.632   2.100   2.499 -0.4043  0.6702  0.5560
 1841TIP3    H126938   0.579   2.180   2.501  0.0573  0.9766  0.6485
 1841TIP3    H226939   0.667   2.097   2.410  0.2586  1.0252  0.7960
 1842TIP3   OH226940   0.077   0.136   0.725  0.2973 -0.2721 -0.1242
 1842TIP3    H126941   0.054   0.129   0.818 -0.2464  1.5677 -0.0794
 1842TIP3    H226942  -0.007   0.153   0.681  0.9342  2.2033 -0.5035
 1843TIP3   OH226943   2.003   3.566   3.923  0.6301 -0.3244 -0.0106
 1843TIP3    H126944   2.083   3.516   3.906  0.4215 -0.4889 -0.5174
 1843TIP3    H226945   2.021   3.614   4.004  1.6189  0.4302 -0.6694
 1844TIP3   OH226946   2.865   3.519  15.696  0.1755  0.5860 -0.0393
 1844TIP3    H126947   2.936   3.461  15.668 -1.4307 -1.2122 -0.5259
 1844TIP3    H226948   2.801   3.460  15.737 -0.8454  2.2150  0.7270
 1845TIP3   OH226949   3.690   0.807  15.494  0.2188  0.3342 -0.0841
 1845TIP3    H126950   3.599   0.816  15.464 -0.3420  0.0173  1.4572
 1845TIP3    H226951   3.727   0.739  15.439 -0.9099 -0.5285  0.1961
 1846TIP3   OH226952   0.082   5.457  12.541 -0.5674  0.6582  0.0685
 1846TIP3    H126953   0.156   5.421  12.591 -0.8591 -0.9007 -0.5771
 1846TIP3    H226954   0.006   5.407  12.570 -0.6207 -0.8412 -2.4202
 1847TIP3   OH226955   5.278   2.593  15.390 -0.0443 -0.3002 -0.1457
 1847TIP3    H126956   5.322   2.602  15.306 -0.8327 -1.0358 -0.6398
 1847TIP3    H226957   5.252   2.501  15.394 -1.5019  0.1163  0.1516
 1848TIP3   OH226958   1.991   3.981   5.285 -0.3863  0.7544 -0.3197
 1848TIP3    H126959   2.077   4.014   5.257  0.0326  1.2231  1.4091
 1848TIP3    H226960   2.009   3.935   5.368 -1.4596 -1.1523 -1.1145
 1849TIP3   OH226961   5.885   3.332   5.728 -0.0466 -0.2875  0.4594
 1849TIP3    H126962   5.955   3.398   5.727 -0.1946 -0.1432 -1.6960
 1849TIP3    H226963   5.931   3.248   5.719 -0.0866 -0.2629  0.0360
 1850TIP3   OH226964   5.882   4.189  11.972  0.5519  0.2299  0.5690
 1850TIP3    H126965   5.852   4.178  12.063  0.3325 -1.2615  0.3290
 1850TIP3    H226966   5.943   4.116  11.959  1.1482  0.8753 -0.2561
 1851TIP3   OH226967   2.462   6.661   2.700  0.1238  0.0010 -0.2705
 1851TIP3    H126968   2.538   6.717   2.684  0.1713  0.1638  0.4774
 1851TIP3    H226969   2.393   6.696   2.645  0.7361 -0.4598 -1.3407
 1852TIP3   OH226970   4.137   0.124   5.848 -0.1074 -0.2547 -0.1145
 1852TIP3    H126971   4.151   0.118   5.943 -0.1142 -4.0323 -0.2460
 1852TIP3    H226972   4.042   0.125   5.838 -0.1031  0.6769 -0.0683
 1853TIP3   OH226973   2.598   4.200   0.113  0.3325 -0.1869  0.3440
 1853TIP3    H126974   2.507   4.184   0.139 -0.0366 -0.0438 -0.8452
 1853TIP3    H226975   2.637   4.113   0.110  0.2510 -0.2454  0.9105
 1854TIP3   OH226976   1.874   3.492   3.228 -0.2169 -0.2615  0.4656
 1854TIP3    H126977   1.830   3.414   3.195  0.1544 -0.6950  0.9913
 1854TIP3    H226978   1.862   3.558   3.159 -0.2491 -0.8801 -0.1189
 1855TIP3   OH226979   0.624   5.596  12.858 -0.0131 -0.0714 -0.5314
 1855TIP3    H126980   0.676   5.557  12.928  0.2997  1.6840  0.2408
 1855TIP3    H226981   0.659   5.558  12.778  0.0331 -1.6364  0.2100
 1856TIP3   OH226982   5.305   0.982   5.174  0.1698 -0.4016 -0.1106
 1856TIP3    H126983   5.217   0.961   5.143  0.2249 -0.2120 -0.4048
 1856TIP3    H226984   5.338   1.044   5.109  0.3823 -0.1906  0.2017
 1857TIP3   OH226985   6.061   5.314   5.841 -0.3002 -0.7035 -0.4503
 1857TIP3    H126986   6.088   5.229   5.875 -2.6169 -1.4167 -0.2827
 1857TIP3    H226987   5.979   5.296   5.795 -0.5214  1.3408 -0.8817
 1858TIP3   OH226988   2.602   3.920   5.669  0.2046  0.3437  0.2611
 1858TIP3    H126989   2.605   4.015   5.656 -0.1919  0.1249 -1.6247
 1858TIP3    H226990   2.514   3.895   5.641  0.0691 -0.4901  1.4237
 1859TIP3   OH226991   2.320   2.364  13.036  0.0912 -0.1450 -0.0984
 1859TIP3    H126992   2.237   2.413  13.039  1.0013  1.4540 -0.5550
 1859TIP3    H226993   2.375   2.407  13.101  0.6630 -1.0562  0.0293
 1860TIP3   OH226994   3.721   2.850   4.486  0.0958 -0.4671  0.1888
 1860TIP3    H126995   3.727   2.878   4.394 -0.1805 -0.3120  0.2177
 1860TIP3    H226996   3.711   2.755   4.481 -1.0675 -0.3457  0.0131
 1861TIP3   OH226997   5.156   4.448  15.531 -0.3813 -0.3079  0.3554
 1861TIP3    H126998   5.123   4.521  15.478 -0.0750 -1.5679 -1.6112
 1861TIP3    H226999   5.250   4.449  15.516 -0.3084 -0.7412  0.7872
 1862TIP3   OH227000   0.479   1.542  13.487 -0.2666 -0.0751  0.3572
 1862TIP3    H127001   0.452   1.611  13.425 -1.0774 -1.8579 -1.3224
 1862TIP3    H227002   0.483   1.587  13.572  0.7504  2.3958 -0.9429
 1863TIP3   OH227003   2.328   4.187   2.491  0.5274 -0.5476 -0.2561
 1863TIP3    H127004   2.419   4.205   2.513  0.1404 -0.3043  1.2181
 1863TIP3    H227005   2.332   4.126   2.418  1.8763  1.1928 -1.6722
 1864TIP3   OH227006   3.291   4.307   3.604 -0.4341  0.2101  0.4775
 1864TIP3    H127007   3.373   4.298   3.555 -0.4705 -0.2308  0.4998
 1864TIP3    H227008   3.311   4.371   3.673 -0.6064  1.4641 -0.5983
 1865TIP3   OH227009   6.017   6.028  15.316 -0.1372  0.3905  0.1237
 1865TIP3    H127010   6.105   6.027  15.276 -0.4544 -0.2575 -0.5792
 1865TIP3    H227011   6.033   6.043  15.409  0.7253  0.2296  0.0078
 1866TIP3   OH227012   6.077   1.870   5.074 -0.8154 -0.1848 -0.4320
 1866TIP3    H127013   6.023   1.930   5.126  0.4421  0.1489  0.5158
 1866TIP3    H227014   6.158   1.861   5.125 -0.1455 -1.0025 -1.6287
 1867TIP3   OH227015   1.546   3.992   5.060 -0.0545 -0.0978 -0.4441
 1867TIP3    H127016   1.511   4.026   5.142 -0.5023  0.1830 -0.7499
 1867TIP3    H227017   1.641   3.999   5.069 -0.1315  0.7828 -0.3162
 1868TIP3   OH227018   3.748   5.232  13.861  0.4865 -0.1607  0.2309
 1868TIP3    H127019   3.787   5.159  13.813  2.1986  0.3024  0.8923
 1868TIP3    H227020   3.740   5.200  13.950 -1.2140 -0.4507 -0.0041
 1869TIP3   OH227021   6.207   4.835  15.012  0.1889  0.3426  0.5374
 1869TIP3    H127022   6.265   4.885  14.955 -0.1498  0.9696  0.7342
 1869TIP3    H227023   6.208   4.884  15.095  0.1248 -0.1689  0.8420
 1870TIP3   OH227024   1.505   1.405  15.710  0.0339 -0.5118 -0.3308
 1870TIP3    H127025   1.572   1.352  15.752 -0.6362 -0.1106  1.2994
 1870TIP3    H227026   1.422   1.370  15.742 -0.4772  0.1776 -0.8676
 1871TIP3   OH227027   6.525   1.709   4.234  0.0899 -0.2279 -0.4209
 1871TIP3    H127028   6.481   1.787   4.269  0.9983  0.0833  0.0495
 1871TIP3    H227029   6.615   1.717   4.266  0.4379 -0.9504 -1.2238
 1872TIP3   OH227030   6.119   4.305   2.030 -0.2410 -0.0653  0.0848
 1872TIP3    H127031   6.192   4.276   2.086 -1.3573 -2.2803  0.4823
 1872TIP3    H227032   6.138   4.266   1.945 -0.8285 -0.4796  0.1386
 1873TIP3   OH227033   3.356   5.560  16.033  0.3029 -0.1596 -0.5552
 1873TIP3    H127034   3.288   5.509  16.076 -0.5879  0.6141 -1.0440
 1873TIP3    H227035   3.372   5.513  15.951  1.1912 -0.9883  0.0791
 1874TIP3   OH227036   3.509   4.181  12.789 -0.0733 -0.9427 -0.1528
 1874TIP3    H127037   3.480   4.234  12.715 -1.4371 -1.9200 -0.3491
 1874TIP3    H227038   3.490   4.091  12.762  2.9160 -1.6118 -0.1542
 1875TIP3   OH227039   5.856   2.216   3.085 -0.1250 -0.2013 -0.1026
 1875TIP3    H127040   5.796   2.290   3.076 -0.9142 -0.8760 -0.5210
 1875TIP3    H227041   5.807   2.152   3.136  0.7453 -0.2419  0.6951
 1876TIP3   OH227042   3.162   2.519  13.929  0.2188 -0.1723  0.0653
 1876TIP3    H127043   3.138   2.439  13.975  0.0022 -0.8541 -1.1997
 1876TIP3    H227044   3.079   2.561  13.909  0.2884 -0.0949 -0.0664
 1877TIP3   OH227045   0.885   2.312  14.973 -0.2968  0.0540 -0.2828
 1877TIP3    H127046   0.791   2.305  14.956 -0.1078 -1.4311 -0.7917
 1877TIP3    H227047   0.894   2.387  15.032 -1.6429  1.2113 -1.5129
 1878TIP3   OH227048   3.610   1.930  13.935  0.4966 -0.1318 -0.2554
 1878TIP3    H127049   3.610   1.904  14.027 -0.5111 -0.3580 -0.3224
 1878TIP3    H227050   3.571   2.017  13.934  0.1785 -0.2750 -0.5091
 1879TIP3   OH227051   6.424   3.120   5.839  0.1762  0.6562  0.4884
 1879TIP3    H127052   6.404   3.040   5.791 -1.0784  0.2632  1.6071
 1879TIP3    H227053   6.365   3.117   5.914  1.8651  1.4054  1.8789
 1880TIP3   OH227054   2.304   1.705  11.478 -0.8264  0.1068  0.4290
 1880TIP3    H127055   2.213   1.727  11.460 -0.5978  0.6283 -0.0978
 1880TIP3    H227056   2.343   1.786  11.510  0.1020  0.5980 -1.8411
 1881TIP3   OH227057   4.813   0.804   0.705 -0.3678 -0.1753 -0.3000
 1881TIP3    H127058   4.730   0.792   0.658 -0.1532 -0.8304 -0.5187
 1881TIP3    H227059   4.811   0.895   0.733 -2.1867 -0.7925  1.6962
 1882TIP3   OH227060   1.958   2.572   0.776 -0.3024  0.4523 -0.9197
 1882TIP3    H127061   2.026   2.586   0.843 -0.1422 -1.2039 -0.7023
 1882TIP3    H227062   1.942   2.658   0.740  1.4807  0.9828 -0.5235
 1883TIP3   OH227063   1.615   5.129  14.557  0.2985  0.1019 -0.1420
 1883TIP3    H127064   1.544   5.118  14.494 -1.6591 -0.7842  2.1020
 1883TIP3    H227065   1.624   5.224  14.568  1.3348  0.2874 -2.4328
 1884TIP3   OH227066   3.039   5.477  12.397  0.4640 -0.8456 -0.0804
 1884TIP3    H127067   2.949   5.454  12.374  0.1782  0.6603 -0.5434
 1884TIP3    H227068   3.032   5.517  12.484  0.5635  0.0571 -0.4839
 1885TIP3   OH227069   4.668   4.193   0.935 -0.1189 -0.2702 -0.1281
 1885TIP3    H127070   4.651   4.284   0.959  1.2791  0.1617 -0.7488
 1885TIP3    H227071   4.672   4.146   1.019 -2.0016  0.0125  0.1444
 1886TIP3   OH227072   4.965   4.433  11.845 -0.8370  0.6134  0.1589
 1886TIP3    H127073   4.958   4.435  11.750 -0.0674  1.1098  0.1104
 1886TIP3    H227074   5.059   4.436  11.863 -0.9508 -0.0336  0.9215
 1887TIP3   OH227075   1.429   6.252  13.786  0.3069 -0.1139 -0.1081
 1887TIP3    H127076   1.524   6.256  13.774  0.1665 -1.2773 -1.8053
 1887TIP3    H227077   1.415   6.168  13.830 -0.0260 -0.4412 -0.8397
 1888TIP3   OH227078   0.615   0.550   5.778  0.2235  0.6704 -0.3667
 1888TIP3    H127079   0.529   0.567   5.816 -0.3991 -2.0477 -0.4770
 1888TIP3    H227080   0.676   0.580   5.845 -0.8260  0.7009  0.5978
 1889TIP3   OH227081   0.864   1.870  12.198  0.1084  0.0546  0.8108
 1889TIP3    H127082   0.878   1.848  12.290 -0.1839  0.1361  0.8762
 1889TIP3    H227083   0.834   1.788  12.158  0.6566 -0.0906  0.6943
 1890TIP3   OH227084   5.700   5.043  10.560  0.0179  0.8563  0.0025
 1890TIP3    H127085   5.689   5.128  10.517 -0.3213 -0.4905 -2.7013
 1890TIP3    H227086   5.772   5.001  10.512 -0.3348 -0.6934  0.7859
 1891TIP3   OH227087   4.074   1.823   0.645  0.0002  0.1135 -0.1051
 1891TIP3    H127088   4.122   1.853   0.723  1.4179  0.7553 -1.1839
 1891TIP3    H227089   4.078   1.728   0.649  1.4049  0.1504 -0.1539
 1892TIP3   OH227090   6.382   2.638  16.992  0.0901  0.2075 -0.4832
 1892TIP3    H127091   6.471   2.660  16.964 -0.0910 -1.5007 -2.5150
 1892TIP3    H227092   6.334   2.721  16.985  1.4367  1.0828  0.3625
 1893TIP3   OH227093   0.341   3.577   5.700  0.6086 -0.0926  0.5399
 1893TIP3    H127094   0.291   3.527   5.634 -2.3972  0.8685  1.9801
 1893TIP3    H227095   0.432   3.558   5.680 -0.2896 -1.5430 -2.5665
 1894TIP3   OH227096   2.721   2.777   0.208 -0.2150  0.1299  0.4473
 1894TIP3    H127097   2.673   2.754   0.287  0.0234  0.3988  0.6683
 1894TIP3    H227098   2.813   2.771   0.232 -0.1501  1.8057  0.6518
 1895TIP3   OH227099   3.309   4.528   1.608 -0.2259 -0.2460  0.5103
 1895TIP3    H127100   3.375   4.562   1.668 -0.6466  2.3209 -0.3966
 1895TIP3    H227101   3.267   4.606   1.573 -0.6166 -1.7107 -2.4166
 1896TIP3   OH227102   5.774   3.932  16.158 -0.3474  0.0497 -0.2186
 1896TIP3    H127103   5.757   3.995  16.228  0.5611  3.1712 -2.6365
 1896TIP3    H227104   5.697   3.937  16.101 -1.0087 -2.3282  0.4190
 1897TIP3   OH227105   2.757   0.536   1.363  0.1375  0.6580  0.9174
 1897TIP3    H127106   2.835   0.591   1.356 -0.9626  1.8569 -2.9566
 1897TIP3    H227107   2.684   0.596   1.346 -1.4313 -1.0909  1.3700
 1898TIP3   OH227108   0.081   2.234  11.732 -0.5011  0.3583 -0.0791
 1898TIP3    H127109   0.035   2.305  11.687  0.0837  0.8146  0.0437
 1898TIP3    H227110   0.019   2.204  11.799 -0.1204  1.8320  0.9414
 1899TIP3   OH227111   3.937   2.194   5.623 -0.1145 -0.4567 -0.7688
 1899TIP3    H127112   3.853   2.179   5.666 -0.2859 -0.7213 -1.1960
 1899TIP3    H227113   3.920   2.265   5.561  0.5276  1.0724  0.7566
 1900TIP3   OH227114   3.463   3.368  12.732 -0.7131 -0.5188  0.4877
 1900TIP3    H127115   3.543   3.403  12.773 -1.9112  2.2193  0.6191
 1900TIP3    H227116   3.442   3.291  12.784  1.4376 -0.8635  0.9156
 1901TIP3   OH227117   2.026   4.857  17.154 -0.3710 -0.2907 -0.2636
 1901TIP3    H127118   1.950   4.833  17.208 -0.2787 -0.7035 -0.3132
 1901TIP3    H227119   2.007   4.946  17.124 -0.0515  0.2563  1.1234
 1902TIP3   OH227120   6.128   5.037   1.587 -0.5390  0.0142 -0.4771
 1902TIP3    H127121   6.135   5.061   1.679 -3.1491  1.9698 -0.7000
 1902TIP3    H227122   6.203   5.080   1.545  0.0644  0.0039  0.5859
 1903TIP3   OH227123   3.441   2.190   1.264 -0.0426  0.1055 -0.6747
 1903TIP3    H127124   3.512   2.180   1.200  1.0975  0.4216  0.5220
 1903TIP3    H227125   3.402   2.275   1.243  0.6877  0.4627 -0.6081
 1904TIP3   OH227126   4.295   3.365   5.906  0.0204  0.4825  0.2024
 1904TIP3    H127127   4.226   3.321   5.856 -1.0122  1.0055  1.1505
 1904TIP3    H227128   4.376   3.340   5.861 -0.9190  1.4935 -2.1549
 1905TIP3   OH227129   1.764   5.821   0.175 -0.7945 -0.2097  0.1338
 1905TIP3    H127130   1.794   5.732   0.156  0.1196  0.1990 -0.3729
 1905TIP3    H227131   1.669   5.814   0.179 -0.6962 -1.3659  0.8906
 1906TIP3   OH227132   2.418   3.915   3.420  0.2613  0.2184 -0.5215
 1906TIP3    H127133   2.425   3.820   3.405  0.8056  0.5521 -2.4814
 1906TIP3    H227134   2.505   3.949   3.399  0.2906  1.0797  0.9207
 1907TIP3   OH227135   4.965   0.559   0.732 -0.1461  0.4659  0.6643
 1907TIP3    H127136   5.023   0.609   0.789 -0.7614  1.0545  0.7817
 1907TIP3    H227137   4.888   0.615   0.721 -0.3069  0.0784 -0.2149
 1908TIP3   OH227138   1.911   4.100  14.739 -0.0073  0.2664 -0.4069
 1908TIP3    H127139   1.894   4.038  14.669 -1.1713  1.3617 -1.1205
 1908TIP3    H227140   1.908   4.186  14.697  2.7843  0.7633  0.3511
 1909TIP3   OH227141   5.150   1.681  16.834 -0.4024 -0.1700  0.8270
 1909TIP3    H127142   5.071   1.684  16.887 -0.5489 -0.0864  0.6088
 1909TIP3    H227143   5.192   1.766  16.849 -1.0350  0.3061 -0.0792
 1910TIP3   OH227144   2.831   5.511  11.089  0.0342  0.3173 -0.1008
 1910TIP3    H127145   2.868   5.540  11.006 -0.3351  0.0257 -0.3665
 1910TIP3    H227146   2.753   5.461  11.065  1.6444 -2.4621  0.2513
 1911TIP3   OH227147   0.090   5.499   2.101  0.4999  0.5229 -0.2952
 1911TIP3    H127148   0.083   5.529   2.191 -0.2418 -0.6844  0.0565
 1911TIP3    H227149   0.083   5.579   2.049  2.2345  1.3806  0.7453
 1912TIP3   OH227150   6.504   2.134   3.846 -0.1995 -1.0671 -0.0008
 1912TIP3    H127151   6.459   2.077   3.784  1.5208  1.4411 -3.7331
 1912TIP3    H227152   6.595   2.106   3.843  0.0273 -0.4242  0.8193
 1913TIP3   OH227153   3.508   0.437  11.786 -0.2722  0.0973  0.0432
 1913TIP3    H127154   3.495   0.494  11.862  2.5452  1.8720 -0.7182
 1913TIP3    H227155   3.428   0.445  11.736 -1.0215  1.1903  1.3764
 1914TIP3   OH227156   2.051   6.179   5.226 -0.1533  0.0222 -0.2904
 1914TIP3    H127157   2.063   6.176   5.321 -0.2495  1.0075 -0.2389
 1914TIP3    H227158   2.138   6.163   5.190 -0.2610 -1.1332 -0.0516
 1915TIP3   OH227159   4.604   1.873  11.203 -0.0316  0.2830  0.5038
 1915TIP3    H127160   4.540   1.944  11.207  1.3405  1.6189 -0.6632
 1915TIP3    H227161   4.604   1.845  11.112  1.7178  0.9713  0.2625
 1916TIP3   OH227162   1.723   0.778  15.577  0.6515  0.5097  0.1518
 1916TIP3    H127163   1.765   0.820  15.503  0.4125 -0.3714 -0.4928
 1916TIP3    H227164   1.773   0.697  15.591  0.3947  0.4312  0.6305
 1917TIP3   OH227165   4.539   2.192   3.513  0.5046 -0.1961  0.0855
 1917TIP3    H127166   4.452   2.193   3.553 -0.1550 -0.3466 -1.3017
 1917TIP3    H227167   4.555   2.099   3.493  0.8367 -0.1318  0.0486
 1918TIP3   OH227168   0.505   5.910  15.919 -0.1806  0.6930 -0.4332
 1918TIP3    H127169   0.599   5.895  15.905  0.1994  0.7660  1.8929
 1918TIP3    H227170   0.466   5.823  15.912  0.3441  0.3686  0.4920
 1919TIP3   OH227171   3.650   1.355  10.273 -0.4358  0.1309 -0.4951
 1919TIP3    H127172   3.636   1.387  10.363  0.6104  2.3267 -1.0858
 1919TIP3    H227173   3.562   1.341  10.239 -0.8442 -0.5864  0.8362
 1920TIP3   OH227174   3.713   4.299  13.572  0.2505  0.2346  0.6532
 1920TIP3    H127175   3.757   4.266  13.650  0.9139 -0.9046 -0.1779
 1920TIP3    H227176   3.649   4.231  13.551  1.0978 -0.1910 -0.6364
 1921TIP3   OH227177   4.113   6.703  11.463 -0.2242 -0.0745  0.1171
 1921TIP3    H127178   4.110   6.791  11.500 -0.4620 -0.6905  1.6157
 1921TIP3    H227179   4.183   6.706  11.399  0.1944  1.0452  0.6202
 1922TIP3   OH227180   3.815   1.483   1.124  0.0024 -0.4420 -0.1314
 1922TIP3    H127181   3.878   1.537   1.171  2.7605 -2.0272 -1.8866
 1922TIP3    H227182   3.781   1.541   1.055 -0.7639  0.5098  1.0168
 1923TIP3   OH227183   5.682   4.603   0.669 -0.4043 -0.1336 -0.0585
 1923TIP3    H127184   5.645   4.608   0.757 -1.5356 -0.8102 -0.4797
 1923TIP3    H227185   5.760   4.658   0.672 -0.9452  0.5828  1.1116
 1924TIP3   OH227186   2.421   0.295   5.712  0.6057 -0.2059 -0.7595
 1924TIP3    H127187   2.488   0.284   5.644  2.3762  0.0244  0.8977
 1924TIP3    H227188   2.452   0.369   5.764 -1.6279  0.7361 -0.7275
 1925TIP3   OH227189   1.620   6.150  14.612 -0.0291 -0.3303 -0.2149
 1925TIP3    H127190   1.703   6.189  14.586 -0.6722  1.3844  0.2267
 1925TIP3    H227191   1.633   6.056  14.602  1.6032 -0.0129 -1.1854
 1926TIP3   OH227192   0.375   6.686  16.960  0.2903  0.2312  0.5907
 1926TIP3    H127193   0.359   6.765  16.908  2.8039 -0.0593 -0.7182
 1926TIP3    H227194   0.298   6.631  16.945 -1.4455  2.3589  1.4291
 1927TIP3   OH227195   0.671   1.219  11.187 -0.5256  0.0046 -0.1870
 1927TIP3    H127196   0.759   1.183  11.173 -0.1534  0.8096  0.0775
 1927TIP3    H227197   0.614   1.142  11.186  0.2609 -0.5957  0.3589
 1928TIP3   OH227198   4.283   1.773   5.812 -0.1875 -0.1592 -0.4187
 1928TIP3    H127199   4.277   1.680   5.789 -2.9313 -0.5280  1.5698
 1928TIP3    H227200   4.243   1.779   5.898  1.4979  2.6417  0.2276
 1929TIP3   OH227201   3.022   1.278   5.939 -0.2300  0.6206 -0.6689
 1929TIP3    H127202   3.046   1.338   6.009 -1.6675 -0.0778  0.4507
 1929TIP3    H227203   3.035   1.191   5.976 -2.5017  0.2293 -0.6713
 1930TIP3   OH227204   5.493   2.993  10.971  0.1606 -0.0774  0.4100
 1930TIP3    H127205   5.413   3.044  10.964  1.1022  1.2633 -0.7584
 1930TIP3    H227206   5.564   3.056  10.960  1.3663 -1.4302  0.1106
 1931TIP3   OH227207   3.648   0.908   1.264 -0.2180  0.1287 -0.5113
 1931TIP3    H127208   3.576   0.971   1.270  0.2841  0.7044 -0.4622
 1931TIP3    H227209   3.710   0.949   1.204  0.7870  0.3501  0.6685
 1932TIP3   OH227210   2.732   0.168   0.450 -0.7355  0.1992 -0.3864
 1932TIP3    H127211   2.808   0.137   0.499  0.1653  0.2153 -1.7568
 1932TIP3    H227212   2.683   0.089   0.428  1.2312 -0.2820 -3.3319
 1933TIP3   OH227213   1.225   3.790   1.946  0.2546  0.0230 -0.2875
 1933TIP3    H127214   1.289   3.793   1.875  0.5222 -1.0502 -0.0917
 1933TIP3    H227215   1.230   3.701   1.980 -1.1938 -0.0100 -0.1295
 1934TIP3   OH227216   6.022   2.810   0.033 -0.3393 -0.0611  0.6664
 1934TIP3    H127217   6.054   2.721   0.019  0.9556  0.6916 -1.4962
 1934TIP3    H227218   6.090   2.866  -0.005 -1.2406  1.8506  1.7698
 1935TIP3   OH227219   3.867   3.203  12.758 -0.3655  0.3152 -0.1180
 1935TIP3    H127220   3.840   3.148  12.684 -0.5541 -1.7456  1.4708
 1935TIP3    H227221   3.962   3.210  12.749 -0.3364 -0.3067 -0.2984
 1936TIP3   OH227222   6.721   0.761   6.204  0.9726  0.1852 -0.1005
 1936TIP3    H127223   6.635   0.729   6.229  0.0879  0.5870 -2.5153
 1936TIP3    H227224   6.727   0.848   6.243  0.6535 -0.2030  0.8190
 1937TIP3   OH227225   4.378   0.121  12.717 -0.1447 -0.7951 -0.2201
 1937TIP3    H127226   4.306   0.147  12.774 -0.3784 -1.3312 -0.2688
 1937TIP3    H227227   4.452   0.106  12.776 -0.5279 -1.8472 -0.0094
 1938TIP3   OH227228   0.587   0.660   4.706  0.4899  0.1170 -0.6865
 1938TIP3    H127229   0.610   0.604   4.781 -2.1975 -1.3223 -0.8795
 1938TIP3    H227230   0.644   0.736   4.714  1.3893 -0.7852  1.8944
 1939TIP3   OH227231   5.779   5.630   0.420 -0.0975  0.2964  0.4163
 1939TIP3    H127232   5.823   5.696   0.365 -3.4395  1.5508 -0.8857
 1939TIP3    H227233   5.772   5.553   0.365  2.4150 -0.6833  1.4060
 1940TIP3   OH227234   4.119   6.267  12.728  1.0094 -0.6611 -0.0071
 1940TIP3    H127235   4.191   6.229  12.678  0.2560 -2.3377  0.1438
 1940TIP3    H227236   4.132   6.236  12.817  1.6958  1.3737  0.6272
 1941TIP3   OH227237   6.441   2.912   0.989  0.2710 -0.4872 -0.4545
 1941TIP3    H127238   6.515   2.941   1.042 -0.0385  0.4593 -0.5444
 1941TIP3    H227239   6.375   2.980   1.000 -0.6986 -1.4663 -0.1484
 1942TIP3   OH227240   4.336   6.584  17.066 -0.1678  0.0167 -0.2071
 1942TIP3    H127241   4.357   6.504  17.114 -0.6576  0.8404  1.4534
 1942TIP3    H227242   4.263   6.560  17.010  2.3598 -1.7663 -2.8656
 1943TIP3   OH227243   3.985   0.993  13.885  0.0587 -0.2159 -0.4191
 1943TIP3    H127244   3.898   1.031  13.898 -0.1717 -0.9363  0.1974
 1943TIP3    H227245   4.045   1.068  13.892 -0.4612  0.1852 -0.1757
 1944TIP3   OH227246   5.067   1.234   3.129  0.0948  0.2026  0.4120
 1944TIP3    H127247   4.988   1.186   3.150 -0.8755  1.2398 -0.8057
 1944TIP3    H227248   5.120   1.174   3.077 -0.0194 -0.3675  0.9469
 1945TIP3   OH227249   5.925   5.262   1.767  0.0502  0.1863 -0.1584
 1945TIP3    H127250   5.854   5.209   1.804  0.2387  0.4473  0.5994
 1945TIP3    H227251   5.890   5.296   1.685 -1.4079  1.8547  1.0981
 1946TIP3   OH227252   3.480   4.310   6.473  0.3978 -0.0023 -0.0913
 1946TIP3    H127253   3.443   4.379   6.529  1.6530 -0.2938  1.1113
 1946TIP3    H227254   3.403   4.263   6.440 -0.5987  3.2490 -2.6254
 1947TIP3   OH227255   0.313   6.325   1.601  0.0704  0.2313  0.3779
 1947TIP3    H127256   0.272   6.239   1.606 -2.9690  1.3016 -3.6334
 1947TIP3    H227257   0.372   6.319   1.526  1.7432  0.9662  1.5935
 1948TIP3   OH227258   6.521   5.492  13.196  0.1747  0.1128  0.0570
 1948TIP3    H127259   6.520   5.571  13.141  0.3185 -0.3288 -0.5795
 1948TIP3    H227260   6.461   5.432  13.153  1.4802 -0.8266 -0.5030
 1949TIP3   OH227261   6.453   0.385  11.099 -0.1891  0.6902 -0.1247
 1949TIP3    H127262   6.403   0.304  11.088 -0.3838  0.9538 -1.2330
 1949TIP3    H227263   6.516   0.365  11.168  0.2083 -0.6112 -0.8653
 1950TIP3   OH227264   0.953   3.868  16.327 -0.4438 -0.2140  0.5321
 1950TIP3    H127265   0.927   3.902  16.412 -0.9040  0.1227  0.2528
 1950TIP3    H227266   0.876   3.822  16.294 -0.7730  0.9706 -0.3887
 1951TIP3   OH227267   4.786   2.892  12.845 -0.3135 -0.5878  0.4853
 1951TIP3    H127268   4.715   2.828  12.836 -0.8974  0.2243 -0.7031
 1951TIP3    H227269   4.768   2.958  12.778  0.3827  0.7404  1.5796
 1952TIP3   OH227270   6.713   4.885   3.850  0.2866  0.4125 -0.2296
 1952TIP3    H127271   6.804   4.912   3.865 -0.4459  1.3037  3.1305
 1952TIP3    H227272   6.680   4.863   3.937 -2.9169  0.7086 -1.2946
 1953TIP3   OH227273   6.065   5.377  11.829  0.3610  0.6610  0.1190
 1953TIP3    H127274   6.019   5.434  11.767  0.3333  0.8802  0.3427
 1953TIP3    H227275   6.120   5.436  11.880 -2.1296  0.9669  2.6123
 1954TIP3   OH227276   6.284   5.818  15.073 -0.1933 -0.9929  0.6577
 1954TIP3    H127277   6.279   5.874  15.150 -0.3842  1.4775 -1.1009
 1954TIP3    H227278   6.192   5.802  15.050 -0.1428 -0.4806  0.0825
 1955TIP3   OH227279   4.741   3.572  11.351  0.7381 -0.0015  0.3950
 1955TIP3    H127280   4.782   3.501  11.302 -0.1312  0.3434 -0.8668
 1955TIP3    H227281   4.649   3.545  11.360  0.1632  1.3870 -0.9826
 1956TIP3   OH227282   1.143   2.858  15.881  0.0922 -0.3676  0.0964
 1956TIP3    H127283   1.097   2.805  15.815 -1.9545  1.1786  0.2622
 1956TIP3    H227284   1.113   2.823  15.965  0.0383 -0.0519  0.2083
 1957TIP3   OH227285   5.454   5.750  16.109  0.3961  0.1236  0.4418
 1957TIP3    H127286   5.407   5.710  16.182  0.9669 -1.0905  0.1443
 1957TIP3    H227287   5.430   5.698  16.033 -2.1841  2.8963 -0.7371
 1958TIP3   OH227288   1.265   1.632   1.956 -0.1548  0.1878 -0.4084
 1958TIP3    H127289   1.321   1.653   2.031  1.2292  1.6609 -1.8155
 1958TIP3    H227290   1.231   1.717   1.928 -0.6718 -0.3599 -1.4313
 1959TIP3   OH227291   1.204   6.172  14.231 -0.5426 -0.1255  0.0070
 1959TIP3    H127292   1.212   6.228  14.155  0.9460  0.5126  0.6019
 1959TIP3    H227293   1.197   6.233  14.305 -1.2498 -0.7296  0.4409
 1960TIP3   OH227294   1.300   5.104   5.630  0.2195  0.2812 -0.2380
 1960TIP3    H127295   1.317   5.175   5.693 -1.4951  1.3907 -0.9950
 1960TIP3    H227296   1.344   5.028   5.668 -0.6052  0.9682  2.2434
 1961TIP3   OH227297   3.962   4.822  15.853 -0.3359 -0.6090 -0.4421
 1961TIP3    H127298   4.003   4.879  15.918  0.6794 -1.4400 -0.3546
 1961TIP3    H227299   3.901   4.880  15.807 -0.8604  0.0566  1.0362
 1962TIP3   OH227300   6.254   2.518   0.977  0.3969  0.0031  0.1188
 1962TIP3    H127301   6.161   2.496   0.984  0.0979  1.2631  0.3575
 1962TIP3    H227302   6.267   2.540   0.885 -0.3962  3.3360  0.7428
 1963TIP3   OH227303   2.448   5.374   2.291  0.6427  0.5300 -0.1119
 1963TIP3    H127304   2.536   5.379   2.329  0.4350  0.3050  0.4042
 1963TIP3    H227305   2.428   5.281   2.288  0.4488  0.5773 -0.2930
 1964TIP3   OH227306   2.281   2.700  14.063  0.1339 -0.0386  0.2280
 1964TIP3    H127307   2.245   2.707  13.974  0.7212 -0.6428 -0.0648
 1964TIP3    H227308   2.297   2.606  14.074  2.7914  0.3425 -0.1271
 1965TIP3   OH227309   6.680   1.759  13.638  0.0688  0.3633 -0.8948
 1965TIP3    H127310   6.755   1.713  13.601  0.6399  0.6320 -0.0809
 1965TIP3    H227311   6.608   1.740  13.577  0.0203 -2.4827 -0.0209
 1966TIP3   OH227312   4.488   4.296  15.636  0.3324 -0.2585 -0.2833
 1966TIP3    H127313   4.571   4.306  15.683  0.4880 -1.1088 -0.3766
 1966TIP3    H227314   4.499   4.348  15.557  0.2639  0.7558  0.3555
 1967TIP3   OH227315   0.763   3.822  11.873 -0.0220  0.1693  0.3139
 1967TIP3    H127316   0.843   3.769  11.878  0.5617  1.0432  0.3745
 1967TIP3    H227317   0.720   3.808  11.957 -0.5797 -1.2871 -0.1864
 1968TIP3   OH227318   5.282   0.377  16.892  0.2572 -0.0716 -0.2354
 1968TIP3    H127319   5.270   0.291  16.851  0.0611 -0.1722  0.0338
 1968TIP3    H227320   5.201   0.424  16.873 -0.4002 -0.5903  1.1772
 1969TIP3   OH227321   6.146   1.237  13.249 -0.1095  0.0085  0.0034
 1969TIP3    H127322   6.217   1.217  13.310 -0.7497 -0.2625  0.6663
 1969TIP3    H227323   6.068   1.197  13.288 -1.0101  1.9608  0.2576
 1970TIP3   OH227324   6.399   4.330  13.644  0.7097 -0.2578  0.1952
 1970TIP3    H127325   6.354   4.370  13.569 -0.7484  0.3793  1.3693
 1970TIP3    H227326   6.373   4.238  13.641  0.9633 -0.3127 -0.3080
 1971TIP3   OH227327   4.987   0.314  14.031  0.4279 -0.0052 -0.1476
 1971TIP3    H127328   4.970   0.277  13.945 -1.2501 -0.8633  0.5255
 1971TIP3    H227329   4.928   0.389  14.038 -1.6399 -1.7161  1.3727
 1972TIP3   OH227330   0.378   4.078   1.274  0.0884  0.3016 -0.1913
 1972TIP3    H127331   0.295   4.032   1.289 -0.3981  1.4848  0.8445
 1972TIP3    H227332   0.416   4.034   1.198 -0.7930 -1.1995  0.2100
 1973TIP3   OH227333   6.110   4.198  11.541 -0.6491  0.2551 -0.0340
 1973TIP3    H127334   6.057   4.277  11.549 -1.6997 -0.3425 -0.9617
 1973TIP3    H227335   6.059   4.140  11.484  0.8490 -0.4553 -0.6920
 1974TIP3   OH227336   0.635   1.744   4.722  0.0847  0.0599  0.1680
 1974TIP3    H127337   0.569   1.758   4.654 -1.0570 -0.9314  1.0486
 1974TIP3    H227338   0.665   1.654   4.707  0.7665  0.2911  0.1650
 1975TIP3   OH227339   6.291   0.788  17.055  0.8583  0.0798  0.2378
 1975TIP3    H127340   6.203   0.753  17.068 -0.4943  2.8116 -1.0333
 1975TIP3    H227341   6.321   0.812  17.142  0.7463 -1.7680  0.7950
 1976TIP3   OH227342   2.919   4.592  17.181  0.3485 -0.3746  0.2128
 1976TIP3    H127343   2.921   4.499  17.206 -0.4290  0.3442  3.0872
 1976TIP3    H227344   2.826   4.613  17.175  0.5082 -0.1611 -2.1342
 1977TIP3   OH227345   5.039   0.993   3.288 -0.3065  0.3741 -0.2086
 1977TIP3    H127346   5.102   0.976   3.218 -1.3532 -0.3837 -0.9823
 1977TIP3    H227347   4.955   1.001   3.243 -0.9665  0.0128  0.9512
 1978TIP3   OH227348   3.188   4.431   1.150  0.5670  0.1007  0.3717
 1978TIP3    H127349   3.193   4.352   1.097  1.0265  2.2332 -2.9409
 1978TIP3    H227350   3.097   4.435   1.179  0.2257 -0.9608 -0.5174
 1979TIP3   OH227351   1.089   1.504   5.496  0.3714 -0.0915  0.1705
 1979TIP3    H127352   1.165   1.531   5.548  0.2692 -0.6575  0.6203
 1979TIP3    H227353   1.111   1.528   5.406  1.9989 -2.2297 -0.0242
 1980TIP3   OH227354   3.582   2.551   2.535 -0.1957  0.4663  0.5598
 1980TIP3    H127355   3.615   2.462   2.544 -1.8676 -0.0931  1.3854
 1980TIP3    H227356   3.607   2.577   2.447  0.1976 -0.8782  0.2646
 1981TIP3   OH227357   6.355   5.866  10.754 -0.4759  0.5006 -0.4477
 1981TIP3    H127358   6.380   5.946  10.801 -1.4844  0.1598  0.7162
 1981TIP3    H227359   6.278   5.891  10.703 -1.0402  0.1974  0.2319
 1982TIP3   OH227360   4.425   2.719   3.796  0.4671 -0.3524 -0.4062
 1982TIP3    H127361   4.509   2.684   3.826  0.7089  0.2638 -0.3556
 1982TIP3    H227362   4.449   2.792   3.739 -0.0576  0.5241  0.4836
 1983TIP3   OH227363   4.865   6.241  15.939  0.0874 -0.6637  0.1288
 1983TIP3    H127364   4.910   6.312  15.985 -1.1574 -0.0253  0.3960
 1983TIP3    H227365   4.812   6.199  16.007  0.6795 -1.7508 -0.0696
 1984TIP3   OH227366   3.402   2.576  16.905 -0.0838 -0.7832  0.7075
 1984TIP3    H127367   3.375   2.646  16.844  0.5179 -1.8975 -0.8577
 1984TIP3    H227368   3.337   2.580  16.976 -2.6372 -1.4338 -1.5010
 1985TIP3   OH227369   3.789   4.849   3.371 -0.1187  0.8133  0.3865
 1985TIP3    H127370   3.781   4.906   3.447  0.2592 -1.9966  2.6284
 1985TIP3    H227371   3.703   4.853   3.329 -1.0253  0.7342  2.1966
 1986TIP3   OH227372   4.591   6.655  11.320 -0.3361  0.3037  0.2569
 1986TIP3    H127373   4.672   6.690  11.283 -0.2088  0.8838  1.0639
 1986TIP3    H227374   4.611   6.643  11.413 -0.7213 -0.9019  0.1948
 1987TIP3   OH227375   3.965   6.780  14.703 -0.2115 -0.1042  0.0997
 1987TIP3    H127376   3.940   6.843  14.769  0.1859 -0.4209  0.5582
 1987TIP3    H227377   4.027   6.827  14.647 -3.1421  1.2571 -2.1206
 1988TIP3   OH227378   3.036   1.550  16.411 -0.1837  0.2422  0.7150
 1988TIP3    H127379   3.040   1.487  16.340 -2.5404  0.7995  0.0397
 1988TIP3    H227380   3.127   1.565  16.436  0.7238  0.4741 -2.5507
 1989TIP3   OH227381   5.033   2.470  13.521  0.0337 -0.7364  0.1758
 1989TIP3    H127382   5.059   2.520  13.598 -0.4582  0.0426 -0.1582
 1989TIP3    H227383   4.957   2.419  13.551 -1.1056  0.7151 -0.2018
 1990TIP3   OH227384   5.450   6.154   1.064 -0.1533 -0.3217 -0.7429
 1990TIP3    H127385   5.375   6.096   1.053 -0.0502 -0.5233 -0.3884
 1990TIP3    H227386   5.427   6.233   1.015 -1.0026 -0.0049  0.1435
 1991TIP3   OH227387   3.908   2.028  14.956  0.0221 -0.0423 -0.1120
 1991TIP3    H127388   3.913   1.997  15.047  1.0054 -0.6031 -0.3515
 1991TIP3    H227389   3.985   1.990  14.913 -0.7297 -0.2265 -1.3189
 1992TIP3   OH227390   1.808   0.281   5.099 -0.1795 -0.0488  0.1817
 1992TIP3    H127391   1.855   0.299   5.181 -1.0677  1.0517  0.4662
 1992TIP3    H227392   1.776   0.191   5.109 -0.0370 -0.0215  0.9211
 1993TIP3   OH227393   3.969   3.471  15.878  0.4501 -0.2994  0.6183
 1993TIP3    H127394   3.883   3.433  15.860 -0.1570  0.4795  1.8246
 1993TIP3    H227395   4.017   3.401  15.923  0.6544 -0.9188 -0.5232
 1994TIP3   OH227396   5.632   1.461   4.996  0.4398 -0.1105  0.2512
 1994TIP3    H127397   5.691   1.507   4.937 -0.6742  0.4612 -0.4437
 1994TIP3    H227398   5.594   1.530   5.050  2.0245 -0.7122  2.1808
 1995TIP3   OH227399   2.687   6.664   0.430  0.2119  0.7713  0.6041
 1995TIP3    H127400   2.602   6.662   0.385 -0.5994 -1.0307  2.1579
 1995TIP3    H227401   2.666   6.657   0.523  2.1259 -2.6499  0.9001
 1996TIP3   OH227402   2.162   5.321  13.677  0.4271  0.4487  0.2027
 1996TIP3    H127403   2.160   5.266  13.755 -0.8683  0.3603  0.1150
 1996TIP3    H227404   2.174   5.410  13.710 -2.2379  0.6786  0.6741
 1997TIP3   OH227405   3.775   1.777  14.457 -0.5025  0.6164 -0.0251
 1997TIP3    H127406   3.746   1.736  14.538 -0.5153  1.6448  0.5071
 1997TIP3    H227407   3.871   1.778  14.464 -0.4706 -0.0199 -0.3883
 1998TIP3   OH227408   3.159   0.347   2.031 -0.1890  0.6712 -0.2446
 1998TIP3    H127409   3.204   0.362   1.947 -0.0432 -1.1824 -0.5232
 1998TIP3    H227410   3.075   0.309   2.006 -0.4415  0.7976  0.4235
 1999TIP3   OH227411   4.916   4.221  14.977  0.3760 -0.1297  0.5189
 1999TIP3    H127412   4.881   4.223  15.066  0.2842 -1.1573  0.5103
 1999TIP3    H227413   4.997   4.170  14.984  1.2014  1.1284  0.3015
 2000TIP3   OH227414   6.018   4.883  13.396 -0.1631 -0.0180 -0.0291
 2000TIP3    H127415   6.023   4.868  13.302  0.7979  1.1672 -0.1744
 2000TIP3    H227416   5.929   4.914  13.411 -0.8659 -1.8720 -0.2941
 2001TIP3   OH227417   6.060   1.456   3.023 -0.0071  0.1626  0.2981
 2001TIP3    H127418   6.056   1.437   2.929 -0.5191 -1.6774  0.6559
 2001TIP3    H227419   6.144   1.420   3.051  0.1033  0.6224  0.5635
 2002TIP3   OH227420   2.374   3.419  14.631  0.4702  0.0510  0.5484
 2002TIP3    H127421   2.402   3.473  14.705  0.4790 -1.3707  1.6251
 2002TIP3    H227422   2.447   3.358  14.618 -0.0797 -0.5451  0.2184
 2003TIP3   OH227423   1.566   0.129  12.056 -0.0968  0.1658 -0.7659
 2003TIP3    H127424   1.498   0.109  12.119  1.8107 -1.3269  0.8815
 2003TIP3    H227425   1.599   0.215  12.082  1.3310 -0.8572  0.9199
 2004TIP3   OH227426   6.142   3.538  16.092  0.1341  0.3737 -0.1808
 2004TIP3    H127427   6.105   3.622  16.117  1.0031  0.8841 -0.5946
 2004TIP3    H227428   6.152   3.544  15.997  1.7258  0.4318 -0.0232
 2005TIP3   OH227429   3.394   2.731   4.809 -0.5791  0.0375  0.2844
 2005TIP3    H127430   3.398   2.818   4.771 -0.1447 -0.1541 -0.1073
 2005TIP3    H227431   3.412   2.745   4.902 -2.2602  0.5771  0.5506
 2006TIP3   OH227432   0.845   3.898   2.387 -0.0223 -0.3597 -0.1234
 2006TIP3    H127433   0.802   3.816   2.362 -1.2344  0.0741  0.5050
 2006TIP3    H227434   0.774   3.952   2.422  0.9197  0.6423  0.2449
 2007TIP3   OH227435   1.617   2.410  16.528 -0.0998 -0.2248  0.3059
 2007TIP3    H127436   1.628   2.437  16.619 -1.0353 -0.2380  0.4323
 2007TIP3    H227437   1.602   2.491  16.480  0.2957 -0.2271  0.1770
 2008TIP3   OH227438   5.585   2.002  11.163  0.0955 -0.0343  0.8850
 2008TIP3    H127439   5.530   2.080  11.152 -2.1423 -1.2840  2.5496
 2008TIP3    H227440   5.673   2.031  11.139 -1.3601  1.8981 -2.4656
 2009TIP3   OH227441   4.083   4.042  14.456 -0.1987 -0.5497 -0.0172
 2009TIP3    H127442   4.041   4.121  14.422 -2.4366 -1.9681 -0.6757
 2009TIP3    H227443   4.027   3.970  14.425  1.9372 -2.4163  0.3263
 2010TIP3   OH227444   0.787   1.159  13.877 -0.4905  0.0988  0.1241
 2010TIP3    H127445   0.823   1.247  13.887 -0.6780  0.2036 -0.1089
 2010TIP3    H227446   0.696   1.167  13.905 -0.4196 -0.0921  0.4030
 2011TIP3   OH227447   6.614   4.150  13.924 -0.5145  0.1346  0.6426
 2011TIP3    H127448   6.522   4.168  13.905 -0.3142  0.7477  0.2479
 2011TIP3    H227449   6.632   4.068  13.877 -0.1163  1.4768 -1.6233
 2012TIP3   OH227450   0.951   0.677  13.062 -0.1679 -0.2791 -0.3100
 2012TIP3    H127451   0.856   0.671  13.061 -0.1879  0.0519 -0.7738
 2012TIP3    H227452   0.977   0.636  13.144 -0.8575  1.6792  0.9276
 2013TIP3   OH227453   4.321   0.891  11.483  0.3515  0.1089  0.0470
 2013TIP3    H127454   4.405   0.857  11.515  0.1168  0.9238  1.5744
 2013TIP3    H227455   4.346   0.967  11.429  0.7354 -1.1779 -1.6442
 2014TIP3   OH227456   1.395   2.927  13.754  0.1395  0.2483  0.9972
 2014TIP3    H127457   1.383   2.990  13.684 -0.5569 -0.6619  0.2887
 2014TIP3    H227458   1.489   2.911  13.756  0.0889 -0.2306 -0.1733
 2015TIP3   OH227459   0.652   0.648   3.396 -0.8153 -0.7044 -0.7488
 2015TIP3    H127460   0.559   0.661   3.381 -1.1479 -3.3578 -1.2382
 2015TIP3    H227461   0.658   0.561   3.435  1.2769  0.3317  1.3281
 2016TIP3   OH227462   2.200   1.015   0.774 -0.4461 -0.2619 -0.0303
 2016TIP3    H127463   2.158   1.089   0.729 -0.1736 -0.2309 -0.2357
 2016TIP3    H227464   2.265   0.983   0.711 -1.0124 -1.0865 -0.2078
 2017TIP3   OH227465   4.822   2.038  16.068 -0.5609  0.4169  0.3644
 2017TIP3    H127466   4.891   2.104  16.063 -1.0394  0.9217  0.3835
 2017TIP3    H227467   4.745   2.081  16.030 -0.5466 -0.5535 -0.7863
 2018TIP3   OH227468   5.170   2.352  15.657  0.3003 -0.3260 -0.0463
 2018TIP3    H127469   5.111   2.277  15.653  0.0294 -0.1653  0.7161
 2018TIP3    H227470   5.136   2.414  15.593 -0.4202 -0.1959  0.4551
 2019TIP3   OH227471   2.694   6.696  16.355 -0.3004  0.2425 -0.0519
 2019TIP3    H127472   2.619   6.671  16.408  0.6056 -0.0813  1.0854
 2019TIP3    H227473   2.658   6.711  16.267 -1.4651 -1.1583  0.1905
 2020TIP3   OH227474   4.492   4.895   1.645  0.8218  0.1628  0.0915
 2020TIP3    H127475   4.516   4.853   1.727  2.2805 -0.2300 -0.5047
 2020TIP3    H227476   4.568   4.880   1.588  0.8916  2.6040 -0.5138
 2021TIP3   OH227477   4.245   0.822  14.038 -0.1613  0.2037 -0.5125
 2021TIP3    H127478   4.157   0.858  14.046 -0.9480 -1.3582 -1.8966
 2021TIP3    H227479   4.247   0.780  13.952  1.2546 -1.5738  0.3424
 2022TIP3   OH227480   2.223   4.192  11.083  0.3112 -0.2630  0.5719
 2022TIP3    H127481   2.277   4.160  11.010  1.3899 -0.0360  1.2676
 2022TIP3    H227482   2.211   4.285  11.064  1.1770 -0.0518  1.0441
 2023TIP3   OH227483   1.300   3.543   0.338  0.0749 -0.4482 -0.1216
 2023TIP3    H127484   1.300   3.638   0.344 -1.0373 -0.5478  2.7024
 2023TIP3    H227485   1.291   3.524   0.245  1.9001  2.1824 -0.8800
 2024TIP3   OH227486   5.190   5.255  13.015 -0.0205 -0.1288 -0.0747
 2024TIP3    H127487   5.141   5.217  13.087 -0.7626  1.7327  0.4396
 2024TIP3    H227488   5.132   5.246  12.939 -0.3670  0.3341  0.1308
 2025TIP3   OH227489   2.875   1.614  14.607  0.2143  0.1612 -0.3309
 2025TIP3    H127490   2.842   1.594  14.695 -0.2739 -1.2562 -0.8182
 2025TIP3    H227491   2.870   1.530  14.560  0.4865  0.8994 -1.7004
 2026TIP3   OH227492   2.771   6.094  13.852  0.2270 -0.4789 -0.0731
 2026TIP3    H127493   2.856   6.094  13.808  0.2018  0.4270 -0.1278
 2026TIP3    H227494   2.784   6.041  13.930  0.3539 -1.8592 -1.0043
 2027TIP3   OH227495   4.771   5.530   0.915  0.2181 -0.4789 -0.0655
 2027TIP3    H127496   4.758   5.462   0.848 -1.2359 -1.5136  1.2292
 2027TIP3    H227497   4.790   5.482   0.995  1.7468  0.7553  0.3352
 2028TIP3   OH227498   1.511   3.125   1.199 -0.1144 -0.3239 -0.0852
 2028TIP3    H127499   1.596   3.159   1.172  0.1315 -0.7722  0.1233
 2028TIP3    H227500   1.522   3.030   1.200 -0.5460 -0.3744  0.1829
 2029TIP3   OH227501   2.147   5.921  17.105 -0.3499 -0.3433 -0.3004
 2029TIP3    H127502   2.221   5.863  17.088  1.1486  1.6295 -0.7492
 2029TIP3    H227503   2.161   5.953  17.194 -1.2155 -0.7303 -0.0184
 2030TIP3   OH227504   4.636   0.443  12.481  0.8079  0.1487  0.9260
 2030TIP3    H127505   4.629   0.539  12.485  1.6141  0.4305 -2.8348
 2030TIP3    H227506   4.720   0.423  12.522  0.5669  0.9981  1.8764
 2031TIP3   OH227507   3.218   3.615  14.321  0.6047 -0.5246  0.4841
 2031TIP3    H127508   3.249   3.554  14.388  1.2886 -0.2111  0.4592
 2031TIP3    H227509   3.207   3.698  14.367 -0.0540 -0.5945  0.4553
 2032TIP3   OH227510   0.639   4.845   5.546 -0.0218  0.1059  0.1872
 2032TIP3    H127511   0.583   4.803   5.482 -0.5041  1.3336 -0.2028
 2032TIP3    H227512   0.599   4.931   5.561  2.8625  1.8459 -1.6454
 2033TIP3   OH227513   3.316   1.304  16.978  0.3581  0.2340 -0.1435
 2033TIP3    H127514   3.331   1.378  17.037  0.4782  1.7975 -2.0547
 2033TIP3    H227515   3.364   1.231  17.018  1.0544  1.4374  1.2820
 2034TIP3   OH227516   0.151   2.609  15.155 -0.0878  0.4373 -0.7839
 2034TIP3    H127517   0.178   2.692  15.115  1.1963 -0.4517 -1.7776
 2034TIP3    H227518   0.067   2.590  15.115  0.0334  0.7973 -1.2156
 2035TIP3   OH227519   1.106   3.401   1.081 -0.0015  0.2031 -0.0668
 2035TIP3    H127520   1.149   3.344   1.145 -1.1884 -0.1899  0.3857
 2035TIP3    H227521   1.013   3.382   1.091 -0.2947  1.1840 -0.9215
 2036TIP3   OH227522   1.057   2.926  15.144  0.2612  0.5076  0.0721
 2036TIP3    H127523   1.101   2.868  15.206  1.7614 -1.5770 -2.8147
 2036TIP3    H227524   1.108   3.007  15.146  0.8830  0.0978  0.8087
 2037TIP3   OH227525   0.952   4.074   2.907  0.2635 -0.5227 -0.1087
 2037TIP3    H127526   1.012   4.019   2.858 -0.6358 -0.5680 -1.1794
 2037TIP3    H227527   1.008   4.127   2.964  1.1831 -1.9294  0.3156
 2038TIP3   OH227528   2.946   2.780   1.348 -0.3895  0.1809 -0.1149
 2038TIP3    H127529   2.907   2.754   1.432 -1.5873  0.6051 -0.5335
 2038TIP3    H227530   3.034   2.811   1.371 -0.5482 -0.1186  0.9248
 2039TIP3   OH227531   6.721   4.938  13.201 -0.5203  0.5170  0.0272
 2039TIP3    H127532   6.773   4.858  13.207 -2.1911 -0.4830  1.4401
 2039TIP3    H227533   6.769   5.002  13.255 -0.6484 -0.3503  1.1783
 2040TIP3   OH227534   0.759   4.424  12.272  0.0670  0.2920 -0.4651
 2040TIP3    H127535   0.765   4.478  12.350 -0.4037  0.2402 -0.3895
 2040TIP3    H227536   0.683   4.459  12.225  2.7250  3.0508 -2.9729
 2041TIP3   OH227537   0.640   0.755  11.419  0.0658  0.3147 -0.1542
 2041TIP3    H127538   0.561   0.808  11.429 -0.6185 -0.6653 -0.2973
 2041TIP3    H227539   0.626   0.679  11.476  1.6621  0.9765  1.1499
 2042TIP3   OH227540   2.232   2.913  11.623 -0.0925 -0.4476  0.1120
 2042TIP3    H127541   2.304   2.893  11.564  0.0217  1.6257 -0.4837
 2042TIP3    H227542   2.175   2.971  11.574 -1.3530 -0.7767  1.1414
 2043TIP3   OH227543   1.514   6.665  11.701  0.0785  0.0321 -0.3579
 2043TIP3    H127544   1.564   6.616  11.766  1.3927  1.7840 -0.0209
 2043TIP3    H227545   1.459   6.599  11.658 -0.3912 -1.2459  2.1082
 2044TIP3   OH227546   5.340   5.307   2.099 -0.1062 -0.5931 -0.4797
 2044TIP3    H127547   5.429   5.300   2.134 -0.0025  0.7802 -0.4416
 2044TIP3    H227548   5.340   5.387   2.048 -0.9139 -1.3715 -1.7413
 2045TIP3   OH227549   4.876   2.638  11.603  0.2788 -0.2722 -0.1646
 2045TIP3    H127550   4.857   2.633  11.696 -0.5872  0.3707 -0.2971
 2045TIP3    H227551   4.946   2.704  11.597  1.5657 -1.5867  0.1853
 2046TIP3   OH227552   0.365   3.339  16.905 -0.1404  0.1998  0.4259
 2046TIP3    H127553   0.314   3.416  16.933 -0.1300  0.3488  0.0449
 2046TIP3    H227554   0.389   3.295  16.987  0.4669  0.9944  0.6836
 2047TIP3   OH227555   3.382   1.026   3.021  1.0620 -0.2337  0.3011
 2047TIP3    H127556   3.360   1.109   3.062  0.4031  0.1674 -0.8450
 2047TIP3    H227557   3.411   1.049   2.933  2.8533 -1.0410  0.6482
 2048TIP3   OH227558   5.559   4.717   4.131 -0.1773 -0.3714 -0.2044
 2048TIP3    H127559   5.623   4.703   4.061 -0.5737 -0.0303 -0.6416
 2048TIP3    H227560   5.524   4.805   4.115 -1.2436 -0.8142 -0.3713
 2049TIP3   OH227561   3.633   5.668   2.671  0.4241 -0.2398  0.6350
 2049TIP3    H127562   3.727   5.685   2.659  0.9064 -2.1255  1.5226
 2049TIP3    H227563   3.609   5.615   2.594  0.1049  0.1408  0.4707
 2050TIP3   OH227564   5.022   4.922  16.569 -0.4111  0.2589 -0.3872
 2050TIP3    H127565   4.974   4.849  16.530  0.6097 -0.3239 -0.5839
 2050TIP3    H227566   5.085   4.949  16.501  1.0686 -0.4617  0.6674
 2051TIP3   OH227567   0.009   5.652   0.031 -0.4216  0.1836  0.0700
 2051TIP3    H127568   0.068   5.651  -0.044  0.0321  0.2760  0.4195
 2051TIP3    H227569  -0.043   5.731   0.021 -1.9492 -0.9787 -1.3561
 2052TIP3   OH227570   1.099   4.539   5.143 -0.3198 -0.4946  0.3482
 2052TIP3    H127571   1.027   4.544   5.206  0.6834  0.2852  1.4498
 2052TIP3    H227572   1.091   4.452   5.105 -2.6172  0.0597 -0.4732
 2053TIP3   OH227573   2.875   3.175  15.745  0.4914  0.5500 -0.1469
 2053TIP3    H127574   2.797   3.228  15.728  2.0713  2.3885 -1.8584
 2053TIP3    H227575   2.876   3.110  15.674 -0.0574 -0.1466  0.4831
 2054TIP3   OH227576   4.912   6.081   3.222 -0.2726  0.2440  0.9754
 2054TIP3    H127577   4.966   6.161   3.218  0.6144 -0.4089 -0.9023
 2054TIP3    H227578   4.972   6.011   3.197 -1.1312 -0.9897  2.3062
 2055TIP3   OH227579   6.114   5.542  15.710  0.8342  0.2767  0.1547
 2055TIP3    H127580   6.123   5.593  15.790 -2.5885 -1.2228  1.5954
 2055TIP3    H227581   6.062   5.597  15.652  2.6529  1.0384 -0.7976
 2056TIP3   OH227582   1.626   5.477   4.820  0.6741  0.5694 -0.3951
 2056TIP3    H127583   1.610   5.385   4.842  2.3756  0.3215 -0.1717
 2056TIP3    H227584   1.719   5.490   4.839  0.5187  2.2360 -0.7886
 2057TIP3   OH227585   4.861   1.313  12.909  0.4417 -0.3102 -0.2096
 2057TIP3    H127586   4.883   1.221  12.925 -1.0665 -0.5727  0.4403
 2057TIP3    H227587   4.769   1.321  12.936  0.7702  1.5620  0.4612
 2058TIP3   OH227588   3.183   1.635   1.521 -0.0864 -0.2897  0.4503
 2058TIP3    H127589   3.169   1.722   1.558 -4.1517 -0.3626 -0.7087
 2058TIP3    H227590   3.182   1.649   1.426 -0.6928 -1.5628  0.2568
 2059TIP3   OH227591   4.130   3.702  10.513  0.2344 -0.4505  0.1790
 2059TIP3    H127592   4.048   3.740  10.481  0.0151  0.2447  1.5343
 2059TIP3    H227593   4.120   3.699  10.608  1.8657 -0.1592  0.3832
 2060TIP3   OH227594   6.310   1.765   3.052  0.0818  0.4180 -0.7139
 2060TIP3    H127595   6.215   1.770   3.043 -0.0100 -0.9760 -0.6418
 2060TIP3    H227596   6.344   1.833   2.994 -0.9923  1.6307  0.0597
 2061TIP3   OH227597   1.892   0.777  12.395  0.6199  0.3183  0.0411
 2061TIP3    H127598   1.931   0.828  12.324 -0.0026 -0.2374 -0.7107
 2061TIP3    H227599   1.802   0.763  12.367  0.4040 -0.0086  0.8928
 2062TIP3   OH227600   5.145   0.213   3.799 -0.4881 -0.2832 -0.2558
 2062TIP3    H127601   5.142   0.131   3.849 -0.0063 -0.1109  0.0594
 2062TIP3    H227602   5.074   0.204   3.735 -0.6651 -0.7988  0.0035
 2063TIP3   OH227603   5.168   5.228  14.528 -0.0298  0.2438 -0.2371
 2063TIP3    H127604   5.245   5.173  14.540  0.6721  1.2218 -0.2233
 2063TIP3    H227605   5.187   5.307  14.579 -0.4864  1.0286 -1.2857
 2064TIP3   OH227606   1.294   4.303  15.714 -0.0815  0.1759 -0.3603
 2064TIP3    H127607   1.313   4.339  15.627  0.8661 -1.6016 -0.9044
 2064TIP3    H227608   1.345   4.222  15.719 -1.2775 -0.5155  1.2851
 2065TIP3   OH227609   0.388   5.678  15.992  0.3608 -0.4158  0.4654
 2065TIP3    H127610   0.449   5.610  15.965 -0.9083 -1.0651 -0.8372
 2065TIP3    H227611   0.305   5.632  16.007  0.1836  0.4260  2.3153
 2066TIP3   OH227612   2.960   5.551   5.552 -0.8170 -0.0625  0.5164
 2066TIP3    H127613   2.981   5.465   5.515  0.1537  0.5673 -0.4519
 2066TIP3    H227614   2.981   5.543   5.645  2.5727  0.1193 -0.1494
 2067TIP3   OH227615   4.076   3.584  10.845 -0.1169 -0.8743 -0.4256
 2067TIP3    H127616   4.071   3.678  10.858  0.9713 -0.9481  0.5423
 2067TIP3    H227617   4.011   3.548  10.906  2.8111 -1.0252  2.7151
 2068TIP3   OH227618   6.531   1.243   0.244  0.5119  0.0523  0.3117
 2068TIP3    H127619   6.561   1.219   0.332  1.2896  0.4950  0.1732
 2068TIP3    H227620   6.452   1.294   0.260  2.0089  2.2863  0.9184
 2069TIP3   OH227621   4.821   3.244  11.791 -0.3618 -0.6884  0.0434
 2069TIP3    H127622   4.904   3.291  11.799 -0.1693 -1.3298  2.0289
 2069TIP3    H227623   4.846   3.154  11.771 -0.5828 -0.8248  0.3709
 2070TIP3   OH227624   3.050   0.039  16.155  0.5238 -0.4597 -0.3794
 2070TIP3    H127625   3.032  -0.047  16.193 -0.6949 -1.2961 -2.7950
 2070TIP3    H227626   3.144   0.040  16.140  0.7575 -0.7905  0.9599
 2071TIP3   OH227627   0.841   5.154   0.542  0.6326 -0.7796 -0.5748
 2071TIP3    H127628   0.762   5.169   0.595  0.8173 -0.2899 -0.4354
 2071TIP3    H227629   0.854   5.059   0.545 -0.5484 -0.9822 -1.4669
 2072TIP3   OH227630   1.495   0.048   0.721  0.3489 -0.4318  0.3280
 2072TIP3    H127631   1.496   0.075   0.813 -0.1685  0.8256 -0.0213
 2072TIP3    H227632   1.419  -0.009   0.713 -0.3924  0.5305  0.4016
 2073TIP3   OH227633   4.352   5.774   4.045 -0.2045 -0.6474  0.7399
 2073TIP3    H127634   4.416   5.840   4.073  1.5742 -1.6817 -0.7522
 2073TIP3    H227635   4.298   5.758   4.123 -0.2372  2.0623  1.3115
 2074TIP3   OH227636   1.283   4.274  16.014  0.5434  0.0115  0.1447
 2074TIP3    H127637   1.215   4.211  15.991  1.1202 -0.3470 -0.6262
 2074TIP3    H227638   1.291   4.330  15.936  0.1740  0.9075  0.7497
 2075TIP3   OH227639   0.524   3.040   5.806 -0.4405  0.1909  0.1410
 2075TIP3    H127640   0.477   3.122   5.793 -0.7173  0.0892  0.5093
 2075TIP3    H227641   0.468   2.989   5.864  1.0046  0.8323  2.1637
 2076TIP3   OH227642   3.341   4.368  11.902  0.9858  0.8282  0.0709
 2076TIP3    H127643   3.437   4.368  11.894  0.8147  2.3127 -2.4718
 2076TIP3    H227644   3.314   4.283  11.867  1.2523  1.2833 -1.2676
 2077TIP3   OH227645   4.394   6.717   1.663 -0.2750  0.0022  0.4336
 2077TIP3    H127646   4.331   6.680   1.726 -1.4920  1.0959 -0.1179
 2077TIP3    H227647   4.362   6.806   1.647 -1.0916 -0.9023 -3.2069
 2078TIP3   OH227648   5.140   5.066  11.936 -0.4718  0.0108 -0.1762
 2078TIP3    H127649   5.072   5.071  12.002  0.8796  1.0536  1.1856
 2078TIP3    H227650   5.199   5.139  11.956 -0.7233  1.1712 -3.3312
 2079TIP3   OH227651   2.971   0.875  16.272 -0.4794 -0.2666  0.1192
 2079TIP3    H127652   3.022   0.934  16.327 -1.8410  0.7161  0.3757
 2079TIP3    H227653   2.890   0.860  16.322 -0.7975 -1.1149 -0.6396
 2080TIP3   OH227654   3.842   0.646   2.544  0.2129  0.4439  0.2491
 2080TIP3    H127655   3.765   0.678   2.497  0.5181  0.1443 -0.4685
 2080TIP3    H227656   3.912   0.705   2.519  0.1431  0.9220  1.1752
 2081TIP3   OH227657   5.754   4.857   1.561  0.1407  0.4259 -0.3315
 2081TIP3    H127658   5.671   4.900   1.582 -0.5351 -1.0463  0.0221
 2081TIP3    H227659   5.794   4.838   1.646  0.6209  0.6895 -0.4950
 2082TIP3   OH227660   4.784   3.771  14.439  0.1175  0.1821  0.1159
 2082TIP3    H127661   4.829   3.855  14.436  0.7700 -0.1414  0.5595
 2082TIP3    H227662   4.745   3.761  14.353  2.0031 -0.1351 -0.7102
 2083TIP3   OH227663   3.871   5.342  12.924  0.2038  0.1410 -0.3094
 2083TIP3    H127664   3.917   5.365  13.004  1.0931 -2.5510  0.0078
 2083TIP3    H227665   3.865   5.246  12.926 -0.2030  0.0533 -3.2166
 2084TIP3   OH227666   5.499   3.987  12.587 -0.1082 -0.0532  0.2096
 2084TIP3    H127667   5.573   3.950  12.539  0.6375 -0.8850  1.9714
 2084TIP3    H227668   5.475   4.065  12.537  2.2697  0.4965 -0.1286
 2085TIP3   OH227669   4.704   2.548  12.800 -0.2016  0.0077  0.1340
 2085TIP3    H127670   4.768   2.486  12.765 -0.0161  0.4525 -0.3193
 2085TIP3    H227671   4.642   2.494  12.848  0.1033 -0.5058 -0.0456
 2086TIP3   OH227672   5.928   0.337  11.449  0.0749  0.5042  0.0637
 2086TIP3    H127673   5.987   0.360  11.376  0.5695  3.2323  1.2599
 2086TIP3    H227674   5.975   0.270  11.497 -0.9193 -2.4917 -2.9412
 2087TIP3   OH227675   1.198   0.246  17.123  0.4215  0.3746  0.3229
 2087TIP3    H127676   1.227   0.190  17.050 -1.2010  3.0679 -2.5094
 2087TIP3    H227677   1.270   0.309  17.134 -0.5244  1.6789 -0.8486
 2088TIP3   OH227678   0.622   3.112   5.024 -0.1766  0.3788 -0.2965
 2088TIP3    H127679   0.558   3.144   4.961  0.0698 -1.0633 -1.2950
 2088TIP3    H227680   0.667   3.041   4.979  0.5780 -0.1201  1.2035
 2089TIP3   OH227681   6.290   3.569  13.876  0.5668 -0.1591  0.6443
 2089TIP3    H127682   6.333   3.625  13.941 -3.0539  0.8608  2.3032
 2089TIP3    H227683   6.227   3.518  13.927 -1.1448 -0.6127 -1.8308
 2090TIP3   OH227684   3.709   1.902  15.745 -0.0737 -0.1855  0.4661
 2090TIP3    H127685   3.613   1.901  15.735 -0.0117 -1.9050 -0.0335
 2090TIP3    H227686   3.736   1.985  15.705 -1.2510 -0.1873 -0.3638
 2091TIP3   OH227687   5.996   4.780  15.560 -0.1332 -0.2691 -0.4767
 2091TIP3    H127688   6.012   4.872  15.581 -1.3830 -0.2814  0.5630
 2091TIP3    H227689   6.036   4.768  15.474  0.0837  1.2315 -0.5976
 2092TIP3   OH227690   4.255   5.176  12.765  0.8736 -0.0183 -0.1768
 2092TIP3    H127691   4.169   5.217  12.754  1.6756  1.2250 -1.9726
 2092TIP3    H227692   4.263   5.165  12.860 -0.7107  1.0666  0.1126
 2093TIP3   OH227693   4.423   1.782  11.890  0.2144  0.5228 -0.2679
 2093TIP3    H127694   4.459   1.699  11.857  0.5228  0.9231 -0.9415
 2093TIP3    H227695   4.498   1.825  11.931 -0.1318  0.0980  0.8353
 2094TIP3   OH227696   5.302   1.209  12.794  0.1077  0.3187  0.3038
 2094TIP3    H127697   5.370   1.274  12.813  1.3904 -0.9578  0.1223
 2094TIP3    H227698   5.310   1.193  12.700  0.6913 -1.1031  0.5924
 2095TIP3   OH227699   1.860   0.579   3.882  0.1075 -0.0940  0.4521
 2095TIP3    H127700   1.943   0.627   3.884 -0.1540  0.3813 -0.0385
 2095TIP3    H227701   1.794   0.644   3.905 -0.3713  0.0429 -1.2735
 2096TIP3   OH227702   5.277   5.197  16.631 -0.1782  0.8309  0.1692
 2096TIP3    H127703   5.308   5.216  16.542  1.8393  0.9275  0.8696
 2096TIP3    H227704   5.314   5.267  16.685 -0.9605  0.4768  1.1780
 2097TIP3   OH227705   2.284   1.727  10.728  0.1031 -0.2839  0.1985
 2097TIP3    H127706   2.287   1.730  10.632  0.1343  1.0085  0.2364
 2097TIP3    H227707   2.342   1.797  10.756 -2.1667  1.2661  1.1447
 2098TIP3   OH227708   2.799   3.503  11.465 -0.0944 -0.2237  0.4094
 2098TIP3    H127709   2.724   3.549  11.502  1.2561  0.3732  2.4774
 2098TIP3    H227710   2.873   3.564  11.475  1.3616 -2.1279  1.5995
 2099TIP3   OH227711   5.813   4.674  15.210 -0.7110  0.2501  0.0252
 2099TIP3    H127712   5.843   4.600  15.263 -2.1085 -0.0459  0.4199
 2099TIP3    H227713   5.752   4.636  15.147  0.4353  0.7006 -1.3978
 2100TIP3   OH227714   1.937   3.870  13.512  0.6593 -0.2867  0.5478
 2100TIP3    H127715   1.857   3.832  13.548 -0.0680  1.0302  0.3246
 2100TIP3    H227716   1.985   3.902  13.589  0.9189 -0.9721  0.6721
 2101TIP3   OH227717   5.441   0.066   1.542 -0.1622  0.3365  0.1444
 2101TIP3    H127718   5.407   0.025   1.463 -0.1204 -1.1601  0.8880
 2101TIP3    H227719   5.509   0.126   1.511 -2.1181  1.9198 -1.1867
 2102TIP3   OH227720   2.463   4.166   1.605 -0.0199  0.2175  0.0510
 2102TIP3    H127721   2.503   4.090   1.649  0.7759  0.2700 -0.5743
 2102TIP3    H227722   2.470   4.145   1.512  0.3975  1.1542 -0.1339
 2103TIP3   OH227723   0.486   0.430  12.105  0.3368 -0.4910 -0.2011
 2103TIP3    H127724   0.510   0.416  12.014 -0.9599  1.4637 -0.8783
 2103TIP3    H227725   0.558   0.393  12.155  2.6150  1.2754 -2.0816
 2104TIP3   OH227726   5.148   3.638   5.668  0.2648 -0.4238  0.4540
 2104TIP3    H127727   5.203   3.587   5.727  1.6597  0.3221 -0.1812
 2104TIP3    H227728   5.185   3.726   5.669 -1.1063  0.1834  0.2520
 2105TIP3   OH227729   6.657   4.007   2.825  0.3546  0.7936 -0.5897
 2105TIP3    H127730   6.662   3.918   2.859  0.9639  0.2648 -2.0174
 2105TIP3    H227731   6.612   4.056   2.893  0.3697 -0.5180  0.3880
 2106TIP3   OH227732   1.922   0.563  14.117  0.0933 -0.6520  0.3568
 2106TIP3    H127733   1.990   0.523  14.063  0.4107  0.7118 -0.2781
 2106TIP3    H227734   1.845   0.568  14.059  0.3991  0.7059  0.0554
 2107TIP3   OH227735   2.867   2.368  11.956  0.3663  0.0264 -0.6887
 2107TIP3    H127736   2.838   2.278  11.939  1.0421  0.0276 -1.9278
 2107TIP3    H227737   2.818   2.421  11.893  0.7466  0.3973 -0.6703
 2108TIP3   OH227738   2.027   5.220   6.165  0.1066  0.3364  0.0961
 2108TIP3    H127739   1.981   5.220   6.081 -1.7437  3.3850  1.0201
 2108TIP3    H227740   1.974   5.164   6.222  0.7439 -0.8163 -0.4260
 2109TIP3   OH227741   0.485   2.618  13.949  0.0474 -0.0944  0.0267
 2109TIP3    H127742   0.396   2.641  13.922  0.2979 -0.0033 -0.7213
 2109TIP3    H227743   0.490   2.645  14.041 -0.7673 -0.2984  0.1387
 2110TIP3   OH227744   4.845   6.186  16.970 -0.2068 -0.1729 -0.5589
 2110TIP3    H127745   4.891   6.103  16.981 -0.3561 -0.2036 -0.1772
 2110TIP3    H227746   4.753   6.163  16.971 -0.2349 -0.1175 -1.3825
 2111TIP3   OH227747   5.112   0.314  16.486 -0.0524  0.4037 -0.5199
 2111TIP3    H127748   5.137   0.405  16.500  0.3791  0.1682  0.2662
 2111TIP3    H227749   5.021   0.319  16.456  0.1393  1.1194 -1.0072
 2112TIP3   OH227750   0.050   1.559  11.958 -0.1000 -0.4340  0.0897
 2112TIP3    H127751   0.088   1.593  11.877 -2.5548  0.1026 -0.8872
 2112TIP3    H227752   0.096   1.605  12.028 -1.8643  3.4106 -1.1460
 2113TIP3   OH227753   4.044   0.072  16.573  0.5453 -0.1303  0.5877
 2113TIP3    H127754   4.032   0.144  16.510  1.4892  1.2810  1.9736
 2113TIP3    H227755   3.955   0.049  16.599  0.2369  0.7703  0.3740
 2114TIP3   OH227756   4.945   2.124   1.035  0.7560 -0.3582  0.3834
 2114TIP3    H127757   5.019   2.149   1.090  2.0189 -2.9448 -0.0777
 2114TIP3    H227758   4.891   2.068   1.090 -0.0550  0.2513  0.2218
 2115TIP3   OH227759   1.219   6.398   4.668 -0.3581  0.3300 -0.1196
 2115TIP3    H127760   1.235   6.374   4.577 -0.2649  2.4074 -0.6766
 2115TIP3    H227761   1.168   6.479   4.663  0.4135  0.9561  1.6601
 2116TIP3   OH227762   0.107   3.077   4.258  0.4765 -0.5201  0.1663
 2116TIP3    H127763   0.176   3.119   4.309  1.8020 -2.0346 -0.3540
 2116TIP3    H227764   0.034   3.139   4.261  1.5607  0.7237  1.4167
 2117TIP3   OH227765   4.440   6.584   1.936 -0.0378 -0.0861 -0.6860
 2117TIP3    H127766   4.465   6.668   1.974 -0.6975 -0.2151  0.0511
 2117TIP3    H227767   4.356   6.564   1.977 -0.0717 -0.9162 -1.1575
 2118TIP3   OH227768   0.798   1.240   5.662  0.5987  0.3272 -0.6360
 2118TIP3    H127769   0.803   1.283   5.747 -1.0747  0.8176 -0.7733
 2118TIP3    H227770   0.883   1.260   5.621  0.9432  1.1076  0.4300
 2119TIP3   OH227771   2.198   6.194   4.127 -0.7498 -0.1838  0.2055
 2119TIP3    H127772   2.205   6.286   4.151  0.3891 -0.4241  0.8192
 2119TIP3    H227773   2.262   6.150   4.182 -1.2538 -1.3410 -0.1202
 2120TIP3   OH227774   2.858   3.507   2.221  0.5924 -0.3386  0.5449
 2120TIP3    H127775   2.783   3.523   2.278  0.8777 -2.6947  1.6418
 2120TIP3    H227776   2.828   3.438   2.161  1.0955  0.3943 -0.5547
 2121TIP3   OH227777   0.054   2.195  13.824 -0.0106  0.0126 -0.9065
 2121TIP3    H127778   0.096   2.159  13.902 -1.2812  2.0661  0.7646
 2121TIP3    H227779   0.125   2.236  13.775  0.2381  2.0249  1.0753
 2122TIP3   OH227780   6.700   5.173  12.581 -0.1834 -0.0836  0.3328
 2122TIP3    H127781   6.784   5.153  12.540 -0.7605 -1.6939 -0.1034
 2122TIP3    H227782   6.637   5.168  12.509 -0.7350  0.5429  0.7667
 2123TIP3   OH227783   0.801   5.795   3.402  0.7109  0.1213 -0.3339
 2123TIP3    H127784   0.734   5.732   3.429  0.3018  1.0558  0.9077
 2123TIP3    H227785   0.796   5.796   3.307 -0.7252 -0.1819 -0.2830
 2124TIP3   OH227786   3.865   5.376  15.029  0.4496  0.1071  0.2750
 2124TIP3    H127787   3.838   5.454  14.981 -1.2095 -0.5197  0.1676
 2124TIP3    H227788   3.787   5.321  15.032  2.0371 -2.3800 -1.2906
 2125TIP3   OH227789   6.516   4.293   5.132  0.3359  0.2967 -0.1020
 2125TIP3    H127790   6.500   4.336   5.216 -3.6111 -0.4950 -0.3859
 2125TIP3    H227791   6.565   4.214   5.155 -0.4758  0.2255  1.4414
 2126TIP3   OH227792   3.022   3.534  16.280  0.7467  0.4684  0.0263
 2126TIP3    H127793   3.080   3.465  16.248  2.0334  0.8995  1.3519
 2126TIP3    H227794   3.013   3.594  16.205  2.0642  0.4180 -0.1892
 2127TIP3   OH227795   1.158   1.258   5.625  0.1211 -0.2784  0.1484
 2127TIP3    H127796   1.254   1.258   5.632  0.1691  0.6304 -0.4292
 2127TIP3    H227797   1.139   1.321   5.556 -0.8350 -1.4066 -0.6538
 2128TIP3   OH227798   0.470   2.465   2.194  0.0990 -0.1688  0.5265
 2128TIP3    H127799   0.393   2.491   2.144 -0.1258 -2.0188 -0.1439
 2128TIP3    H227800   0.452   2.497   2.283 -1.5885 -0.7898  0.4415
 2129TIP3   OH227801   2.387   4.489   4.778 -0.0640 -0.2198  0.3844
 2129TIP3    H127802   2.376   4.535   4.862  0.5987  0.7429 -0.0526
 2129TIP3    H227803   2.329   4.536   4.718  1.6879  0.9595 -0.4105
 2130TIP3   OH227804   4.711   5.935  12.321  0.9486 -0.1952  0.1827
 2130TIP3    H127805   4.686   5.884  12.243  2.1358 -0.3669 -0.0879
 2130TIP3    H227806   4.641   5.917  12.384  1.2982 -2.0922  0.0571
 2131TIP3   OH227807   4.510   1.233   1.141  0.2532  0.2033  0.1121
 2131TIP3    H127808   4.606   1.239   1.135  0.3567 -1.1548  0.2817
 2131TIP3    H227809   4.494   1.163   1.204 -0.8665  1.4455  1.2233
 2132TIP3   OH227810   0.787   4.667  12.077  0.0293 -0.7860 -0.2400
 2132TIP3    H127811   0.818   4.696  12.163 -0.2111  0.9338 -0.7124
 2132TIP3    H227812   0.700   4.630  12.094 -0.5774  0.7446  0.0882
 2133TIP3   OH227813   2.249   4.025   5.213 -0.1067  0.5751  0.6632
 2133TIP3    H127814   2.305   3.958   5.251 -0.3953  0.2769  0.5626
 2133TIP3    H227815   2.297   4.056   5.136 -0.0955  0.3012  0.5618
 2134TIP3   OH227816   0.048   4.673  13.665 -0.0758 -0.4637  0.2943
 2134TIP3    H127817   0.121   4.735  13.677  1.6677 -2.2233 -0.8459
 2134TIP3    H227818  -0.025   4.727  13.635  0.9104  1.2717  0.9457
 2135TIP3   OH227819   5.532   4.355   4.455 -0.0307 -0.5315  0.1089
 2135TIP3    H127820   5.559   4.328   4.543 -0.8229 -0.0132  0.5107
 2135TIP3    H227821   5.436   4.354   4.458 -0.0740  1.3245 -0.1846
 2136TIP3   OH227822   3.256   4.276   1.389  0.3525 -0.1342 -0.0766
 2136TIP3    H127823   3.237   4.185   1.365  0.3561 -0.5675  1.5217
 2136TIP3    H227824   3.245   4.325   1.307 -1.3049 -1.3226 -0.5998
 2137TIP3   OH227825   2.277   2.087   4.326 -0.5245  0.1262  0.3079
 2137TIP3    H127826   2.280   2.182   4.332  0.2710  0.0404  1.2507
 2137TIP3    H227827   2.317   2.067   4.241 -2.0880  0.7084 -0.5793
 2138TIP3   OH227828   2.333   5.478  14.134  0.1363 -0.0835 -1.1444
 2138TIP3    H127829   2.312   5.572  14.135  0.3226 -0.0444 -0.0036
 2138TIP3    H227830   2.264   5.438  14.187  0.7024 -0.4410 -0.6748
 2139TIP3   OH227831   3.854   6.028   2.259  0.1289  0.1800  0.0737
 2139TIP3    H127832   3.880   6.012   2.168  0.0588 -1.3819  0.3198
 2139TIP3    H227833   3.935   6.053   2.304  0.5937 -1.3128  0.0825
 2140TIP3   OH227834   5.697   3.884   4.438 -0.3308  0.1652  0.1795
 2140TIP3    H127835   5.607   3.859   4.415 -0.3183  0.7008 -0.4613
 2140TIP3    H227836   5.688   3.967   4.484 -0.2766 -0.4688  1.3600
 2141TIP3   OH227837   2.732   3.003  15.435  0.5642 -0.1507  0.4965
 2141TIP3    H127838   2.686   2.934  15.388  1.0087 -0.7089  0.8758
 2141TIP3    H227839   2.726   3.080  15.378 -1.1900 -0.1069  0.7331
 2142TIP3   OH227840   1.388   1.265  16.332  0.2938  0.5674 -0.7744
 2142TIP3    H127841   1.462   1.278  16.273 -0.3527  0.5625 -1.5901
 2142TIP3    H227842   1.365   1.352  16.363  1.5056  0.4362  0.5566
 2143TIP3   OH227843   1.304   0.769   0.646 -0.3580 -0.2025  0.9879
 2143TIP3    H127844   1.379   0.784   0.704  0.2241  0.8866 -0.0077
 2143TIP3    H227845   1.314   0.678   0.617  0.3552 -0.1929  1.1933
 2144TIP3   OH227846   2.527   4.434   2.535  0.3892  0.3152 -0.0144
 2144TIP3    H127847   2.451   4.492   2.528  0.1325 -0.1392 -1.1291
 2144TIP3    H227848   2.586   4.464   2.466  0.5801 -0.2750 -0.1072
 2145TIP3   OH227849   5.677   0.540   6.200  0.2247  0.1424 -0.3259
 2145TIP3    H127850   5.592   0.546   6.244  0.0889  1.0834 -0.7038
 2145TIP3    H227851   5.691   0.627   6.164  0.6584 -0.4255 -1.5540
 2146TIP3   OH227852   3.548   5.323   5.891 -0.0113  0.3600 -0.5946
 2146TIP3    H127853   3.536   5.413   5.859 -0.6952  0.8151  0.9139
 2146TIP3    H227854   3.466   5.301   5.934 -0.0654 -1.2319 -1.4837
 2147TIP3   OH227855   5.568   4.644   4.398 -0.3116  0.1833  0.1821
 2147TIP3    H127856   5.597   4.696   4.322 -0.5675 -1.0378 -0.7627
 2147TIP3    H227857   5.551   4.557   4.362 -0.3069 -0.4429  1.6815
 2148TIP3   OH227858   0.154   0.018  16.765  0.9018  0.4913 -0.0750
 2148TIP3    H127859   0.206   0.028  16.685  2.6998 -1.7575  0.7778
 2148TIP3    H227860   0.195   0.076  16.828 -1.5954  3.6462 -1.2083
 2149TIP3   OH227861   4.910   6.036  11.352  0.7717 -0.0979  0.0419
 2149TIP3    H127862   4.820   6.005  11.342  0.5687  0.2461  0.7471
 2149TIP3    H227863   4.954   6.010  11.271 -0.0998  0.1925 -0.5300
 2150TIP3   OH227864   2.057   3.637   4.184 -0.1641  0.3209 -0.3703
 2150TIP3    H127865   2.110   3.576   4.235 -3.5086 -1.5892  0.9209
 2150TIP3    H227866   2.037   3.708   4.245 -1.3252 -0.2894 -0.0332
 2151TIP3   OH227867   3.008   3.472   5.233 -0.1753  0.3915 -0.3684
 2151TIP3    H127868   3.059   3.553   5.222  0.8679 -0.5681 -2.7550
 2151TIP3    H227869   3.026   3.446   5.324  1.5906  1.4316 -0.3806
 2152TIP3   OH227870   5.567   0.706   4.985  1.1509 -0.1711  0.4275
 2152TIP3    H127871   5.476   0.708   4.957  0.5608 -2.4749  2.0036
 2152TIP3    H227872   5.617   0.691   4.905  0.1136  0.5513 -0.3612
 2153TIP3   OH227873   4.672   6.558  14.819  0.0972 -0.3023  0.3688
 2153TIP3    H127874   4.585   6.555  14.860 -1.1645 -0.2197 -2.2091
 2153TIP3    H227875   4.676   6.478  14.767  1.7035 -0.4399  0.6948
 2154TIP3   OH227876   4.843   5.753  14.120  0.1350  0.3568  0.0038
 2154TIP3    H127877   4.897   5.762  14.041 -0.0317 -3.3994 -0.6201
 2154TIP3    H227878   4.781   5.826  14.114  0.8025  0.7816 -2.7949
 2155TIP3   OH227879   5.878   0.692  14.333  0.6024  0.1624 -0.4322
 2155TIP3    H127880   5.934   0.619  14.307  0.4101 -0.1592  0.0435
 2155TIP3    H227881   5.850   0.733  14.251  1.3532  0.1875 -0.6754
 2156TIP3   OH227882   5.684   1.161  14.845  0.9561  0.2068 -0.1672
 2156TIP3    H127883   5.675   1.111  14.764  0.1383 -0.1160  0.1183
 2156TIP3    H227884   5.777   1.157  14.865  0.8956 -1.2648 -0.1155
 2157TIP3   OH227885   0.335   6.416   4.928  0.5085  0.2738 -0.3099
 2157TIP3    H127886   0.270   6.345   4.928  0.0767  0.6613  0.3001
 2157TIP3    H227887   0.412   6.378   4.887  1.0102 -1.2471  1.9812
 2158TIP3   OH227888   0.224   3.908  15.374  0.0768 -0.0692 -0.1497
 2158TIP3    H127889   0.243   3.897  15.280  1.9791 -1.2968  0.3543
 2158TIP3    H227890   0.293   3.965  15.406 -0.4853  0.2305  0.5438
 2159TIP3   OH227891   2.047   4.984  12.316 -0.0030  0.0325 -0.4495
 2159TIP3    H127892   2.095   4.924  12.374 -0.2685 -1.8405 -2.0967
 2159TIP3    H227893   2.039   4.935  12.234 -1.0133  2.0173 -1.5487
 2160TIP3   OH227894   0.599   4.054   2.459  0.0718 -0.4261  0.2946
 2160TIP3    H127895   0.528   4.004   2.418  0.7161 -0.8089 -0.3790
 2160TIP3    H227896   0.564   4.081   2.544 -1.0787 -0.1383 -0.2507
 2161TIP3   OH227897   4.522   1.577   1.842 -0.0901  0.8184 -0.3024
 2161TIP3    H127898   4.611   1.566   1.876  0.3691  0.5718 -1.5727
 2161TIP3    H227899   4.484   1.646   1.897  0.8922  0.9453  0.2283
 2162TIP3   OH227900   0.339   5.895  15.352 -0.2061 -0.5955  0.2670
 2162TIP3    H127901   0.421   5.907  15.306 -0.2681  2.4978  0.8658
 2162TIP3    H227902   0.272   5.900  15.284 -0.0430 -0.6316  0.1022
 2163TIP3   OH227903   4.162   0.673   5.702  0.1309  0.1876 -0.3922
 2163TIP3    H127904   4.095   0.608   5.722  0.3706  0.2529  0.6305
 2163TIP3    H227905   4.152   0.741   5.769  1.9430 -0.3535  0.4688
 2164TIP3   OH227906   5.541   3.523  14.909  0.6023 -0.5726  0.1810
 2164TIP3    H127907   5.449   3.524  14.881  0.7924  1.9601 -0.4517
 2164TIP3    H227908   5.538   3.551  15.000  0.8103  0.2783 -0.0716
 2165TIP3   OH227909   6.531   0.188  14.141 -0.0949  0.1125  0.0557
 2165TIP3    H127910   6.562   0.123  14.078 -0.3125 -0.2757  0.3572
 2165TIP3    H227911   6.572   0.270  14.111 -1.2795  0.2010 -1.3936
 2166TIP3   OH227912   0.960   2.812   4.436 -0.1243 -0.2917  0.0590
 2166TIP3    H127913   1.009   2.828   4.356  1.4602 -0.9720  0.8656
 2166TIP3    H227914   0.975   2.719   4.456 -1.9400 -0.5864  0.2058
 2167TIP3   OH227915   0.323   6.719   3.409 -0.3330  0.1411  0.3384
 2167TIP3    H127916   0.400   6.715   3.352 -0.5752  0.6686 -0.0308
 2167TIP3    H227917   0.292   6.628   3.415 -0.4983  0.1310 -0.6378
 2168TIP3   OH227918   2.644   2.935  15.707 -0.2194 -0.4781 -0.1680
 2168TIP3    H127919   2.680   2.974  15.627  0.1910 -0.4209  0.0432
 2168TIP3    H227920   2.665   2.842  15.700  0.5770 -0.3340  0.2795
 2169TIP3   OH227921   1.673   5.940  10.860 -0.3382 -0.0661  0.1002
 2169TIP3    H127922   1.582   5.935  10.890 -0.2595 -0.3098  0.3040
 2169TIP3    H227923   1.692   6.034  10.859  0.3413 -0.1216  2.9608
 2170TIP3   OH227924   2.570   5.879   1.278  0.2437 -0.4947 -0.1157
 2170TIP3    H127925   2.588   5.793   1.240  0.2152 -0.7545  0.4642
 2170TIP3    H227926   2.525   5.861   1.360 -1.3839  0.1286 -0.8604
 2171TIP3   OH227927   6.481   6.662  10.578 -0.2610 -0.6885  0.1720
 2171TIP3    H127928   6.476   6.567  10.569  1.8499 -0.7375 -0.8452
 2171TIP3    H227929   6.449   6.695  10.494 -0.6976 -0.5077  0.4108
 2172TIP3   OH227930   1.033   4.857   1.890 -0.1997  0.5305 -0.6056
 2172TIP3    H127931   0.953   4.886   1.846 -1.4715 -1.1797  0.5358
 2172TIP3    H227932   1.003   4.805   1.964  1.9737 -0.7685 -0.5774
 2173TIP3   OH227933   4.648   0.587  15.329 -0.2135 -0.5158  0.4481
 2173TIP3    H127934   4.682   0.566  15.416  0.9140  3.5008  1.1007
 2173TIP3    H227935   4.724   0.584  15.272 -0.0158  1.6216  0.5679
 2174TIP3   OH227936   1.029   4.582   2.247 -0.2479  0.4484  0.3617
 2174TIP3    H127937   0.939   4.596   2.275 -0.0871  0.5454  0.8352
 2174TIP3    H227938   1.024   4.576   2.152 -0.9970 -1.4515  0.5158
 2175TIP3   OH227939   5.571   2.522  11.349  0.4339 -0.3615 -0.5412
 2175TIP3    H127940   5.557   2.556  11.261 -0.2063  2.3025  0.5338
 2175TIP3    H227941   5.519   2.442  11.352 -0.3065  0.0287 -2.2763
 2176TIP3   OH227942   0.368   4.938   5.755 -0.3136 -0.3010  0.5797
 2176TIP3    H127943   0.399   5.014   5.705 -0.5556  0.2142  1.2035
 2176TIP3    H227944   0.275   4.930   5.732 -0.1931 -0.6570  0.2071
 2177TIP3   OH227945   5.891   5.989   1.055 -0.3055 -0.0616 -0.3959
 2177TIP3    H127946   5.872   6.065   1.000  0.2403 -0.1530 -0.7140
 2177TIP3    H227947   5.909   5.918   0.993  0.1999 -0.1945 -0.1008
 2178TIP3   OH227948   0.594   4.721  12.917  0.0758 -0.9355 -0.3190
 2178TIP3    H127949   0.664   4.740  12.980  0.4114 -1.0468 -0.6577
 2178TIP3    H227950   0.617   4.636  12.880 -0.1016 -0.8541 -0.6167
 2179TIP3   OH227951   0.050   4.686   3.365  0.0720 -0.2335  0.5307
 2179TIP3    H127952   0.004   4.718   3.288 -0.1013  0.3408  0.8743
 2179TIP3    H227953   0.001   4.721   3.440  1.3429  0.8017  0.8932
 2180TIP3   OH227954   4.396   5.681  16.295  0.5602 -0.2341 -0.4130
 2180TIP3    H127955   4.442   5.750  16.342 -0.1808  0.1643 -0.2658
 2180TIP3    H227956   4.367   5.722  16.214 -1.3449  0.1138  0.4248
 2181TIP3   OH227957   0.866   3.111   5.830 -0.0190 -0.5847  0.5105
 2181TIP3    H127958   0.940   3.118   5.890  0.5181  0.4595 -0.2594
 2181TIP3    H227959   0.878   3.183   5.769 -1.0329 -1.1184 -0.3320
 2182TIP3   OH227960   0.689   3.770  15.197 -0.1120 -0.0005  0.1489
 2182TIP3    H127961   0.770   3.810  15.228 -0.1107 -1.2194  1.7598
 2182TIP3    H227962   0.622   3.838  15.209  0.6213  0.9408 -1.0064
 2183TIP3   OH227963   6.257   2.853   2.379 -0.8379  0.1258  0.0575
 2183TIP3    H127964   6.173   2.821   2.347 -0.3369 -1.4194  0.2624
 2183TIP3    H227965   6.283   2.790   2.446  0.5692  0.4942 -0.1255
 2184TIP3   OH227966   0.919   2.332  15.708  0.3917  0.4923 -0.3977
 2184TIP3    H127967   0.837   2.375  15.731  0.4198  0.2464  0.1739
 2184TIP3    H227968   0.894   2.243  15.686  0.2327  1.0107 -2.3678
 2185TIP3   OH227969   3.012   1.623   3.607 -0.4855  0.1867  0.5153
 2185TIP3    H127970   2.998   1.678   3.684  3.8741  0.4849  1.2174
 2185TIP3    H227971   3.003   1.683   3.533 -3.0719  0.2250  0.7995
 2186TIP3   OH227972   3.792   3.831   2.929  0.2219 -0.3380 -0.4757
 2186TIP3    H127973   3.741   3.763   2.972  0.5237 -0.6059 -0.5446
 2186TIP3    H227974   3.732   3.868   2.864  0.0819 -0.5774 -0.4825
 2187TIP3   OH227975   0.171   3.609   3.390  0.1123 -0.3596 -0.1915
 2187TIP3    H127976   0.113   3.570   3.325 -0.3890  2.0460 -1.2489
 2187TIP3    H227977   0.225   3.671   3.341 -1.0368  2.3393  1.7562
 2188TIP3   OH227978   6.001   3.697   4.057 -0.4451 -0.1364 -0.3596
 2188TIP3    H127979   5.987   3.703   3.962 -3.1443 -2.8354 -0.2102
 2188TIP3    H227980   5.997   3.603   4.076 -1.7898  0.4747  2.6727
 2189TIP3   OH227981   6.364   4.494   5.873  0.1927  0.2967 -0.1917
 2189TIP3    H127982   6.349   4.465   5.963 -2.8472  0.6628 -0.5364
 2189TIP3    H227983   6.375   4.589   5.880 -3.1621  0.7716 -0.4735
 2190TIP3   OH227984   0.642   6.429  17.170  0.1342  0.4414  0.1422
 2190TIP3    H127985   0.550   6.403  17.165  0.2125  0.1532  0.2051
 2190TIP3    H227986   0.645   6.491  17.243 -0.1469  1.0362 -0.3483
 2191TIP3   OH227987   3.052   5.401   2.596 -0.5624 -0.2336 -0.5854
 2191TIP3    H127988   3.052   5.394   2.501  0.8054  0.3530 -0.6351
 2191TIP3    H227989   3.055   5.311   2.627  1.2972 -0.3754 -1.1209
 2192TIP3   OH227990   2.210   2.275   2.467  0.2500  0.2039 -0.0773
 2192TIP3    H127991   2.276   2.341   2.448  0.2772  0.0717 -0.4624
 2192TIP3    H227992   2.258   2.193   2.472  0.0759  0.0599 -0.6910
 2193TIP3   OH227993   4.395   3.175   3.460  0.1211 -0.2080  0.0594
 2193TIP3    H127994   4.336   3.112   3.501  1.4394 -2.2453 -1.0296
 2193TIP3    H227995   4.422   3.132   3.378 -0.4264  2.6112 -1.6638
 2194TIP3   OH227996   1.226   1.530   5.756  0.2419 -0.0166 -0.1619
 2194TIP3    H127997   1.147   1.541   5.809 -0.7486 -0.6373 -1.4818
 2194TIP3    H227998   1.291   1.496   5.817  0.5132  3.5803  1.7441
 2195TIP3   OH227999   2.754   0.151  11.700  0.8792  0.6628 -0.5698
 2195TIP3    H128000   2.800   0.136  11.783  0.6092  2.6945 -0.0096
 2195TIP3    H228001   2.713   0.237  11.711 -4.2262 -1.5775 -0.5484
 2196TIP3   OH228002   0.269   2.458  11.774 -0.6871  0.3716 -0.2225
 2196TIP3    H128003   0.219   2.526  11.818 -0.9012 -0.9659  1.6481
 2196TIP3    H228004   0.206   2.387  11.760  0.2042 -0.5510  0.3761
 2197TIP3   OH228005   5.454   2.887  13.882  0.8728 -0.0147  0.6695
 2197TIP3    H128006   5.429   2.835  13.806  0.7358  0.2237  0.5523
 2197TIP3    H228007   5.513   2.830  13.932  0.1012 -0.5802  0.9523
 2198TIP3   OH228008   1.844   3.499  13.073 -0.3927  0.0436 -0.3469
 2198TIP3    H128009   1.901   3.574  13.054  0.3311 -0.5152 -0.4310
 2198TIP3    H228010   1.878   3.429  13.017 -1.3610 -0.2111 -0.6135
 2199TIP3   OH228011   0.460   4.892  15.172 -0.7967  0.4682  0.3281
 2199TIP3    H128012   0.419   4.898  15.085 -2.0492  0.7710  0.9304
 2199TIP3    H228013   0.404   4.831  15.220 -0.5742  0.9386  1.1871
 2200TIP3   OH228014   3.005   5.544   4.554 -0.0642  0.4010 -0.3186
 2200TIP3    H128015   3.033   5.633   4.535 -0.4219  1.0106  1.8628
 2200TIP3    H228016   2.914   5.540   4.524  0.0854  0.6442 -0.7988
 2201TIP3   OH228017   0.972   2.688  16.022  0.1955 -0.2660 -0.1088
 2201TIP3    H128018   0.907   2.622  16.046 -0.0836  0.9111  2.5509
 2201TIP3    H228019   0.919   2.764  15.996  0.5301 -0.3709 -1.1446
 2202TIP3   OH228020   1.329   5.740   4.493  0.6588  0.0119  0.2509
 2202TIP3    H128021   1.370   5.704   4.571  0.5678 -0.7841 -0.0702
 2202TIP3    H228022   1.324   5.834   4.511  1.6508 -0.0129  0.7396
 2203TIP3   OH228023   0.316   6.524   6.431 -0.0318  0.5279 -0.0394
 2203TIP3    H128024   0.311   6.444   6.483  3.1561 -0.3339 -0.9754
 2203TIP3    H228025   0.348   6.590   6.493  0.9253  0.1873 -0.1586
 2204TIP3   OH228026   2.781   3.368  16.696 -0.3226  0.0297 -0.1506
 2204TIP3    H128027   2.791   3.281  16.734 -1.6220  0.3082  0.8631
 2204TIP3    H228028   2.687   3.379  16.686 -0.1391  1.1248 -0.7171
 2205TIP3   OH228029   4.987   1.782  12.473 -0.6362  0.1247 -0.2103
 2205TIP3    H128030   5.043   1.833  12.414  0.0174 -1.5725 -1.1020
 2205TIP3    H228031   4.903   1.777  12.428 -0.9182  1.0155  0.2135
 2206TIP3   OH228032   4.822   1.221  10.427  0.0442 -0.3517  0.8853
 2206TIP3    H128033   4.849   1.226  10.519 -1.3344 -0.4443  1.3031
 2206TIP3    H228034   4.854   1.136  10.398  1.0672 -0.0480  1.0825
 2207TIP3   OH228035   3.179   0.920  12.533 -0.0039  0.0837  0.0737
 2207TIP3    H128036   3.112   0.980  12.501 -1.1657 -2.1783 -1.8663
 2207TIP3    H228037   3.260   0.971  12.531 -1.1770  1.9786 -0.2090
 2208TIP3   OH228038   3.348   3.913   0.500  0.0665 -0.1126  0.7722
 2208TIP3    H128039   3.334   4.001   0.536 -0.2673 -0.4274  1.4271
 2208TIP3    H228040   3.360   3.857   0.577 -0.4033 -0.7556  0.3874
 2209TIP3   OH228041   3.916   2.010   1.946  0.0493 -0.4997  0.0802
 2209TIP3    H128042   3.860   2.078   1.982  2.1447  1.2777  0.0643
 2209TIP3    H228043   3.866   1.974   1.872 -0.8833  1.3238 -0.1969
 2210TIP3   OH228044   5.993   5.241   3.886  0.5664  0.3663  0.3192
 2210TIP3    H128045   6.006   5.335   3.894  1.0472  0.2768  0.6286
 2210TIP3    H228046   5.907   5.231   3.846  1.3216  0.9739 -1.4950
 2211TIP3   OH228047   1.902   1.702  13.909 -0.0289  0.3235 -0.2806
 2211TIP3    H128048   1.860   1.646  13.843  1.7026 -0.7892 -0.4870
 2211TIP3    H228049   1.875   1.666  13.993  2.1741 -1.7111 -0.4137
 2212TIP3   OH228050   4.797   6.142   0.953 -0.5683 -0.4091  0.5410
 2212TIP3    H128051   4.832   6.103   0.873 -0.3590  0.2995  0.2841
 2212TIP3    H228052   4.811   6.075   1.020  1.3509 -0.1276  0.4541
 2213TIP3   OH228053   0.372   5.783  13.644  0.3770  0.4941 -0.2381
 2213TIP3    H128054   0.367   5.878  13.654  1.6050  0.3397  2.2183
 2213TIP3    H228055   0.305   5.749  13.703  1.3176 -0.2000  0.4537
 2214TIP3   OH228056   5.399   6.297  15.585 -0.0597  0.0657 -0.0049
 2214TIP3    H128057   5.458   6.356  15.539  0.6381 -0.4212  0.2681
 2214TIP3    H228058   5.444   6.212  15.585 -0.4044 -0.1217  0.8860
 2215TIP3   OH228059   2.864   6.008  14.805 -0.2946 -0.0562  0.0339
 2215TIP3    H128060   2.953   6.035  14.782 -0.2714  1.4496  1.7207
 2215TIP3    H228061   2.867   5.912  14.806  0.6873 -0.0552 -2.1959
 2216TIP3   OH228062   5.416   4.237  13.266 -0.2126 -0.6188 -0.8654
 2216TIP3    H128063   5.412   4.203  13.356  0.5062 -1.9791 -1.3225
 2216TIP3    H228064   5.486   4.186  13.225  0.7565  1.3163 -1.6653
 2217TIP3   OH228065   4.735   0.694   2.594 -0.3832 -0.3250 -0.5065
 2217TIP3    H128066   4.733   0.771   2.537  0.7969 -1.2117 -1.7931
 2217TIP3    H228067   4.795   0.719   2.665 -1.1260  0.4456 -0.1366
 2218TIP3   OH228068   0.547   6.180   1.910  0.2970  0.0075  0.2768
 2218TIP3    H128069   0.478   6.131   1.956 -1.4680  1.0223 -1.2486
 2218TIP3    H228070   0.578   6.119   1.843  0.0301 -0.0167  0.1741
 2219TIP3   OH228071   2.028   5.049  15.874  0.1135  0.0751 -0.5949
 2219TIP3    H128072   2.085   4.978  15.903  1.0363  0.8458 -0.5183
 2219TIP3    H228073   1.942   5.007  15.864  0.4501 -0.8528  0.2945
 2220TIP3   OH228074   4.685   0.737  10.749  0.3347  0.4570 -0.7783
 2220TIP3    H128075   4.665   0.799  10.820 -0.0433 -1.0723  0.4850
 2220TIP3    H228076   4.732   0.789  10.685  0.8555  1.8462  0.6880
 2221TIP3   OH228077   3.760   1.906  11.950  0.4308 -0.3749  0.2991
 2221TIP3    H128078   3.821   1.964  11.996 -0.1267  0.0064  0.5628
 2221TIP3    H228079   3.768   1.930  11.858 -0.5360  0.8208  0.5165
 2222TIP3   OH228080   2.726   4.494  14.113  0.2950  0.1063  0.6303
 2222TIP3    H128081   2.821   4.500  14.117  0.2111  0.7711  1.8097
 2222TIP3    H228082   2.701   4.555  14.043  0.7241  0.0867  0.4593
 2223TIP3   OH228083   2.477   1.371   1.653 -0.0024  0.0491 -0.4066
 2223TIP3    H128084   2.416   1.303   1.681  1.0575 -0.3273  1.0007
 2223TIP3    H228085   2.485   1.429   1.729  1.2320  0.2195 -0.6627
 2224TIP3   OH228086   5.248   4.172   1.632 -0.4281 -0.2185 -0.0254
 2224TIP3    H128087   5.198   4.254   1.627 -0.9631 -0.5833 -0.7239
 2224TIP3    H228088   5.276   4.167   1.724  0.6526  1.3581 -0.2489
 2225TIP3   OH228089   0.154   6.501  16.892  0.3687  0.0355  0.0694
 2225TIP3    H128090   0.088   6.570  16.893  2.3911  2.0567 -0.5868
 2225TIP3    H228091   0.132   6.447  16.817 -0.9016  0.3267  0.2265
 2226TIP3   OH228092   2.809   5.722  14.778 -0.1453 -0.1998  0.0961
 2226TIP3    H128093   2.775   5.690  14.861 -1.2707  0.9530  0.0931
 2226TIP3    H228094   2.742   5.700  14.714  0.5950 -0.8363 -0.4674
 2227TIP3   OH228095   5.260   6.409  16.824  0.0153  0.3748 -0.1535
 2227TIP3    H128096   5.167   6.388  16.836 -0.1376  1.1007 -0.0250
 2227TIP3    H228097   5.307   6.332  16.857 -0.5379  0.0273 -0.1691
 2228TIP3   OH228098   3.770   6.075  15.075  0.5310 -0.2803  0.3065
 2228TIP3    H128099   3.813   6.040  14.997  1.1461  0.1968  0.4259
 2228TIP3    H228100   3.715   6.004  15.106 -0.5814 -0.0954 -1.2134
 2229TIP3   OH228101   4.767   1.499  12.452 -0.2070  0.2619  0.1645
 2229TIP3    H128102   4.754   1.573  12.510 -0.7769  0.6836 -0.4903
 2229TIP3    H228103   4.750   1.422  12.507 -0.5720  0.6497  0.6006
 2230TIP3   OH228104   2.846   3.171   5.366 -0.2627  0.4328 -0.1262
 2230TIP3    H128105   2.760   3.186   5.328 -0.1234  0.4243 -0.4496
 2230TIP3    H228106   2.830   3.160   5.460 -0.3969  2.5315  0.1266
 2231TIP3   OH228107   5.631   0.626  15.637 -0.1397 -0.2384  0.4170
 2231TIP3    H128108   5.570   0.653  15.706  0.8948 -0.3331  1.3882
 2231TIP3    H228109   5.583   0.639  15.556 -0.5419  2.1699  1.0103
 2232TIP3   OH228110   6.137   5.398  14.056  0.6113 -0.2254 -0.4533
 2232TIP3    H128111   6.049   5.436  14.057 -0.2255 -2.0959 -0.1073
 2232TIP3    H228112   6.174   5.422  13.971 -1.0288 -1.1547 -1.4522
 2233TIP3   OH228113   0.763   4.407   6.185 -0.9177 -0.2917 -0.3108
 2233TIP3    H128114   0.829   4.348   6.149 -0.9871 -0.4302 -0.2153
 2233TIP3    H228115   0.683   4.353   6.190 -0.8703 -0.3214  0.1901
 2234TIP3   OH228116   6.708   0.390   0.471 -0.6919 -0.3671 -0.0527
 2234TIP3    H128117   6.655   0.442   0.410 -0.2942  0.7135  0.5021
 2234TIP3    H228118   6.796   0.392   0.433 -0.2511  1.0533  0.9875
 2235TIP3   OH228119   0.431   4.631  13.924  0.3158  0.0723  0.0454
 2235TIP3    H128120   0.477   4.703  13.967 -0.7346  1.6854 -1.4692
 2235TIP3    H228121   0.341   4.637  13.957 -0.0864  0.2638 -1.0742
 2236TIP3   OH228122   3.422   1.547  13.855 -0.5396 -0.6542 -0.1494
 2236TIP3    H128123   3.361   1.497  13.801 -0.5658 -1.1240  0.3142
 2236TIP3    H228124   3.501   1.493  13.859 -0.4583 -0.5191  0.0975
 2237TIP3   OH228125   0.822   5.434   1.292  0.5586  0.2657 -0.0838
 2237TIP3    H128126   0.882   5.362   1.273  2.1847  0.9106  2.2871
 2237TIP3    H228127   0.745   5.391   1.329  0.9226 -0.3692 -0.0438
 2238TIP3   OH228128   1.538   3.396  13.674  0.2080 -0.5522  0.3960
 2238TIP3    H128129   1.560   3.340  13.749  1.1322 -1.8421 -0.8156
 2238TIP3    H228130   1.620   3.441  13.653 -0.4775  1.0961  1.2173
 2239TIP3   OH228131   1.272   0.925   1.418 -0.2902  0.1024  0.1837
 2239TIP3    H128132   1.351   0.944   1.467  1.9068 -2.0039 -2.3606
 2239TIP3    H228133   1.273   0.986   1.344 -0.6295 -0.4360 -0.2771
 2240TIP3   OH228134   0.213   4.747  15.330 -0.1936 -0.2035 -0.3146
 2240TIP3    H128135   0.185   4.828  15.373 -0.9872 -0.3131 -0.6163
 2240TIP3    H228136   0.146   4.683  15.352 -0.5907 -0.2764 -1.6614
 2241TIP3   OH228137   1.402   1.439  13.813  0.0416  0.4656  0.5702
 2241TIP3    H128138   1.436   1.350  13.826 -1.8017 -0.0817  1.9136
 2241TIP3    H228139   1.431   1.463  13.725  0.0385 -1.7155 -0.0656
 2242TIP3   OH228140   5.689   1.904  14.946  0.0359 -0.2284  0.3038
 2242TIP3    H128141   5.643   1.827  14.913 -1.9841  0.5055  1.3399
 2242TIP3    H228142   5.775   1.871  14.974 -0.0587 -1.7231 -1.0836
 2243TIP3   OH228143   3.052   0.810   0.370 -0.1164  0.2168  0.5452
 2243TIP3    H128144   2.967   0.845   0.397 -1.0848 -1.6653 -0.0436
 2243TIP3    H228145   3.032   0.747   0.301  1.6886 -0.9494  1.0653
 2244TIP3   OH228146   1.931   3.203   2.579 -0.3197 -0.1362  0.5082
 2244TIP3    H128147   1.922   3.175   2.488  0.1670  0.3826  0.2983
 2244TIP3    H228148   1.893   3.132   2.630  0.1998 -0.8238 -0.0626
 2245TIP3   OH228149   3.297   6.069  13.817 -0.6909  0.2221  0.5655
 2245TIP3    H128150   3.314   5.978  13.840  0.9962  0.2461 -0.5046
 2245TIP3    H228151   3.272   6.110  13.900  1.6110 -0.5195  1.6769
 2246TIP3   OH228152   4.859   0.563  13.937 -0.4545  0.2169 -0.5244
 2246TIP3    H128153   4.917   0.563  13.861  1.0515 -1.2890  0.5846
 2246TIP3    H228154   4.904   0.619  14.001 -1.6319  1.3496 -0.6662
 2247TIP3   OH228155   4.844   5.502   3.039  0.2441  0.5198 -0.2081
 2247TIP3    H128156   4.909   5.456   3.091 -2.2495 -1.6825  1.0661
 2247TIP3    H228157   4.810   5.570   3.098  0.9678  1.3134 -0.6899
 2248TIP3   OH228158   0.788   6.302   4.221 -0.0877 -0.7886 -0.5361
 2248TIP3    H128159   0.732   6.252   4.280 -1.8876  1.2277 -0.4970
 2248TIP3    H228160   0.807   6.242   4.149 -0.7682 -2.0988  0.3555
 2249TIP3   OH228161   1.474   2.866  15.062 -0.0361 -0.1915 -0.0005
 2249TIP3    H128162   1.474   2.776  15.030  2.4938 -0.4772  0.6858
 2249TIP3    H228163   1.402   2.869  15.126 -1.3318 -1.1804 -1.3733
 2250TIP3   OH228164   1.994   5.887   3.376 -0.4377 -0.6615 -0.3910
 2250TIP3    H128165   2.069   5.911   3.430 -0.1712  1.3352 -1.6008
 2250TIP3    H228166   1.974   5.797   3.401  1.2401 -0.6069  1.2183
 2251TIP3   OH228167   1.432   3.519  13.257  0.3340  0.1943  0.6175
 2251TIP3    H128168   1.514   3.566  13.252  0.1051  0.3824 -1.9225
 2251TIP3    H228169   1.400   3.515  13.167 -1.0996 -2.2426  1.1591
 2252TIP3   OH228170   4.899   6.082   6.407 -0.7905 -0.2266 -0.5343
 2252TIP3    H128171   4.981   6.091   6.358  0.0485  0.4013  0.9305
 2252TIP3    H228172   4.893   5.989   6.428  0.3386 -0.0592  0.6289
 2253TIP3   OH228173   2.670   3.789  16.170 -0.0911 -0.6425 -0.0303
 2253TIP3    H128174   2.638   3.725  16.233  1.6669 -0.7638  0.7772
 2253TIP3    H228175   2.602   3.856  16.167 -0.3264 -0.7640  1.8173
 2254TIP3   OH228176   1.183   6.236   2.962  0.3846  0.4150 -0.5371
 2254TIP3    H128177   1.186   6.320   2.916  1.1532  0.2203 -0.8505
 2254TIP3    H228178   1.124   6.251   3.036  2.2202  1.8739  0.6615
 2255TIP3   OH228179   2.274   1.295   5.599  0.4823  0.1959 -0.0385
 2255TIP3    H128180   2.225   1.350   5.661  0.3658 -2.0733  1.9213
 2255TIP3    H228181   2.346   1.259   5.650  1.8123  0.2093 -1.8682
 2256TIP3   OH228182   2.895   3.250  11.661  0.1469  0.6791 -0.3602
 2256TIP3    H128183   2.982   3.271  11.694 -0.0878 -1.0548  1.4956
 2256TIP3    H228184   2.894   3.283  11.571  2.2697  1.8361  0.0218
 2257TIP3   OH228185   3.072   5.313   5.861 -0.0156  0.1408  0.2637
 2257TIP3    H128186   3.094   5.290   5.771 -1.6273  1.6488 -0.5597
 2257TIP3    H228187   3.038   5.403   5.855 -1.1777 -0.1265  2.2043
 2258TIP3   OH228188   3.516   0.649  11.966 -0.0168  0.5886 -0.4610
 2258TIP3    H128189   3.457   0.699  12.023 -0.3461 -1.0100  0.6116
 2258TIP3    H228190   3.590   0.626  12.022 -0.1356 -0.6227 -0.7967
 2259TIP3   OH228191   1.567   5.022   0.692  0.0512  0.2918 -0.3577
 2259TIP3    H128192   1.479   5.021   0.656  0.3900  1.4689 -1.2237
 2259TIP3    H228193   1.587   4.929   0.709 -0.2238 -0.2610 -2.9355
 2260TIP3   OH228194   5.273   6.254  10.805  0.8015 -0.6151 -0.1672
 2260TIP3    H128195   5.250   6.297  10.888  0.6089  0.1995 -0.6467
 2260TIP3    H228196   5.367   6.238  10.812  1.0053  0.5281 -0.2914
 2261TIP3   OH228197   0.454   1.929  15.875 -0.0807  0.1993 -0.0452
 2261TIP3    H128198   0.469   1.864  15.807 -2.0285 -1.9861  1.5438
 2261TIP3    H228199   0.522   1.912  15.940 -0.3507 -0.0064  0.1859
 2262TIP3   OH228200   3.763   3.578  14.405 -0.3295  0.4050  0.4999
 2262TIP3    H128201   3.784   3.485  14.416 -3.2247 -0.2802  0.5732
 2262TIP3    H228202   3.798   3.620  14.483  1.5178 -0.5086  0.1988
 2263TIP3   OH228203   4.690   2.889   2.755 -0.7244 -0.3188  0.0019
 2263TIP3    H128204   4.663   2.893   2.847  1.0678 -0.7943  0.5800
 2263TIP3    H228205   4.643   2.815   2.719 -2.1206  0.4033  0.2919
 2264TIP3   OH228206   0.904   2.941   0.809 -0.3673  0.6186 -0.3148
 2264TIP3    H128207   0.914   2.936   0.904  2.7357 -0.0516 -0.6187
 2264TIP3    H228208   0.890   2.851   0.781 -1.4603  0.8371 -0.4889
 2265TIP3   OH228209   6.692   6.522  14.111 -0.3872  0.5721 -0.0316
 2265TIP3    H128210   6.777   6.557  14.138  0.3098 -0.6262 -0.6438
 2265TIP3    H228211   6.702   6.500  14.019 -1.9537  2.1427 -0.6178
 2266TIP3   OH228212   1.355   2.840  16.560  0.4646 -0.2906 -0.3410
 2266TIP3    H128213   1.366   2.904  16.490  1.9206 -1.2335 -0.9960
 2266TIP3    H228214   1.414   2.869  16.630 -0.6177  0.3716  0.3156
 2267TIP3   OH228215   4.381   3.966   2.345 -0.2737 -0.2108 -0.7185
 2267TIP3    H128216   4.444   3.931   2.408 -3.2606  2.2845  3.9284
 2267TIP3    H228217   4.322   3.893   2.325  0.7327 -1.0255 -0.7556
 2268TIP3   OH228218   5.729   2.192  10.795 -0.1020  0.6771  0.8465
 2268TIP3    H128219   5.785   2.120  10.767  0.0816  1.2163 -0.2276
 2268TIP3    H228220   5.779   2.237  10.863  0.7694  1.1369 -0.0827
 2269TIP3   OH228221   6.768   2.002   4.103  0.2192 -0.6469 -0.1777
 2269TIP3    H128222   6.830   2.056   4.054 -1.0891  0.3162 -0.8134
 2269TIP3    H228223   6.747   2.054   4.180 -0.0923 -0.7907 -0.1658
 2270TIP3   OH228224   5.027   0.940  16.683  0.5951 -0.0525 -0.5058
 2270TIP3    H128225   5.034   0.990  16.764 -1.4922 -2.6441  1.3413
 2270TIP3    H228226   5.105   0.884  16.683  0.3208 -0.4390 -0.0049
 2271TIP3   OH228227   4.686   1.040   2.850  0.1194 -0.1662 -0.1945
 2271TIP3    H128228   4.685   0.945   2.837 -1.2476 -0.2288  0.2488
 2271TIP3    H228229   4.777   1.065   2.835 -0.0176 -1.1501 -3.1381
 2272TIP3   OH228230   1.646   2.226   0.335  0.3142  0.4431 -0.1931
 2272TIP3    H128231   1.666   2.318   0.320  0.3651  0.8411  2.1038
 2272TIP3    H228232   1.674   2.182   0.254  0.6827  2.3641 -1.1472
 2273TIP3   OH228233   6.011   1.856  14.679  0.5290 -0.7941 -0.5308
 2273TIP3    H128234   6.057   1.939  14.689  1.6050 -1.3088 -1.0257
 2273TIP3    H228235   5.939   1.875  14.619  1.3931 -0.4369 -1.4731
 2274TIP3   OH228236   3.205   1.008  12.945  0.1507  0.0939 -0.5075
 2274TIP3    H128237   3.209   0.987  13.038 -0.5052  0.8810 -0.2972
 2274TIP3    H228238   3.229   0.927  12.901 -0.5887 -0.5899  0.3284
 2275TIP3   OH228239   5.007   6.645  15.090 -0.0885  0.0574 -0.0993
 2275TIP3    H128240   5.055   6.709  15.143 -0.9546  0.2953  0.4046
 2275TIP3    H228241   5.034   6.560  15.125  1.8689  0.0804 -1.4535
 2276TIP3   OH228242   1.520   2.762  11.964  0.3895 -0.7106  0.2739
 2276TIP3    H128243   1.569   2.685  11.938 -0.5176 -1.4481  0.7216
 2276TIP3    H228244   1.509   2.813  11.884  1.7266 -0.6221  0.1455
 2277TIP3   OH228245   4.514   1.564  12.383  0.1239 -0.1202  0.0913
 2277TIP3    H128246   4.601   1.524  12.372  0.2467  0.2266 -0.2035
 2277TIP3    H228247   4.471   1.510  12.449  0.1352 -1.0004 -0.6097
 2278TIP3   OH228248   6.397   0.769  12.286  0.1329  0.2952  0.2898
 2278TIP3    H128249   6.376   0.736  12.373 -0.8441 -0.3170 -0.1664
 2278TIP3    H228250   6.313   0.775  12.241  0.7424 -0.5385 -1.0042
 2279TIP3   OH228251   0.058   6.097   5.752 -0.2430 -0.5597  0.4438
 2279TIP3    H128252   0.038   6.003   5.748  1.0556 -0.9000  1.5602
 2279TIP3    H228253   0.037   6.122   5.841 -2.8767  0.7841 -0.4990
 2280TIP3   OH228254   0.851   0.325   5.366 -0.0258 -0.0289  0.1698
 2280TIP3    H128255   0.916   0.329   5.436  2.0085 -0.0376 -1.6629
 2280TIP3    H228256   0.806   0.242   5.379  0.6723 -0.2548  1.1820
 2281TIP3   OH228257   1.398   0.253   4.826  0.2715  0.0361 -0.1476
 2281TIP3    H128258   1.356   0.167   4.828  0.8031 -0.2194  0.2716
 2281TIP3    H228259   1.325   0.315   4.827 -0.1047 -0.3945  0.9844
 2282TIP3   OH228260   6.497   5.546  11.347  0.5595  0.3069 -0.0826
 2282TIP3    H128261   6.442   5.602  11.402 -1.2738  0.1888 -1.7523
 2282TIP3    H228262   6.576   5.599  11.331 -0.0497  1.3927  0.4456
 2283TIP3   OH228263   4.710   0.358  11.770 -0.1269 -0.0956 -0.2429
 2283TIP3    H128264   4.728   0.335  11.861  0.9237 -0.1332 -0.4522
 2283TIP3    H228265   4.671   0.445  11.774  1.4203  0.6110  0.1516
 2284TIP3   OH228266   2.253   4.730   0.201 -0.2490 -0.3174  0.6504
 2284TIP3    H128267   2.157   4.721   0.200 -0.3701  0.8916 -1.7365
 2284TIP3    H228268   2.278   4.731   0.109  1.5930  3.8992  1.0540
 2285TIP3   OH228269   5.314   4.124  12.446 -0.5167  0.2449  0.1137
 2285TIP3    H128270   5.235   4.076  12.470  0.5209 -1.1502  0.8296
 2285TIP3    H228271   5.330   4.101  12.354  0.0820 -0.9530  0.5102
 2286TIP3   OH228272   2.588   1.865   1.518 -0.0855 -0.0988  0.1570
 2286TIP3    H128273   2.542   1.933   1.468  0.2130  0.5192  0.7213
 2286TIP3    H228274   2.666   1.846   1.465  0.4365  0.8435  0.5811
 2287TIP3   OH228275   6.191   5.491  12.297  0.0862 -0.5764 -0.0230
 2287TIP3    H128276   6.241   5.423  12.342 -0.8406 -1.6542 -0.5707
 2287TIP3    H228277   6.214   5.479  12.204  0.9568  0.7472  0.0139
 2288TIP3   OH228278   5.912   5.335   4.972 -0.5916  0.2626  0.0563
 2288TIP3    H128279   5.959   5.418   4.978 -0.9852  0.4967 -0.0689
 2288TIP3    H228280   5.820   5.360   4.962 -0.6143 -0.1851 -0.8989
 2289TIP3   OH228281   0.845   4.720  15.550 -0.1940  0.3902  0.7241
 2289TIP3    H128282   0.885   4.633  15.543  1.7549  1.2670  0.4352
 2289TIP3    H228283   0.796   4.718  15.632 -0.3206 -1.0368  0.6257
 2290TIP3   OH228284   1.294   5.286   1.216 -0.1838 -0.5627 -0.2689
 2290TIP3    H128285   1.348   5.239   1.279 -0.0412 -1.5464 -1.1134
 2290TIP3    H228286   1.316   5.378   1.229 -0.4677 -0.7251  1.4020
 2291TIP3   OH228287   4.175   1.931  12.302  0.3430 -0.2837  0.2855
 2291TIP3    H128288   4.239   1.873  12.261  1.6713  2.5984 -1.8592
 2291TIP3    H228289   4.226   1.980  12.368  0.1049  1.0765 -0.5151
 2292TIP3   OH228290   2.382   3.854  12.719 -0.1692 -0.0931  0.1371
 2292TIP3    H128291   2.416   3.794  12.786 -0.0551 -1.1530 -0.8487
 2292TIP3    H228292   2.430   3.830  12.640  0.6847  2.0849 -0.0193
 2293TIP3   OH228293   3.804   4.127  13.773 -0.0684  0.5302 -0.0538
 2293TIP3    H128294   3.893   4.095  13.780  0.1230  1.2649  0.9722
 2293TIP3    H228295   3.755   4.055  13.732  1.4344  0.9594 -2.7527
 2294TIP3   OH228296   5.891   6.589  12.670 -0.2084 -0.0793  0.4029
 2294TIP3    H128297   5.963   6.557  12.724  0.9378 -0.0681 -1.0555
 2294TIP3    H228298   5.825   6.618  12.732  1.3611  0.6244  1.7993
 2295TIP3   OH228299   3.839   0.893  16.003  0.6376 -0.5445 -0.1300
 2295TIP3    H128300   3.831   0.903  15.908  2.1699  0.1984 -0.1918
 2295TIP3    H228301   3.759   0.847  16.029 -0.1953  0.0068 -1.6584
 2296TIP3   OH228302   2.122   4.266   0.274 -0.0715  0.1612  0.0864
 2296TIP3    H128303   2.084   4.308   0.197 -1.0305 -0.7329  0.0543
 2296TIP3    H228304   2.171   4.336   0.318 -0.7642  1.0494 -0.5292
 2297TIP3   OH228305   6.383   5.593   0.934 -0.2623  0.6205  0.4023
 2297TIP3    H128306   6.373   5.557   1.022  0.2583 -1.6322 -0.4074
 2297TIP3    H228307   6.297   5.581   0.893  0.0949 -0.3603 -0.0853
 2298TIP3   OH228308   3.157   2.838  11.260 -0.1097 -0.2503  0.0295
 2298TIP3    H128309   3.231   2.777  11.260 -0.9385 -1.3294 -2.1725
 2298TIP3    H228310   3.191   2.916  11.215  0.3909  0.2160  1.1885
 2299TIP3   OH228311   4.434   2.105  11.751 -0.5057  0.6516 -0.3926
 2299TIP3    H128312   4.463   2.131  11.838 -0.9196 -0.2609  0.0293
 2299TIP3    H228313   4.487   2.158  11.691  0.9832  0.0843  0.3923
 2300TIP3   OH228314   4.097   2.274  15.942  0.5962 -0.3254  0.5025
 2300TIP3    H128315   4.151   2.332  15.888  0.9840 -0.7866  0.3873
 2300TIP3    H228316   4.152   2.253  16.017 -0.4583  1.4223  1.7724
 2301TIP3   OH228317   3.930   2.251   0.639  0.0186 -0.3256  0.3889
 2301TIP3    H128318   3.917   2.337   0.680 -0.7963  0.1203 -0.7946
 2301TIP3    H228319   3.926   2.189   0.713  0.3317  0.6217  1.2105
 2302TIP3   OH228320   4.863   0.138   3.166 -0.1720  0.7037 -0.2042
 2302TIP3    H128321   4.899   0.050   3.181  3.0434  2.3140  1.9025
 2302TIP3    H228322   4.890   0.160   3.077 -1.1234 -0.4437 -0.8005
 2303TIP3   OH228323   4.601   3.166  11.361  0.1412  0.0423 -0.3201
 2303TIP3    H128324   4.588   3.085  11.311  1.2187  0.6087 -1.5683
 2303TIP3    H228325   4.521   3.216  11.348 -0.3608 -0.6443  0.1146
 2304TIP3   OH228326   2.611   0.539  17.161  0.0091  0.2419 -0.1098
 2304TIP3    H128327   2.663   0.603  17.112  0.0213  0.4890  0.2237
 2304TIP3    H228328   2.550   0.503  17.096 -0.5455  1.1777 -0.1200
 2305TIP3   OH228329   6.642   5.978   5.235  0.5892 -0.0229 -0.3514
 2305TIP3    H128330   6.737   5.972   5.230  0.4617 -1.9616 -1.2454
 2305TIP3    H228331   6.613   5.971   5.144 -0.4469 -0.6891  0.0171
 2306TIP3   OH228332   4.482   4.571  17.165 -0.7643  0.3545 -0.3752
 2306TIP3    H128333   4.473   4.527  17.249  1.9556  1.1645  0.3776
 2306TIP3    H228334   4.425   4.647  17.171 -0.8369  0.2281  0.6183
 2307TIP3   OH228335   4.523   0.617   4.446 -0.3341  0.0548  0.3807
 2307TIP3    H128336   4.452   0.674   4.415 -0.8728 -0.6335  0.3470
 2307TIP3    H228337   4.479   0.544   4.488  0.3595 -0.4680  0.2077
 2308TIP3   OH228338   2.986   0.962  15.213  0.8364  0.2191 -0.0557
 2308TIP3    H128339   2.901   0.965  15.169  0.5291  0.6757  0.5504
 2308TIP3    H228340   2.999   0.869  15.233 -0.0176  0.2695  0.7833
 2309TIP3   OH228341   1.197   5.640  14.366 -0.2744 -0.1814  0.2644
 2309TIP3    H128342   1.249   5.689  14.302  0.4427 -0.7889  0.3718
 2309TIP3    H228343   1.141   5.706  14.407 -0.2451  0.3251 -0.5037
 2310TIP3   OH228344   1.520   3.658   5.832 -0.7262  0.1602 -0.4132
 2310TIP3    H128345   1.496   3.604   5.907  1.8841 -1.4401 -0.6629
 2310TIP3    H228346   1.586   3.719   5.866 -1.1746  0.9342 -0.9060
 2311TIP3   OH228347   5.598   0.640   0.478 -0.8339  0.3182  0.4083
 2311TIP3    H128348   5.556   0.628   0.393  0.6128 -0.6289 -0.2029
 2311TIP3    H228349   5.592   0.734   0.494  0.6332  0.8282 -1.7144
 2312TIP3   OH228350   2.567   4.157   2.287 -0.1192 -0.3448 -0.2858
 2312TIP3    H128351   2.511   4.082   2.267  1.9463 -1.8344 -0.6141
 2312TIP3    H228352   2.585   4.149   2.381  0.6699 -0.6706 -0.4615
 2313TIP3   OH228353   5.302   0.705  10.978 -0.0002  0.2907 -0.3408
 2313TIP3    H128354   5.276   0.623  10.937 -2.0455  2.0165 -2.6473
 2313TIP3    H228355   5.395   0.715  10.957  0.9956 -2.7131  2.3206
 2314TIP3   OH228356   1.970   2.873  10.640  0.2421  0.2844  0.5493
 2314TIP3    H128357   2.032   2.925  10.590  0.8696 -1.5213 -0.6163
 2314TIP3    H228358   1.889   2.878  10.590 -0.2465  1.6528  1.4377
 2315TIP3   OH228359   3.005   4.948   3.947  0.0987 -0.0514  0.0518
 2315TIP3    H128360   3.036   4.969   3.859  0.8014  0.2444  0.3669
 2315TIP3    H228361   2.992   5.033   3.989  1.1986 -0.2127  0.7290
 2316TIP3   OH228362   1.858   6.014   0.005 -0.1463  0.1583 -0.2875
 2316TIP3    H128363   1.804   5.961   0.063 -2.1041 -0.7418 -2.8594
 2316TIP3    H228364   1.947   6.005   0.040 -1.4945  1.2088  3.6648
 2317TIP3   OH228365   2.193   5.008  12.808  0.0423 -0.0265  0.4080
 2317TIP3    H128366   2.121   4.996  12.747  1.5278  1.9398 -1.8059
 2317TIP3    H228367   2.260   4.947  12.778  0.4882  0.4025  0.5242
 2318TIP3   OH228368   6.441   1.993  11.965 -0.9335 -0.0974  0.2207
 2318TIP3    H128369   6.496   1.933  12.016 -0.1092 -0.1863 -0.7553
 2318TIP3    H228370   6.353   1.980  12.000 -1.0517 -3.0598 -1.0181
 2319TIP3   OH228371   6.389   5.989   1.731 -1.2488  0.2761 -0.2495
 2319TIP3    H128372   6.330   5.993   1.807 -1.9731  1.7104 -0.8660
 2319TIP3    H228373   6.354   5.917   1.677 -1.5092  0.1155  0.1299
 2320TIP3   OH228374   1.256   6.444   5.741  0.5238  0.1271 -0.0702
 2320TIP3    H128375   1.253   6.363   5.689 -1.3260 -0.1044  0.3721
 2320TIP3    H228376   1.333   6.433   5.796 -0.7060 -2.1625  1.2727
 2321TIP3   OH228377   0.719   5.026   3.050 -0.1641 -0.6943 -0.0471
 2321TIP3    H128378   0.778   5.020   3.125 -0.4550  0.9365  0.3219
 2321TIP3    H228379   0.749   4.957   2.991  0.1233 -1.9459  1.5222
 2322TIP3   OH228380   3.265   5.840   4.234  0.0988  0.4794 -0.4159
 2322TIP3    H128381   3.293   5.753   4.206 -1.2300 -0.5058  1.2198
 2322TIP3    H228382   3.346   5.891   4.238  0.7519 -0.3250 -2.5069
 2323TIP3   OH228383   1.236   0.175  16.107  0.2096 -0.0358 -0.4832
 2323TIP3    H128384   1.289   0.107  16.065  1.7119  0.5795  0.4177
 2323TIP3    H228385   1.262   0.256  16.064  2.1763  0.6940  1.9491
 2324TIP3   OH228386   1.103   4.470  13.901  0.1607  0.1624 -0.1292
 2324TIP3    H128387   1.071   4.434  13.984  0.7604 -0.8155 -0.3094
 2324TIP3    H228388   1.127   4.393  13.849  0.4985  0.7928 -0.9237
 2325TIP3   OH228389   2.743   0.412   2.923 -0.5100  0.2035 -0.2851
 2325TIP3    H128390   2.691   0.344   2.880  0.8497  0.0519 -1.7428
 2325TIP3    H228391   2.783   0.368   2.999  1.3313 -1.0067 -1.8924
 2326TIP3   OH228392   4.697   3.561   2.910 -0.3727  0.2556  0.3939
 2326TIP3    H128393   4.677   3.633   2.971 -0.0581 -2.0343  3.3185
 2326TIP3    H228394   4.792   3.551   2.916 -0.2523  0.4073 -1.0124
 2327TIP3   OH228395   1.644   4.763   4.720 -0.3156 -0.2107 -0.6438
 2327TIP3    H128396   1.662   4.677   4.759 -2.5175  0.3248  1.7255
 2327TIP3    H228397   1.556   4.755   4.685 -0.1222  0.7620 -1.3560
 2328TIP3   OH228398   0.441   2.718   6.120  0.2924  0.4850 -0.4041
 2328TIP3    H128399   0.531   2.686   6.118 -0.1243 -0.8458  1.3837
 2328TIP3    H228400   0.425   2.740   6.212 -1.3076  0.4204 -0.6521
 2329TIP3   OH228401   1.123   2.912   4.230  0.1403 -1.0855 -0.6826
 2329TIP3    H128402   1.218   2.900   4.239  0.2814  1.1585  1.3197
 2329TIP3    H228403   1.105   2.895   4.137  2.8075  0.3122 -1.5041
 2330TIP3   OH228404   4.826   6.097  10.517 -0.0640 -0.7910 -0.4718
 2330TIP3    H128405   4.745   6.056  10.487 -0.0199 -1.9252  0.9228
 2330TIP3    H228406   4.884   6.093  10.441 -0.3527 -2.5535 -0.6115
 2331TIP3   OH228407   0.999   4.724   4.624  0.9192 -0.5406 -0.4136
 2331TIP3    H128408   1.040   4.797   4.671  1.1127 -0.6367 -0.4329
 2331TIP3    H228409   1.006   4.650   4.684  1.2379 -0.6815 -0.6269
 2332TIP3   OH228410   6.726   4.063  14.177 -0.2256  0.0599 -0.2908
 2332TIP3    H128411   6.673   4.104  14.109 -0.0937  1.5282  0.4680
 2332TIP3    H228412   6.803   4.030  14.131 -0.8219 -0.2515 -1.0784
 2333TIP3   OH228413   6.603   0.464  15.517  0.2079 -0.2451  0.1251
 2333TIP3    H128414   6.664   0.511  15.460  1.0954  1.1681  2.2048
 2333TIP3    H228415   6.655   0.391  15.552 -0.2094 -0.8501 -0.4917
 2334TIP3   OH228416   1.793   6.070  12.979  0.5391 -0.6220 -0.6080
 2334TIP3    H128417   1.872   6.085  12.928  1.9746 -1.6045  1.2556
 2334TIP3    H228418   1.817   6.001  13.040 -1.8204 -1.0316 -0.1156
 2335TIP3   OH228419   5.966   3.217   4.272 -0.1148  0.1049  0.2721
 2335TIP3    H128420   5.920   3.139   4.303  0.9775 -1.2254 -1.3011
 2335TIP3    H228421   6.009   3.253   4.349 -3.3949  1.1165  1.6685
 2336TIP3   OH228422   1.815   6.453  11.033  0.1373 -1.0113  0.0546
 2336TIP3    H128423   1.852   6.541  11.024 -0.2185 -1.2163 -4.5522
 2336TIP3    H228424   1.726   6.461  10.998  0.3125 -3.2916 -0.9957
 2337TIP3   OH228425   6.733   2.762   0.094 -0.4604  0.0484  0.0586
 2337TIP3    H128426   6.795   2.807   0.150 -0.1219  0.5399 -0.6959
 2337TIP3    H228427   6.653   2.756   0.146 -0.4043  1.2230  0.2863
 2338TIP3   OH228428   2.193   4.296   0.846 -0.4771 -0.0950 -0.3499
 2338TIP3    H128429   2.252   4.335   0.911 -0.3716  0.5351 -0.8224
 2338TIP3    H228430   2.146   4.371   0.809 -1.7357 -0.6074  0.1747
 2339TIP3   OH228431   4.320   2.882   2.806 -0.7096  0.4246 -0.0300
 2339TIP3    H128432   4.283   2.803   2.766 -3.1776  2.2696 -1.5485
 2339TIP3    H228433   4.258   2.904   2.876  1.1417 -0.1679  1.8502
 2340TIP3   OH228434   6.514   2.503   5.841  0.5834  0.5650 -0.3047
 2340TIP3    H128435   6.493   2.429   5.784  0.7223  1.2184 -1.2128
 2340TIP3    H228436   6.533   2.463   5.926 -1.6256 -0.2571 -0.1779
 2341TIP3   OH228437   4.166   4.476   2.352  0.0903 -0.0545  0.1158
 2341TIP3    H128438   4.097   4.513   2.406  1.9452  0.6204  2.0779
 2341TIP3    H228439   4.145   4.383   2.346 -0.6343  0.0396  1.1926
 2342TIP3   OH228440   0.051   2.784   1.127 -0.2301  0.9412 -0.3207
 2342TIP3    H128441   0.013   2.720   1.066  0.8197  1.1221 -1.1910
 2342TIP3    H228442   0.132   2.743   1.157 -1.3822  0.2724  2.0271
 2343TIP3   OH228443   1.945   1.058   5.169  0.2082 -0.2723  0.0554
 2343TIP3    H128444   1.946   0.996   5.242 -2.1942 -0.7204 -0.2710
 2343TIP3    H228445   2.020   1.115   5.185  2.3189 -3.0720  0.5316
 2344TIP3   OH228446   1.238   2.552  11.548  0.5196 -0.0165  0.4924
 2344TIP3    H128447   1.201   2.493  11.614  3.5790 -2.5896  0.0411
 2344TIP3    H228448   1.262   2.631  11.597  0.3433 -0.8552  1.9711
 2345TIP3   OH228449   1.489   4.717  14.378  0.5781  0.1820  0.4422
 2345TIP3    H128450   1.532   4.655  14.437 -0.5411 -0.9240  0.1235
 2345TIP3    H228451   1.398   4.686  14.372 -0.2590  2.3877  1.0052
 2346TIP3   OH228452   4.897   2.192   2.720  0.2308 -0.0885 -0.0530
 2346TIP3    H128453   4.872   2.224   2.807 -0.6783 -0.1490 -0.2891
 2346TIP3    H228454   4.932   2.270   2.675 -0.5375  0.2471 -0.0873
 2347TIP3   OH228455   4.511   2.893  16.161 -0.4772 -0.4463 -0.0161
 2347TIP3    H128456   4.493   2.839  16.085 -0.5602 -0.0551 -0.2762
 2347TIP3    H228457   4.535   2.831  16.230 -3.7104 -1.0903  0.6331
 2348TIP3   OH228458   5.989   3.096   5.763  0.5801 -0.5238 -0.0933
 2348TIP3    H128459   6.056   3.083   5.831  1.8107  0.1054 -1.1548
 2348TIP3    H228460   5.974   3.009   5.727 -0.3198 -0.9142  1.1978
 2349TIP3   OH228461   0.878   4.023  15.985 -0.7983 -0.1465  0.5178
 2349TIP3    H128462   0.881   4.095  16.049 -2.0570  1.5097 -1.2085
 2349TIP3    H228463   0.958   4.034  15.934 -0.7034 -0.3500  0.6200
 2350TIP3   OH228464   6.063   3.372   1.379  0.2486 -0.2917  0.3045
 2350TIP3    H128465   6.135   3.354   1.319  1.7968 -0.1388  2.0755
 2350TIP3    H228466   6.105   3.409   1.457 -1.5691 -1.8157  2.0490
 2351TIP3   OH228467   2.140   3.293   1.217 -0.4208  0.3129 -0.1471
 2351TIP3    H128468   2.147   3.384   1.247  0.8416  0.4509 -0.8343
 2351TIP3    H228469   2.188   3.291   1.134 -1.4427 -0.7236 -0.7190
 2352TIP3   OH228470   5.816   4.597  14.595 -0.1025 -0.9922 -0.5981
 2352TIP3    H128471   5.750   4.554  14.540  1.0366 -2.7761 -0.6143
 2352TIP3    H228472   5.840   4.530  14.659  1.5190 -0.2819 -0.4540
 2353TIP3   OH228473   4.049   1.710  13.291  0.2556  0.0041 -0.5253
 2353TIP3    H128474   4.057   1.643  13.359 -0.8601  0.4131  0.0287
 2353TIP3    H228475   3.956   1.708  13.266  0.6124 -0.0288 -1.9292
 2354TIP3   OH228476   6.493   0.859   6.456  0.0764  0.3189  0.4422
 2354TIP3    H128477   6.455   0.795   6.396  4.7397 -2.6121  0.3959
 2354TIP3    H228478   6.462   0.832   6.543 -0.6605  0.0800  0.1108
 2355TIP3   OH228479   4.844   2.219  16.678 -0.0653 -0.1541  0.1122
 2355TIP3    H128480   4.892   2.298  16.704  0.5181 -1.3631  2.8943
 2355TIP3    H228481   4.896   2.182  16.606 -0.2484  1.8419 -1.1040
 2356TIP3   OH228482   4.463   5.200  10.738  0.8876 -0.1369 -0.1203
 2356TIP3    H128483   4.425   5.282  10.706  1.1696  0.3216  0.7130
 2356TIP3    H228484   4.391   5.138  10.736  0.5379  0.2695 -0.2440
 2357TIP3   OH228485   3.016   3.531  12.763  0.0646  0.1064  0.2269
 2357TIP3    H128486   3.083   3.536  12.831  0.4050  1.7549 -0.2196
 2357TIP3    H228487   2.970   3.448  12.781  1.9107 -0.8181  0.8039
 2358TIP3   OH228488   3.394   6.407  16.135  0.1898 -0.7443 -0.6011
 2358TIP3    H128489   3.364   6.423  16.224  0.6867 -0.6240 -0.4520
 2358TIP3    H228490   3.337   6.461  16.080  0.6368  0.0815 -0.2584
 2359TIP3   OH228491   0.123   3.924  14.547 -0.1453 -0.1652 -0.6422
 2359TIP3    H128492   0.116   3.975  14.466 -0.1316  0.5020 -0.2189
 2359TIP3    H228493   0.211   3.941  14.579 -0.3348 -0.0110 -0.1996
 2360TIP3   OH228494   1.564   3.957  13.236  0.7444 -0.8695  0.1057
 2360TIP3    H128495   1.548   3.899  13.311  0.6950  0.9648  1.5609
 2360TIP3    H228496   1.657   3.981  13.244  0.6233 -0.3100 -0.1532
 2361TIP3   OH228497   2.709   2.709  14.201 -0.4796 -0.2599  0.2432
 2361TIP3    H128498   2.736   2.793  14.239 -1.7917 -0.3248  1.3791
 2361TIP3    H228499   2.781   2.685  14.143  1.3079  0.1984  2.1723
 2362TIP3   OH228500   4.622   2.348   5.407 -0.5475  0.3446  0.2136
 2362TIP3    H128501   4.712   2.319   5.421  0.3268  1.6352 -2.3065
 2362TIP3    H228502   4.587   2.287   5.342 -1.4545 -0.0428  1.0500
 2363TIP3   OH228503   6.420   1.953   2.898 -0.7646 -0.5299 -0.0252
 2363TIP3    H128504   6.417   2.024   2.963 -1.5091 -0.7861  0.2164
 2363TIP3    H228505   6.397   1.996   2.815 -0.8303 -0.4121  0.0533
 2364TIP3   OH228506   5.352   5.880  16.456 -0.2441 -0.5308 -0.0625
 2364TIP3    H128507   5.387   5.793  16.437  1.0696  0.0041 -0.1037
 2364TIP3    H228508   5.363   5.889  16.551 -3.1870 -1.6176  0.4419
 2365TIP3   OH228509   2.059   5.387  11.361  0.0570 -0.2427  0.0948
 2365TIP3    H128510   2.080   5.308  11.411 -0.7574 -1.0986 -0.9031
 2365TIP3    H228511   2.088   5.369  11.272  0.7365  0.9592  0.0616
 2366TIP3   OH228512   6.165   6.379  12.265  0.1925 -0.2254 -0.1147
 2366TIP3    H128513   6.189   6.429  12.187  0.8447 -0.0788  0.1771
 2366TIP3    H228514   6.070   6.367  12.258 -0.0153  1.3294 -0.0261
 2367TIP3   OH228515   2.900   1.964  14.788  0.0510 -0.0545  0.3722
 2367TIP3    H128516   2.942   2.050  14.775 -0.7526  0.0951 -1.3305
 2367TIP3    H228517   2.973   1.902  14.785  0.4134  0.3970 -0.3803
 2368TIP3   OH228518   5.769   0.998  15.158 -0.5423 -0.0328 -0.5323
 2368TIP3    H128519   5.810   0.977  15.074 -0.5244 -1.2036 -0.2473
 2368TIP3    H228520   5.723   1.080  15.143  0.6551  0.5074 -1.2825
 2369TIP3   OH228521   6.095   0.175   0.575  0.4612  0.4610  0.0333
 2369TIP3    H128522   6.041   0.200   0.500  0.5301  0.3020 -0.0697
 2369TIP3    H228523   6.163   0.119   0.538 -1.0614 -1.8305  0.6050
 2370TIP3   OH228524   6.164   2.042  12.018 -0.0686 -0.4297 -0.5667
 2370TIP3    H128525   6.107   2.073  12.088  2.5905  2.4291  0.4916
 2370TIP3    H228526   6.176   2.118  11.961  1.6162 -1.3007 -1.4321
 2371TIP3   OH228527   3.476   1.349   3.569  0.5258  0.2203 -0.7224
 2371TIP3    H128528   3.415   1.283   3.600 -0.2991  0.3197 -2.0992
 2371TIP3    H228529   3.479   1.414   3.639 -2.7566  1.3997 -1.6019
 2372TIP3   OH228530   5.609   1.913  11.478 -0.3319 -0.1736  0.0346
 2372TIP3    H128531   5.573   1.882  11.395  0.2198 -1.8168  0.3727
 2372TIP3    H228532   5.703   1.919  11.462 -0.1222 -1.3174  0.7689
 2373TIP3   OH228533   2.575   0.188   4.598  0.3882 -0.0470  0.0235
 2373TIP3    H128534   2.641   0.177   4.531  0.3447  0.0971 -0.0413
 2373TIP3    H228535   2.623   0.187   4.681  0.6532  1.6270 -0.0915
 2374TIP3   OH228536   3.952   2.623  14.468  0.2048  0.3331  0.7070
 2374TIP3    H128537   3.959   2.572  14.388 -2.2458 -0.3455  0.8884
 2374TIP3    H228538   3.948   2.714  14.439  0.0058  0.1293  0.1024
 2375TIP3   OH228539   4.948   2.969   0.804 -0.1425  0.2662 -0.3054
 2375TIP3    H128540   4.956   2.901   0.738 -0.7360 -0.3905  0.3026
 2375TIP3    H228541   4.855   2.991   0.806 -0.1154  0.3559  0.2310
 2376TIP3   OH228542   5.815   1.347  10.950 -0.2757 -0.5080 -0.5227
 2376TIP3    H128543   5.874   1.403  10.999  3.0011 -3.9443 -0.2950
 2376TIP3    H228544   5.754   1.313  11.015  0.4077 -0.5377  0.1098
 2377TIP3   OH228545   2.242   3.431   3.931 -0.6193 -0.4203 -0.2104
 2377TIP3    H128546   2.328   3.460   3.902 -1.1719  2.7300  1.1440
 2377TIP3    H228547   2.258   3.347   3.975  1.8756  0.4850  0.6833
 2378TIP3   OH228548   5.526   2.969  17.208 -0.4123 -0.0881 -0.0800
 2378TIP3    H128549   5.492   2.945  17.294  0.7508 -1.2930  0.0478
 2378TIP3    H228550   5.621   2.959  17.215 -0.0283  2.9227 -0.5553
 2379TIP3   OH228551   5.532   6.066   3.609  0.1704 -0.2873 -0.1317
 2379TIP3    H128552   5.446   6.025   3.615 -0.5770  1.0979 -0.9629
 2379TIP3    H228553   5.560   6.048   3.519 -0.3810  1.3709 -0.6644
 2380TIP3   OH228554   4.185   3.592  16.664  0.3015 -0.0113  0.2335
 2380TIP3    H128555   4.201   3.552  16.578 -2.2326 -0.6274 -0.0166
 2380TIP3    H228556   4.252   3.555  16.721 -0.8124 -3.2156 -0.4411
 2381TIP3   OH228557   4.123   5.153   3.782 -0.1486 -0.3322 -0.2979
 2381TIP3    H128558   4.104   5.070   3.739  0.5710 -0.6097 -0.0901
 2381TIP3    H228559   4.216   5.147   3.804 -0.6067 -0.3960  1.6922
 2382TIP3   OH228560   5.194   3.470   2.428  0.6182 -0.1673 -0.2732
 2382TIP3    H128561   5.114   3.461   2.375  0.9191 -1.4852 -0.5127
 2382TIP3    H228562   5.179   3.550   2.479 -0.5767 -0.0355 -0.7947
 2383TIP3   OH228563   5.661   4.424  10.553 -0.0604 -0.3592 -0.6028
 2383TIP3    H128564   5.570   4.409  10.528  0.2492  0.3726 -2.2884
 2383TIP3    H228565   5.657   4.479  10.631 -1.0747 -2.0154  0.5315
 2384TIP3   OH228566   5.233   2.214   6.234  0.1116  0.0149 -0.1300
 2384TIP3    H128567   5.177   2.222   6.157  0.7065 -1.9735 -0.8305
 2384TIP3    H228568   5.245   2.119   6.244  1.2104  0.3134  1.5600
 2385TIP3   OH228569   1.792   0.590  11.425  0.2412  0.3772 -0.0569
 2385TIP3    H128570   1.719   0.529  11.440 -0.0698  0.1648 -2.3718
 2385TIP3    H228571   1.749   0.675  11.413  0.5390  0.6684  0.8695
 2386TIP3   OH228572   3.953   0.357  12.569  0.3885 -0.3308  0.0075
 2386TIP3    H128573   4.019   0.411  12.613  0.0849 -0.2247  0.3345
 2386TIP3    H228574   3.990   0.340  12.482  0.9763 -0.5096  0.2877
 2387TIP3   OH228575   5.156   3.795  14.442 -0.1210 -0.4807 -0.2193
 2387TIP3    H128576   5.221   3.750  14.496  0.7529  2.4250  1.3067
 2387TIP3    H228577   5.071   3.767  14.477  0.4251 -0.1759  1.3968
 2388TIP3   OH228578   3.459   4.672   4.161 -0.5724 -0.1495 -0.4490
 2388TIP3    H128579   3.430   4.584   4.187 -0.4355  0.4021  1.6677
 2388TIP3    H228580   3.548   4.659   4.127 -0.3541 -0.7883  0.3392
 2389TIP3   OH228581   1.166   1.650   1.439 -0.6845  0.0928  0.2523
 2389TIP3    H128582   1.230   1.593   1.396 -1.4971 -1.0305  0.5250
 2389TIP3    H228583   1.218   1.699   1.504 -0.1578 -1.0720  0.7209
 2390TIP3   OH228584   5.114   2.760   3.976  0.1614 -0.0308  0.1771
 2390TIP3    H128585   5.106   2.668   3.953  0.6573  0.2404 -1.0943
 2390TIP3    H228586   5.101   2.807   3.894  0.1941  1.0218  0.7631
 2391TIP3   OH228587   0.534   3.613   1.966 -0.3089 -0.7402 -0.3274
 2391TIP3    H128588   0.574   3.697   1.941  0.3876 -0.4855  1.5531
 2391TIP3    H228589   0.562   3.599   2.056 -1.3116 -2.4854 -0.2619
 2392TIP3   OH228590   5.712   6.476  11.525 -0.1071 -0.3575 -0.2031
 2392TIP3    H128591   5.742   6.531  11.598 -0.4897 -1.6593  0.9485
 2392TIP3    H228592   5.782   6.412  11.513 -0.4242 -0.6557 -0.4482
 2393TIP3   OH228593   2.189   5.784  14.372  0.0078 -0.5030  0.2663
 2393TIP3    H128594   2.194   5.790  14.277 -0.5876  0.0843  0.2686
 2393TIP3    H228595   2.243   5.708  14.394  3.2335  1.5361 -0.2327
 2394TIP3   OH228596   6.222   3.067  15.667  0.1255 -0.3354 -0.0414
 2394TIP3    H128597   6.147   3.121  15.642 -0.1365 -0.5112  0.3443
 2394TIP3    H228598   6.265   3.044  15.585 -0.3033 -0.3142 -0.2707
 2395TIP3   OH228599   2.394   4.920   0.362 -0.0298 -0.0397  0.1072
 2395TIP3    H128600   2.369   4.910   0.454  1.1358 -1.4389  0.2768
 2395TIP3    H228601   2.354   4.846   0.318 -1.0967  0.9600 -0.6393
 2396TIP3   OH228602   3.514   3.078  16.636  0.1644  0.1369  0.7005
 2396TIP3    H128603   3.503   3.150  16.574  1.7798  1.1689  1.5825
 2396TIP3    H228604   3.499   3.117  16.722  0.6342 -0.6647  1.1600
 2397TIP3   OH228605   5.733   3.413  13.945 -0.1335  0.2953  0.4111
 2397TIP3    H128606   5.674   3.389  13.874  1.9970 -0.0038 -1.3183
 2397TIP3    H228607   5.735   3.335  14.002  0.1727 -0.4498 -0.6103
 2398TIP3   OH228608   3.499   4.228   3.452  0.9903 -0.2158  0.6487
 2398TIP3    H128609   3.517   4.219   3.359  0.6952  1.4126  0.4160
 2398TIP3    H228610   3.534   4.314   3.475 -1.8622  0.8256  1.3015
 2399TIP3   OH228611   4.292   4.964   3.395  0.5291  0.1005 -0.2317
 2399TIP3    H128612   4.341   4.887   3.425  0.2945 -0.2704 -0.7941
 2399TIP3    H228613   4.336   4.988   3.313 -0.4360 -0.4380 -0.9158
 2400TIP3   OH228614   6.199   6.445  14.887 -0.1759  0.1405  0.5783
 2400TIP3    H128615   6.209   6.540  14.884  0.4292  0.0422 -0.7574
 2400TIP3    H228616   6.170   6.422  14.799 -2.1511 -0.7155  1.4203
 2401TIP3   OH228617   5.104   6.026   4.980 -0.0292 -0.4653  0.5499
 2401TIP3    H128618   5.135   5.973   4.907  0.6223 -0.5604  0.8800
 2401TIP3    H228619   5.048   6.092   4.941  0.6673 -0.2442 -0.0894
 2402TIP3   OH228620   3.758   1.108   4.108 -0.3444  0.2257 -0.1334
 2402TIP3    H128621   3.807   1.095   4.189  0.4454  0.1528 -0.6164
 2402TIP3    H228622   3.744   1.203   4.103  0.0499  0.2804 -0.1726
 2403TIP3   OH228623   2.610   5.102   6.177  0.1597 -0.1321  0.0762
 2403TIP3    H128624   2.660   5.055   6.244  0.1326  0.5274  0.5540
 2403TIP3    H228625   2.658   5.085   6.096  2.4715  2.3692  0.8679
 2404TIP3   OH228626   0.860   3.067   4.367  0.0210 -0.1512  0.3688
 2404TIP3    H128627   0.939   3.113   4.394  1.8241 -1.6099 -2.2268
 2404TIP3    H228628   0.883   2.974   4.369 -1.6121 -0.5995 -0.4239
 2405TIP3   OH228629   4.453   1.823  14.454 -0.1218 -0.2498 -0.4348
 2405TIP3    H128630   4.515   1.779  14.512 -0.4694 -0.7850 -0.4632
 2405TIP3    H228631   4.505   1.889  14.409  0.6101 -1.1815 -0.9941
 2406TIP3   OH228632   5.024   2.777  12.866  0.4426  0.2223  0.4329
 2406TIP3    H128633   4.943   2.828  12.862  0.0613 -0.3079  1.2221
 2406TIP3    H228634   5.049   2.780  12.959 -0.5688 -2.5403  0.8361
 2407TIP3   OH228635   0.278   4.180  11.327 -0.2766  0.5613 -0.2885
 2407TIP3    H128636   0.369   4.181  11.354 -0.1891  0.0920 -0.5643
 2407TIP3    H228637   0.229   4.159  11.407  0.1723 -3.5461 -1.0093
 2408TIP3   OH228638   4.863   3.717  15.256  0.2146 -0.3225  0.5253
 2408TIP3    H128639   4.804   3.643  15.272 -0.1396 -0.0499  0.4918
 2408TIP3    H228640   4.836   3.752  15.171 -1.7456  1.8118  1.9576
 2409TIP3   OH228641   2.980   4.782   4.593  0.1609 -0.0933  0.0295
 2409TIP3    H128642   2.923   4.858   4.605 -0.2752  0.0202 -2.4969
 2409TIP3    H228643   2.964   4.728   4.670 -2.0328  0.7886  0.2373
 2410TIP3   OH228644   4.551   0.316  15.392  0.1168 -0.5958  0.1391
 2410TIP3    H128645   4.547   0.221  15.384 -1.2062 -0.4954 -0.4920
 2410TIP3    H228646   4.637   0.339  15.356 -0.0973 -1.4267 -0.9231
 2411TIP3   OH228647   2.168   1.531  12.742 -0.4212  0.1238 -0.2651
 2411TIP3    H128648   2.078   1.546  12.771 -0.0659 -0.6941  1.3102
 2411TIP3    H228649   2.222   1.577  12.805  0.3549 -1.3252  0.1485
 2412TIP3   OH228650   6.597   1.928  13.337 -0.3525  0.1393 -0.4601
 2412TIP3    H128651   6.566   1.995  13.397  0.6886 -1.7187  2.3019
 2412TIP3    H228652   6.681   1.961  13.304 -1.1130  1.3405 -1.1907
 2413TIP3   OH228653   2.023   1.819  15.895  0.1990  0.1541  0.1419
 2413TIP3    H128654   2.040   1.903  15.853  0.0039  0.8177  1.3799
 2413TIP3    H228655   2.085   1.759  15.853  1.3499  1.2201  0.2545
 2414TIP3   OH228656   1.700   2.425   3.598 -0.5139 -0.0702 -0.3725
 2414TIP3    H128657   1.687   2.374   3.678 -0.0340  1.8494  0.9693
 2414TIP3    H228658   1.750   2.367   3.540 -1.1123 -1.5862  0.6106
 2415TIP3   OH228659   2.156   1.519  10.878  0.6326  0.4450  0.7470
 2415TIP3    H128660   2.192   1.434  10.854 -1.6454 -0.6949  1.2205
 2415TIP3    H228661   2.198   1.581  10.818  0.5142 -1.3348 -1.2143
 2416TIP3   OH228662   6.664   1.631   2.589 -0.0983  0.1259  0.1562
 2416TIP3    H128663   6.660   1.578   2.670 -0.8698 -1.6786 -1.0283
 2416TIP3    H228664   6.757   1.651   2.579  0.4757 -2.6179 -0.3530
 2417TIP3   OH228665   1.263   0.022   4.900  0.1622 -0.3150 -0.0557
 2417TIP3    H128666   1.348   0.006   4.941  0.7244 -0.0073 -1.1058
 2417TIP3    H228667   1.272  -0.011   4.811 -2.1492 -4.1638  0.9946
 2418TIP3   OH228668   6.042   3.300   4.528  0.2530  0.1824 -0.6038
 2418TIP3    H128669   6.063   3.393   4.535 -0.2304  0.4436 -2.4224
 2418TIP3    H228670   6.123   3.256   4.555  0.6609  1.1286 -0.2563
 2419TIP3   OH228671   1.174   1.622   4.397  0.1628  0.3435 -0.3273
 2419TIP3    H128672   1.177   1.537   4.353 -1.3608  0.2135 -0.1982
 2419TIP3    H228673   1.112   1.674   4.346  0.5186  1.1406  0.0321
 2420TIP3   OH228674   2.406   6.753  17.210  0.3653 -0.1114  0.0349
 2420TIP3    H128675   2.382   6.661  17.206  0.6392 -0.1603 -0.6196
 2420TIP3    H228676   2.486   6.759  17.157 -0.3551  0.7235 -0.9732
 2421TIP3   OH228677   2.423   2.055   1.983  0.4254  0.3524  0.7327
 2421TIP3    H128678   2.446   2.037   1.892  0.0756 -1.4947  0.9865
 2421TIP3    H228679   2.507   2.074   2.025  0.7321  0.0305  0.2708
 2422TIP3   OH228680   1.290   4.457  16.286 -0.1181 -0.5119 -0.0284
 2422TIP3    H128681   1.222   4.515  16.253 -0.2183 -0.3783  0.4096
 2422TIP3    H228682   1.274   4.374  16.242 -0.7939 -0.5882  0.3459
 2423TIP3   OH228683   3.386   3.740   5.120 -0.3666 -0.0396  0.0624
 2423TIP3    H128684   3.319   3.800   5.088 -1.1626  0.1013  1.9019
 2423TIP3    H228685   3.344   3.695   5.193  1.5385  0.0459  1.2372
 2424TIP3   OH228686   1.235   3.421   5.887  0.4428  0.1530  0.1140
 2424TIP3    H128687   1.227   3.335   5.844  1.0110  0.8180 -1.3557
 2424TIP3    H228688   1.298   3.406   5.957 -0.4245 -0.9315  0.6781
 2425TIP3   OH228689   2.440   5.093   2.823  0.1931  0.1312  0.3526
 2425TIP3    H128690   2.517   5.148   2.837  0.7640 -0.9129  1.4058
 2425TIP3    H228691   2.475   5.010   2.791 -0.6062  0.1324 -0.5486
 2426TIP3   OH228692   2.481   4.732  16.601  0.4989  0.1672 -0.0098
 2426TIP3    H128693   2.516   4.820  16.587  2.1162 -0.6653 -1.3318
 2426TIP3    H228694   2.496   4.716  16.694  1.3181  0.8127 -0.0237
 2427TIP3   OH228695   0.723   5.827   5.226 -0.3091 -0.5250  0.1446
 2427TIP3    H128696   0.761   5.805   5.141  0.4940  0.9534  0.0964
 2427TIP3    H228697   0.727   5.746   5.276 -0.3752 -1.3024 -1.0729
 2428TIP3   OH228698   1.418   0.849   5.697 -0.3426  0.3855 -0.0996
 2428TIP3    H128699   1.457   0.775   5.744 -2.0897  0.0566  0.8740
 2428TIP3    H228700   1.353   0.885   5.758 -0.7612  1.6016 -1.2497
 2429TIP3   OH228701   4.501   1.666   4.289 -0.8005 -0.3196  0.0643
 2429TIP3    H128702   4.542   1.752   4.303  1.0733 -1.2814  0.6884
 2429TIP3    H228703   4.542   1.633   4.209  0.3668 -1.6917  1.2013
 2430TIP3   OH228704   1.784   4.623   5.728 -0.0263  0.1138 -0.4301
 2430TIP3    H128705   1.727   4.547   5.717 -0.9100  0.6651  0.2583
 2430TIP3    H228706   1.872   4.586   5.732 -0.3173 -0.7329 -1.6037
 2431TIP3   OH228707   1.567   2.838  11.709  0.5792 -0.1851  0.4200
 2431TIP3    H128708   1.526   2.781  11.644  2.3119 -4.9627  3.2080
 2431TIP3    H228709   1.649   2.866  11.668  0.5500 -1.2137 -0.3703
 2432TIP3   OH228710   5.991   1.602  10.967 -0.3147  0.0548  0.1616
 2432TIP3    H128711   6.021   1.553  10.891  1.5109 -2.0823  2.1569
 2432TIP3    H228712   6.060   1.666  10.983 -0.6789  0.4802  0.0334
 2433TIP3   OH228713   0.945   2.113   4.754  0.4148 -0.1070  0.0191
 2433TIP3    H128714   1.015   2.172   4.780  0.4481  0.3679 -1.1103
 2433TIP3    H228715   0.927   2.061   4.832  3.1240 -1.3398 -0.1022
 2434TIP3   OH228716   5.946   0.715  13.406  0.3847  0.1722 -0.2986
 2434TIP3    H128717   5.924   0.806  13.385 -1.2553 -0.2220 -0.3499
 2434TIP3    H228718   6.019   0.722  13.467 -1.2275  1.6039  1.5173
 2435TIP3   OH228719   2.213   3.521   6.411 -0.0617 -0.2109  0.0656
 2435TIP3    H128720   2.168   3.598   6.445 -0.3221  0.5942 -1.9823
 2435TIP3    H228721   2.306   3.538   6.429 -0.2787 -0.2742  1.2484
 2436TIP3   OH228722   0.994   5.950   5.238 -0.3163 -0.8367  0.0331
 2436TIP3    H128723   0.941   5.914   5.309  0.0773 -1.7320 -0.1256
 2436TIP3    H228724   0.988   6.045   5.249 -0.1619 -0.9753  1.3323
 2437TIP3   OH228725   6.264   3.171  11.100  0.0461 -0.2635 -0.4450
 2437TIP3    H128726   6.222   3.238  11.154  0.6060 -0.0252 -0.2914
 2437TIP3    H228727   6.197   3.143  11.038  0.2223  1.4436 -1.4289
 2438TIP3   OH228728   2.477   6.481   1.881  0.1456 -0.1122 -0.6923
 2438TIP3    H128729   2.457   6.461   1.972  1.4891  1.1082 -0.1119
 2438TIP3    H228730   2.554   6.428   1.861  0.5324  0.4738 -0.7675
 2439TIP3   OH228731   5.650   4.208   2.728  0.5292  0.3296  0.2668
 2439TIP3    H128732   5.607   4.126   2.751 -0.7333  1.0722  0.6259
 2439TIP3    H228733   5.578   4.270   2.713  1.4512  1.2814 -0.3123
 2440TIP3   OH228734   4.161   1.212  14.767  0.1029 -0.3172  0.6136
 2440TIP3    H128735   4.123   1.150  14.704  0.9966 -1.0769  0.8197
 2440TIP3    H228736   4.223   1.159  14.818 -0.5186  0.3206  2.0473
 2441TIP3   OH228737   1.184   4.032   5.216  0.3605  0.1520  0.3397
 2441TIP3    H128738   1.160   3.940   5.207 -2.3962  0.6489  2.0128
 2441TIP3    H228739   1.149   4.074   5.137  2.4345 -0.3456 -0.8796
 2442TIP3   OH228740   4.500   5.595   3.100  0.3206  0.3568 -0.2006
 2442TIP3    H128741   4.465   5.610   3.187  1.7456  3.6802 -0.1534
 2442TIP3    H228742   4.424   5.601   3.042  0.0858  2.9281  0.3465
 2443TIP3   OH228743   2.833   5.904  13.210 -0.1115  0.3583  0.4234
 2443TIP3    H128744   2.919   5.866  13.192 -0.3064  0.0386  0.1573
 2443TIP3    H228745   2.842   5.996  13.184 -0.1654  0.0760 -0.6386
 2444TIP3   OH228746   0.474   2.758  12.981 -0.1194  0.4827  0.2340
 2444TIP3    H128747   0.383   2.775  13.003 -0.2957  0.7422 -0.6900
 2444TIP3    H228748   0.484   2.663  12.991 -0.1393  0.6270  1.6369
 2445TIP3   OH228749   1.879   6.114  15.377 -0.2951  0.0472 -0.5235
 2445TIP3    H128750   1.899   6.205  15.398 -0.2030 -0.1410  0.2198
 2445TIP3    H228751   1.948   6.064  15.420  0.6106 -0.2824 -2.3184
 2446TIP3   OH228752   5.239   2.912   0.817 -0.2938 -0.0371 -0.1194
 2446TIP3    H128753   5.254   2.873   0.731 -1.8640 -0.3306 -0.2732
 2446TIP3    H228754   5.224   3.005   0.799  0.8134  0.1653 -0.0146
 2447TIP3   OH228755   6.605   3.909  13.772 -0.7035  0.2144 -0.3522
 2447TIP3    H128756   6.535   3.855  13.735  0.8770 -1.1234 -1.4841
 2447TIP3    H228757   6.669   3.846  13.806  0.2479  1.3913  0.1048
 2448TIP3   OH228758   5.782   2.900  14.098 -0.1587  0.1637 -0.0567
 2448TIP3    H128759   5.797   2.856  14.014  1.1785 -0.5586  0.5474
 2448TIP3    H228760   5.764   2.829  14.159  0.5045  0.5744  0.6178
 2449TIP3   OH228761   2.021   2.904   5.514  0.3833 -0.7862  0.1242
 2449TIP3    H128762   1.993   2.849   5.441  1.9196  0.6602 -1.5995
 2449TIP3    H228763   2.082   2.967   5.475  0.7761  0.3964  2.5466
 2450TIP3   OH228764   4.451   3.513  11.402  0.0864 -0.0339 -0.1155
 2450TIP3    H128765   4.428   3.570  11.475 -2.4281 -1.4112  0.2487
 2450TIP3    H228766   4.401   3.433  11.418  0.7988 -0.9955 -2.4718
 2451TIP3   OH228767   6.766   6.668  15.884  0.2652  0.0070  0.0452
 2451TIP3    H128768   6.735   6.625  15.805 -0.9169  2.9755 -1.1893
 2451TIP3    H228769   6.856   6.694  15.865  0.8794 -1.5538  0.6854
 2452TIP3   OH228770   5.576   4.005   0.438 -0.0452  0.7672 -0.6158
 2452TIP3    H128771   5.575   4.012   0.343  1.6972  1.0353 -0.6272
 2452TIP3    H228772   5.668   3.990   0.460 -0.6409 -0.7723  0.9244
 2453TIP3   OH228773   4.920   1.466  15.543 -0.2796  0.1312  0.0379
 2453TIP3    H128774   4.876   1.521  15.478 -0.2874  0.8326  0.6283
 2453TIP3    H228775   4.857   1.397  15.563  0.0862 -0.6441 -1.3942
 2454TIP3   OH228776   1.711   0.083   5.308  0.3179 -0.0373  0.1358
 2454TIP3    H128777   1.651   0.008   5.305 -0.2368  0.3088  2.1438
 2454TIP3    H228778   1.798   0.044   5.298  0.1663 -1.1665  2.7266
 2455TIP3   OH228779   1.049   0.101   3.859  0.4716  0.1899  0.2118
 2455TIP3    H128780   1.017   0.160   3.927 -0.1744 -0.6630  0.6516
 2455TIP3    H228781   1.141   0.088   3.879  0.1762 -0.4119  1.1823
 2456TIP3   OH228782   6.489   3.314   2.485 -0.0389 -0.0928 -0.2795
 2456TIP3    H128783   6.412   3.260   2.506  0.0122  0.0572  0.3232
 2456TIP3    H228784   6.465   3.361   2.406 -0.3477 -0.4890 -0.4198
 2457TIP3   OH228785   1.350   3.253  15.325 -0.2249  0.4128  0.2883
 2457TIP3    H128786   1.257   3.278  15.329  0.0509  1.1795  2.1779
 2457TIP3    H228787   1.348   3.157  15.333 -0.8619  0.4157  0.2484
 2458TIP3   OH228788   1.089   2.247  10.482 -0.8046 -0.1253 -0.1047
 2458TIP3    H128789   1.124   2.206  10.561  2.8195  0.8489 -1.0919
 2458TIP3    H228790   1.035   2.178  10.442  0.1337 -1.8087  1.4361
 2459TIP3   OH228791   3.628   3.072   5.080  0.0939 -0.4430  0.3111
 2459TIP3    H128792   3.561   3.099   5.144 -0.0089 -1.2966  0.5651
 2459TIP3    H228793   3.674   3.153   5.059  0.1887 -0.1658  1.5405
 2460TIP3   OH228794   5.146   0.785  13.797 -0.2253 -0.2876 -0.6701
 2460TIP3    H128795   5.057   0.760  13.773 -1.0010  0.3660  1.4516
 2460TIP3    H228796   5.136   0.837  13.876  2.3040 -3.1387  1.6381
 2461TIP3   OH228797   3.759   4.540  15.259  0.3847 -0.0406 -0.3166
 2461TIP3    H128798   3.764   4.448  15.284  1.4499 -0.1182 -0.8178
 2461TIP3    H228799   3.767   4.540  15.164 -0.3115  0.5241 -0.3863
 2462TIP3   OH228800   4.555   5.633  10.997  0.1785 -0.1579  0.2807
 2462TIP3    H128801   4.611   5.570  10.951  0.5611  0.1670  0.2975
 2462TIP3    H228802   4.501   5.670  10.928 -0.2931 -0.7600  0.3229
 2463TIP3   OH228803   6.216   5.834   5.416 -0.5430 -0.3884  0.4843
 2463TIP3    H128804   6.253   5.913   5.376  0.4040 -1.0424  0.0523
 2463TIP3    H228805   6.280   5.809   5.483 -1.3150 -0.2491  1.2951
 2464TIP3   OH228806   2.381   0.379  13.194 -0.3018  0.1206  0.9652
 2464TIP3    H128807   2.424   0.350  13.113 -1.3506  1.8230 -0.2395
 2464TIP3    H228808   2.431   0.455  13.222  0.4302 -0.8235  2.2902
 2465TIP3   OH228809   6.009   1.066  15.306 -0.3253  0.0325 -0.2478
 2465TIP3    H128810   6.003   1.078  15.401 -1.7090 -0.8243 -0.2062
 2465TIP3    H228811   5.918   1.059  15.277  0.1230 -0.9067 -1.4834
 2466TIP3   OH228812   0.276   5.890   1.105  0.7297  0.2272  0.0746
 2466TIP3    H128813   0.318   5.855   1.026  0.3161  2.4421 -1.1651
 2466TIP3    H228814   0.199   5.935   1.072 -0.2887 -0.1498  1.9313
 2467TIP3   OH228815   0.302   0.491   4.276  0.1190  0.5302  0.4475
 2467TIP3    H128816   0.366   0.552   4.238  0.0833  0.6753  0.6171
 2467TIP3    H228817   0.350   0.409   4.287 -0.3697 -0.0746 -1.6382
 2468TIP3   OH228818   3.197   6.126  16.188 -0.4952 -0.2427  0.6942
 2468TIP3    H128819   3.180   6.033  16.171 -0.1508 -0.1623 -0.1383
 2468TIP3    H228820   3.257   6.126  16.263 -1.1956 -0.6520  1.2658
 2469TIP3   OH228821   3.093   2.149   3.800 -0.0557 -0.6658 -0.3753
 2469TIP3    H128822   3.067   2.199   3.722  1.5320 -0.6137 -0.8921
 2469TIP3    H228823   3.077   2.058   3.776 -0.0917 -0.6090 -0.5672
 2470TIP3   OH228824   5.595   4.880   0.859 -0.3638 -0.0417  0.0449
 2470TIP3    H128825   5.675   4.903   0.907  0.6327 -0.9622 -1.1183
 2470TIP3    H228826   5.572   4.959   0.811  0.1262  0.0918  0.0293
 2471TIP3   OH228827   0.904   0.883   2.498  0.2176 -0.1045  0.4782
 2471TIP3    H128828   0.866   0.814   2.444  0.1344 -0.3015  0.7869
 2471TIP3    H228829   0.919   0.841   2.583 -0.4842  0.4474  0.8775
 2472TIP3   OH228830   5.376   4.686  11.953  0.1547  0.6552  0.0571
 2472TIP3    H128831   5.456   4.633  11.949 -0.8713 -0.9953  0.5517
 2472TIP3    H228832   5.372   4.716  12.043  0.3672  0.9832 -0.0427
 2473TIP3   OH228833   5.190   5.670  12.658  0.6416 -0.4374  0.7204
 2473TIP3    H128834   5.285   5.675  12.665  0.6314 -1.4289  1.7567
 2473TIP3    H228835   5.158   5.703  12.742  0.1124 -1.1524  0.8073
 2474TIP3   OH228836   4.266   5.890  11.779 -0.4545 -0.0428 -0.0763
 2474TIP3    H128837   4.311   5.950  11.720  0.7350 -0.0106  0.8348
 2474TIP3    H228838   4.214   5.948  11.836 -0.7183  0.0038 -0.3660
 2475TIP3   OH228839   4.179   1.606  11.044  0.2228 -1.3897 -0.4988
 2475TIP3    H128840   4.227   1.689  11.040  0.0794 -1.2960 -0.2482
 2475TIP3    H228841   4.247   1.539  11.046  0.3383 -1.2866 -0.9092
 2476TIP3   OH228842   4.787   1.248   1.230 -0.1199 -0.2344  0.5271
 2476TIP3    H128843   4.820   1.242   1.320 -0.9240 -0.6629  0.7908
 2476TIP3    H228844   4.830   1.175   1.184 -1.4323 -1.3826  1.1029
 2477TIP3   OH228845   3.122   3.103   0.093  0.1525 -0.1360 -0.0696
 2477TIP3    H128846   3.183   3.117   0.020  0.7296  0.0436  0.4436
 2477TIP3    H228847   3.058   3.042   0.059  1.5617 -1.6458 -0.0923
 2478TIP3   OH228848   4.961   1.574  17.013 -0.2131  0.6995  0.4940
 2478TIP3    H128849   4.892   1.589  16.950 -0.7556 -3.5070 -0.0704
 2478TIP3    H228850   4.946   1.639  17.082 -2.4601  2.2286 -1.3886
 2479TIP3   OH228851   0.392   0.675   3.363 -0.4990 -0.1518 -0.0573
 2479TIP3    H128852   0.330   0.619   3.409  0.0282  0.3832  1.3195
 2479TIP3    H228853   0.343   0.708   3.287 -1.4384 -0.8499  0.2399
 2480TIP3   OH228854   1.544   4.019   5.355  0.0358 -0.3631  0.0382
 2480TIP3    H128855   1.639   4.022   5.362  0.0948 -1.6611 -0.0272
 2480TIP3    H228856   1.515   4.105   5.384  1.0953 -0.7992  2.5648
 2481TIP3   OH228857   0.566   2.206   5.753  0.3866 -0.1228 -0.0284
 2481TIP3    H128858   0.535   2.287   5.793 -1.2522 -1.5923  1.8438
 2481TIP3    H228859   0.643   2.181   5.805 -0.4446 -0.8874  0.8806
 2482TIP3   OH228860   2.770   1.282  14.242  0.1172 -0.2032 -1.0175
 2482TIP3    H128861   2.775   1.363  14.190  0.3943 -0.6483 -1.6963
 2482TIP3    H228862   2.852   1.236  14.223  0.7490  0.1676  0.7328
 2483TIP3   OH228863   3.258   5.806  16.997 -0.1954 -0.0919  0.1978
 2483TIP3    H128864   3.311   5.870  16.950  0.8595 -0.0453  1.3969
 2483TIP3    H228865   3.322   5.741  17.027 -0.9381 -0.4760  0.9406
 2484TIP3   OH228866   0.454   3.816   2.927  0.6431 -0.0033 -0.0955
 2484TIP3    H128867   0.439   3.724   2.907 -0.6316  0.1583  0.0628
 2484TIP3    H228868   0.368   3.848   2.956  1.5999  0.6630  2.0777
 2485TIP3   OH228869   4.892   5.571   5.189 -0.5866  0.5004 -0.0355
 2485TIP3    H128870   4.960   5.638   5.188 -0.0569 -0.0422 -0.2347
 2485TIP3    H228871   4.929   5.499   5.241  0.0761 -0.9239 -2.4142
 2486TIP3   OH228872   3.101   2.807  13.394  0.1759 -0.3532 -0.4274
 2486TIP3    H128873   3.162   2.739  13.421  1.1500 -0.2845 -2.3620
 2486TIP3    H228874   3.093   2.796  13.299 -0.1570  1.7896 -0.6749
 2487TIP3   OH228875   5.503   1.846   1.916 -0.1048 -0.0890 -0.1096
 2487TIP3    H128876   5.585   1.858   1.869 -0.3656  0.1013 -0.5136
 2487TIP3    H228877   5.529   1.837   2.008  0.7064 -3.8599 -0.6261
 2488TIP3   OH228878   1.579   0.728   6.274  0.1746 -0.6991 -0.2002
 2488TIP3    H128879   1.505   0.668   6.261 -0.4397 -0.1224  0.6491
 2488TIP3    H228880   1.632   0.717   6.195 -2.0233  0.5970 -1.9218
 2489TIP3   OH228881   0.785   6.211  14.749 -0.1430 -0.5641  0.1005
 2489TIP3    H128882   0.776   6.307  14.750  0.9587 -0.4542 -0.1411
 2489TIP3    H228883   0.747   6.183  14.832  0.4858  0.1796  0.6552
 2490TIP3   OH228884   1.920   3.915  12.585  0.3758  0.0104 -0.0836
 2490TIP3    H128885   1.849   3.884  12.641 -0.2051 -0.2272 -0.9504
 2490TIP3    H228886   1.925   4.009  12.602  0.2911 -0.0805  0.4562
 2491TIP3   OH228887   5.211   3.428  15.194 -0.0308 -0.2304  0.3639
 2491TIP3    H128888   5.166   3.415  15.111  0.1648 -1.2471  0.4091
 2491TIP3    H228889   5.166   3.502  15.234 -1.8578 -1.4019  0.5510
 2492TIP3   OH228890   2.388   0.182   6.061  0.0109  0.6407  0.4339
 2492TIP3    H128891   2.477   0.192   6.096 -0.0983  0.7635  0.6831
 2492TIP3    H228892   2.341   0.257   6.096 -0.4162  0.0977  1.0305
 2493TIP3   OH228893   3.218   3.210   5.432  0.0791  0.1209  0.5031
 2493TIP3    H128894   3.158   3.271   5.389 -0.1960 -1.3611 -1.2547
 2493TIP3    H228895   3.171   3.181   5.510 -1.8422 -1.5840 -1.2381
 2494TIP3   OH228896   0.828   5.003   1.463  0.2777  0.2930  0.0379
 2494TIP3    H128897   0.781   5.007   1.546  1.1200  0.1286  0.5318
 2494TIP3    H228898   0.917   5.031   1.485  0.9445 -1.3445 -0.4747
 2495TIP3   OH228899   5.621   6.282   5.496  0.4139  0.0168 -0.0852
 2495TIP3    H128900   5.638   6.193   5.526  2.0103 -0.1501 -1.3968
 2495TIP3    H228901   5.544   6.310   5.545  0.9742 -1.4283  1.6473
 2496TIP3   OH228902   5.871   6.746   2.487 -0.1015 -0.1313 -0.0374
 2496TIP3    H128903   5.848   6.797   2.564 -0.9074 -0.1540 -0.2549
 2496TIP3    H228904   5.948   6.790   2.451  1.3692 -1.1661  1.7703
 2497TIP3   OH228905   1.235   4.352  16.546 -0.6770 -0.0110 -0.3829
 2497TIP3    H128906   1.176   4.280  16.523 -0.3885 -0.1899 -0.5625
 2497TIP3    H228907   1.266   4.386  16.462 -0.1425 -0.2330 -0.2770
 2498TIP3   OH228908   2.739   5.144   2.889  0.2757 -0.1179  0.6214
 2498TIP3    H128909   2.771   5.150   2.979 -0.3051  0.1575  0.8110
 2498TIP3    H228910   2.723   5.051   2.875 -0.1291 -0.1006  0.9742
 2499TIP3   OH228911   5.963   2.467   2.172 -0.1032  0.0553 -0.5708
 2499TIP3    H128912   6.033   2.407   2.195 -0.5242 -0.9873 -1.9243
 2499TIP3    H228913   5.889   2.440   2.227 -0.4490 -1.0061 -1.5572
 2500TIP3   OH228914   2.122   2.870   6.207 -0.2209  0.6906  0.0300
 2500TIP3    H128915   2.072   2.949   6.187 -1.4971  0.1320  0.9824
 2500TIP3    H228916   2.102   2.851   6.298  0.6582 -0.3235  0.0245
 2501TIP3   OH228917   4.464   2.887   1.053  0.2868 -0.2722  0.1445
 2501TIP3    H128918   4.378   2.924   1.034  0.2768 -0.6387 -0.5566
 2501TIP3    H228919   4.458   2.796   1.023  1.8869  0.5339 -2.8673
 2502TIP3   OH228920   1.775   4.654   5.427  0.1005 -0.2230 -0.3495
 2502TIP3    H128921   1.827   4.575   5.443  0.5511  0.2391  0.4844
 2502TIP3    H228922   1.690   4.635   5.466  0.4725  0.0208  0.5851
 2503TIP3   OH228923   4.471   6.333   0.637 -0.5052  0.0856 -0.5273
 2503TIP3    H128924   4.426   6.251   0.617 -0.7736  0.3371 -0.9670
 2503TIP3    H228925   4.552   6.328   0.586  0.0535 -0.4425  0.3942
 2504TIP3   OH228926   6.221   2.947   5.330 -0.1291 -0.2588 -0.1869
 2504TIP3    H128927   6.230   2.999   5.250 -0.4525  0.3613  0.1709
 2504TIP3    H228928   6.128   2.925   5.334 -0.3861  0.9045  0.7335
 2505TIP3   OH228929   2.094   1.442   1.568  0.1882 -0.2545  0.4709
 2505TIP3    H128930   2.047   1.517   1.605  0.9394  1.0870 -1.1828
 2505TIP3    H228931   2.043   1.366   1.595 -0.4303  0.8284  2.4461
 2506TIP3   OH228932   6.666   6.270   5.038  0.9449 -0.2238 -0.1864
 2506TIP3    H128933   6.609   6.204   4.999  1.4277 -0.1803 -0.9639
 2506TIP3    H228934   6.635   6.277   5.129  0.1134 -0.6387 -0.4338
 2507TIP3   OH228935   0.642   4.976  15.686 -0.9154 -0.3688 -0.1485
 2507TIP3    H128936   0.661   5.006  15.597 -1.9013  3.1160  0.7466
 2507TIP3    H228937   0.548   4.993  15.697 -0.4968  0.6678  2.0335
 2508TIP3   OH228938   4.553   4.375  15.969  0.0909 -0.1820 -0.1166
 2508TIP3    H128939   4.635   4.415  15.940 -0.0340 -0.6209 -1.1110
 2508TIP3    H228940   4.556   4.378  16.064  2.1278 -1.9346 -0.0959
 2509TIP3   OH228941   4.474   3.332   5.398  0.0880  0.3573 -0.1076
 2509TIP3    H128942   4.466   3.388   5.475  0.8235 -0.9925  0.9769
 2509TIP3    H228943   4.387   3.294   5.387 -0.4016  1.6479 -0.8191
 2510TIP3   OH228944   1.891   0.709   2.946 -0.1267  0.2082  0.3918
 2510TIP3    H128945   1.902   0.803   2.959 -1.4716  0.3743  0.4182
 2510TIP3    H228946   1.930   0.669   3.023  0.1883  0.7658  0.5230
 2511TIP3   OH228947   4.691   0.517  14.928 -0.1698 -0.4322  0.0387
 2511TIP3    H128948   4.651   0.577  14.865 -2.6520 -2.2456 -0.2203
 2511TIP3    H228949   4.710   0.438  14.877  0.8717 -0.7257  0.8685
 2512TIP3   OH228950   5.337   0.326   3.375 -0.0375 -0.3944 -0.3494
 2512TIP3    H128951   5.253   0.312   3.330 -0.1659 -0.2390 -0.1569
 2512TIP3    H228952   5.350   0.246   3.426 -1.3645  0.6517  1.6995
 2513TIP3   OH228953   3.259   4.112  13.079 -0.4809  0.0881  0.3512
 2513TIP3    H128954   3.314   4.187  13.102 -1.5007 -0.1692  3.8447
 2513TIP3    H228955   3.214   4.140  12.998  0.6179  2.4491  0.5090
 2514TIP3   OH228956   6.629   0.943  13.905 -0.3558  0.2272  0.3376
 2514TIP3    H128957   6.568   1.017  13.904 -0.1559  0.3888  0.0591
 2514TIP3    H228958   6.613   0.898  13.822  0.6663  0.9003 -0.2459
 2515TIP3   OH228959   5.923   4.838  10.494 -0.2797 -0.4083 -0.3517
 2515TIP3    H128960   6.013   4.855  10.521 -0.4190  1.7297 -1.1422
 2515TIP3    H228961   5.918   4.743  10.488  1.3845 -0.6543  1.4779
 2516TIP3   OH228962   5.487   1.461   0.193 -0.0795  0.0490  0.5242
 2516TIP3    H128963   5.504   1.398   0.124  1.0905  0.8089  0.1173
 2516TIP3    H228964   5.412   1.424   0.241 -0.9319 -0.4514 -1.1539
 2517TIP3   OH228965   3.766   3.183   6.265  0.3622 -0.2357  0.2744
 2517TIP3    H128966   3.677   3.152   6.272  0.2431 -0.8597 -3.0235
 2517TIP3    H228967   3.757   3.277   6.246  0.3663 -0.4127 -0.6311
 2518TIP3   OH228968   5.099   6.035   4.237  0.3547  0.2993 -0.1838
 2518TIP3    H128969   5.030   6.020   4.302  0.1505  1.0999 -0.2096
 2518TIP3    H228970   5.059   6.012   4.153 -0.5853  2.7721 -0.4521
 2519TIP3   OH228971   5.569   4.440   4.931 -0.3570  0.0924  0.0283
 2519TIP3    H128972   5.511   4.516   4.934 -0.7087 -0.2048  0.6837
 2519TIP3    H228973   5.511   4.365   4.922  0.0003 -0.0924 -0.8894
 2520TIP3   OH228974   0.391   0.288  16.150 -0.1710 -0.7453 -0.6409
 2520TIP3    H128975   0.430   0.368  16.115  0.4233 -0.0130  1.6024
 2520TIP3    H228976   0.465   0.236  16.180 -0.6945 -1.1035  0.0433
 2521TIP3   OH228977   2.451   2.944   2.898  0.2552  0.3512 -0.0112
 2521TIP3    H128978   2.530   2.889   2.898 -0.9904 -1.4837  0.4376
 2521TIP3    H228979   2.397   2.909   2.827  0.6530  2.8343 -1.5717
 2522TIP3   OH228980   1.259   6.483  13.287 -0.1219  0.0993  0.1159
 2522TIP3    H128981   1.294   6.426  13.356  1.9619  0.0533 -0.9314
 2522TIP3    H228982   1.165   6.468  13.289 -0.0670 -0.1048  2.7552
 2523TIP3   OH228983   3.470   6.296  16.744  0.0691  0.2032  0.0775
 2523TIP3    H128984   3.454   6.220  16.799  1.6021  0.8552  1.4767
 2523TIP3    H228985   3.430   6.369  16.792  2.0164  0.8913  0.7105
 2524TIP3   OH228986   2.430   0.363   4.406  0.4393  0.1704  0.1228
 2524TIP3    H128987   2.445   0.324   4.320 -0.2868  0.6042 -0.2035
 2524TIP3    H228988   2.335   0.379   4.410  0.2382 -1.2472  1.6081
 2525TIP3   OH228989   1.942   2.953  12.967  0.1155  0.0542 -0.1981
 2525TIP3    H128990   2.036   2.938  12.973 -0.0801 -0.8588  0.7880
 2525TIP3    H228991   1.909   2.880  12.916  0.1461  1.2580 -1.9666
 2526TIP3   OH228992   1.364   3.889   0.846  0.1239 -0.2183 -0.0600
 2526TIP3    H128993   1.349   3.816   0.906  0.6646  1.4640  2.2003
 2526TIP3    H228994   1.409   3.850   0.772 -1.1729 -2.4839  0.2828
 2527TIP3   OH228995   5.781   3.156  13.748 -0.3233 -0.3448  0.0556
 2527TIP3    H128996   5.764   3.158  13.653 -1.1388 -1.6093  0.1592
 2527TIP3    H228997   5.700   3.121  13.786  0.6488 -1.5226  1.0563
 2528TIP3   OH228998   0.125   4.843   5.978 -0.0288  0.2504 -0.6924
 2528TIP3    H128999   0.129   4.937   5.994  1.4484  0.1866 -0.6237
 2528TIP3    H229000   0.216   4.817   5.960 -0.1464 -1.4416  0.9312
 2529TIP3   OH229001   0.699   0.844  17.070 -0.3186  0.2394  0.2876
 2529TIP3    H129002   0.750   0.763  17.066 -0.4986  0.2288 -3.3804
 2529TIP3    H229003   0.762   0.910  17.100  0.0403 -1.0627  2.4752
 2530TIP3   OH229004   6.217   3.171   4.945 -0.1375 -0.4812  0.2402
 2530TIP3    H129005   6.228   3.230   4.871  1.6511 -1.6476 -0.4423
 2530TIP3    H229006   6.204   3.230   5.020 -0.0366  0.7368 -0.6790
 2531TIP3   OH229007   2.312   1.496   3.125 -0.2455  0.3570  0.0341
 2531TIP3    H129008   2.317   1.583   3.086 -1.1601 -0.4730 -1.9684
 2531TIP3    H229009   2.403   1.476   3.149  0.1239  1.4452 -0.4046
 2532TIP3   OH229010   0.742   2.215  12.296  0.0097 -0.1100  0.3357
 2532TIP3    H129011   0.660   2.185  12.335  0.1267  1.2591  1.6981
 2532TIP3    H229012   0.803   2.220  12.371  1.0339 -0.1277 -0.4848
 2533TIP3   OH229013   6.459   1.583   6.362  0.7115 -1.0429 -0.0503
 2533TIP3    H129014   6.460   1.487   6.358 -3.3572 -1.1915  0.7440
 2533TIP3    H229015   6.480   1.603   6.453  1.4371 -1.1385 -0.1871
 2534TIP3   OH229016   1.102   0.852   3.870 -0.4987  0.6666 -0.2476
 2534TIP3    H129017   1.007   0.867   3.876 -0.7252 -0.7077 -0.2155
 2534TIP3    H229018   1.110   0.771   3.820  0.6735  0.7975 -0.2770
 2535TIP3   OH229019   3.177   5.645   4.904 -0.2357  0.5479  0.2531
 2535TIP3    H129020   3.254   5.630   4.849 -0.6953 -0.3917 -0.1503
 2535TIP3    H229021   3.104   5.646   4.842 -0.9432 -2.1299  0.9923
 2536TIP3   OH229022   0.435   4.024  11.049 -0.0335  0.4448  0.3391
 2536TIP3    H129023   0.470   3.965  11.116  0.4717  1.2062  0.7493
 2536TIP3    H229024   0.506   4.031  10.985 -0.1611  0.4634  0.2003
 2537TIP3   OH229025   0.862   1.192   4.857 -0.2937  0.3753  0.1165
 2537TIP3    H129026   0.891   1.137   4.784 -0.4259  1.4346 -0.7547
 2537TIP3    H229027   0.858   1.281   4.820 -0.2845  0.9420  1.4309
 2538TIP3   OH229028   0.590   5.536  10.455 -0.5053  0.2378 -0.1639
 2538TIP3    H129029   0.502   5.499  10.452 -0.1960 -0.4368 -1.1303
 2538TIP3    H229030   0.577   5.625  10.489 -1.6394  0.3899 -0.9591
 2539TIP3   OH229031   3.461   0.085  14.888 -0.4274  0.1816 -0.0068
 2539TIP3    H129032   3.427   0.126  14.809 -1.0942 -0.8053 -0.2387
 2539TIP3    H229033   3.386   0.079  14.947 -0.8448 -2.4814 -0.7150
 2540TIP3   OH229034   4.686   6.621  16.693  0.0294 -0.4241  0.0711
 2540TIP3    H129035   4.672   6.539  16.740  2.2152 -0.8640  0.0110
 2540TIP3    H229036   4.664   6.600  16.602  3.9188 -1.9754 -0.5866
 2541TIP3   OH229037   0.268   1.551   4.857 -0.2901 -0.5048 -0.7039
 2541TIP3    H129038   0.285   1.499   4.936  0.8689  0.5412 -0.2475
 2541TIP3    H229039   0.347   1.538   4.803  0.3177  1.3181 -0.2788
 2542TIP3   OH229040   1.087   1.112   4.358 -0.7430 -0.1804  0.3895
 2542TIP3    H129041   1.056   1.163   4.283  0.9529  1.4565  0.7641
 2542TIP3    H229042   1.153   1.168   4.399 -0.7194 -1.6009  2.3516
 2543TIP3   OH229043   6.735   4.247  13.666 -0.0388 -0.3662 -0.0053
 2543TIP3    H129044   6.690   4.312  13.720  0.0450  0.1816 -0.5833
 2543TIP3    H229045   6.741   4.169  13.721  1.2060  0.5876  1.2501
 2544TIP3   OH229046   0.844   1.685   2.450  0.6683 -0.5370  0.0340
 2544TIP3    H129047   0.879   1.705   2.537 -0.3633  0.0385  0.3280
 2544TIP3    H229048   0.840   1.770   2.406 -1.6216 -0.3682  0.4932
 2545TIP3   OH229049   0.044   4.314  17.095  0.0467 -0.3015 -0.4534
 2545TIP3    H129050   0.117   4.375  17.091  0.8034 -1.1236  0.5427
 2545TIP3    H229051  -0.022   4.358  17.149  0.6718 -0.4468  0.4346
 2546TIP3   OH229052   4.770   1.098  15.226 -0.1750 -0.2118  0.0857
 2546TIP3    H129053   4.771   1.129  15.136  0.8688 -0.3844  0.0268
 2546TIP3    H229054   4.858   1.118  15.259 -0.0281 -1.5982  0.5590
 2547TIP3   OH229055   3.657   2.842   0.823  0.5529 -0.0386  0.3665
 2547TIP3    H129056   3.631   2.901   0.752  1.2556 -0.7851 -0.5285
 2547TIP3    H229057   3.682   2.900   0.894 -0.5188  0.7224  0.1462
 2548TIP3   OH229058   5.315   2.789   4.180 -0.3522  0.4381 -0.6206
 2548TIP3    H129059   5.399   2.752   4.150  1.1578  1.8346  1.7205
 2548TIP3    H229060   5.252   2.761   4.114  1.1682 -4.2001 -0.3308
 2549TIP3   OH229061   3.333   6.631  12.855 -0.5924 -0.5599 -1.3184
 2549TIP3    H129062   3.418   6.663  12.884 -0.2396 -1.3023 -1.5219
 2549TIP3    H229063   3.353   6.559  12.795 -1.3226  0.2844 -2.6286
 2550TIP3   OH229064   5.784   2.690  14.266  0.3486 -0.2249 -0.2551
 2550TIP3    H129065   5.870   2.690  14.309 -0.2030 -0.3579  0.8583
 2550TIP3    H229066   5.728   2.638  14.323 -0.4998 -0.0840 -0.9399
 2551TIP3   OH229067   0.311   6.527   0.991  0.2796  0.4245  0.3368
 2551TIP3    H129068   0.305   6.615   1.030 -0.5359  0.7230 -0.4330
 2551TIP3    H229069   0.233   6.482   1.024  0.6886 -0.0089  0.7146
 2552TIP3   OH229070   3.648   3.251   4.649  0.0724 -0.0601  0.7735
 2552TIP3    H129071   3.612   3.278   4.565 -0.9136 -0.5066  1.0456
 2552TIP3    H229072   3.690   3.330   4.684  0.3360  0.1699 -0.0529
 2553TIP3   OH229073   2.712   6.282  15.483 -0.4630  0.2753  0.4499
 2553TIP3    H129074   2.625   6.255  15.511 -0.6818 -0.3905 -0.8698
 2553TIP3    H229075   2.771   6.217  15.522 -0.5442  0.6526  1.2313
 2554TIP3   OH229076   1.086   2.557  15.270  0.4407  0.0401 -0.6325
 2554TIP3    H129077   1.131   2.477  15.244  1.0225  0.1848 -0.1015
 2554TIP3    H229078   1.010   2.528  15.319 -0.6304 -0.2318 -2.4343
 2555TIP3   OH229079   4.001   3.813  14.349  0.2589  0.2060  0.2401
 2555TIP3    H129080   4.003   3.720  14.372  2.2091  0.7451  2.4477
 2555TIP3    H229081   4.004   3.814  14.253  2.1653 -1.9920  0.2327
 2556TIP3   OH229082   2.803   2.687   2.241  0.1485 -0.1983 -0.7313
 2556TIP3    H129083   2.890   2.711   2.273 -0.3927  0.4508  0.2534
 2556TIP3    H229084   2.754   2.769   2.240 -0.0880 -0.3510 -2.4752
 2557TIP3   OH229085   6.233   4.827   2.122  0.3262  0.3749  0.4304
 2557TIP3    H129086   6.328   4.819   2.120  0.1542 -1.7487 -1.4836
 2557TIP3    H229087   6.204   4.759   2.183 -0.0504 -0.2774 -0.4597
 2558TIP3   OH229088   5.520   0.439   2.703 -0.0412 -0.4322 -0.0854
 2558TIP3    H129089   5.543   0.370   2.764  0.8421  0.1217  0.2191
 2558TIP3    H229090   5.585   0.431   2.633 -0.8509 -0.8601 -0.7945
 2559TIP3   OH229091   1.177   0.143  12.447 -0.2679  0.7983  0.5729
 2559TIP3    H129092   1.122   0.127  12.523  2.3362  1.1508  2.5747
 2559TIP3    H229093   1.262   0.106  12.470  0.1156 -0.6526 -2.8537
 2560TIP3   OH229094   6.006   1.222   0.530  0.2458  0.5327  0.2495
 2560TIP3    H129095   6.056   1.193   0.606 -2.8985 -1.1830  1.7709
 2560TIP3    H229096   5.948   1.290   0.563 -0.8118  0.1104 -0.7169
 2561TIP3   OH229097   6.387   3.774   5.657  0.4739  0.0589  0.3602
 2561TIP3    H129098   6.331   3.745   5.729 -0.0392  2.7718  1.1181
 2561TIP3    H229099   6.412   3.693   5.612 -1.2461 -1.4789  2.0613
 2562TIP3   OH229100   2.946   1.215   1.483 -0.0519  0.1072 -0.4328
 2562TIP3    H129101   3.014   1.224   1.417 -0.1792 -0.3351 -0.6224
 2562TIP3    H229102   2.866   1.200   1.434 -0.0610 -0.7532 -0.1614
 2563TIP3   OH229103   1.350   6.656  12.224  0.3171 -0.4082  0.3733
 2563TIP3    H129104   1.331   6.745  12.193 -3.1211 -0.6274  1.5558
 2563TIP3    H229105   1.422   6.626  12.169  1.4835  3.0519 -0.1239
 2564TIP3   OH229106   4.770   3.328  16.345 -0.9433 -0.3314  0.1937
 2564TIP3    H129107   4.685   3.328  16.300  0.1619  1.5555 -2.0244
 2564TIP3    H229108   4.754   3.373  16.427 -2.3654 -1.1672  0.3978
 2565TIP3   OH229109   2.269   1.228  12.897  0.5506  0.4870 -0.3518
 2565TIP3    H129110   2.236   1.315  12.872 -0.9719  0.1042  0.2876
 2565TIP3    H229111   2.210   1.199  12.967  2.3185 -0.1756  0.8943
 2566TIP3   OH229112   4.650   3.920   5.420 -0.1509 -0.0407  0.4713
 2566TIP3    H129113   4.687   4.000   5.457 -0.7657  0.4849 -0.0293
 2566TIP3    H229114   4.726   3.864   5.403  0.4821  1.1715 -0.8785
 2567TIP3   OH229115   1.744   6.360   2.736  0.4312  0.0818  0.2188
 2567TIP3    H129116   1.718   6.408   2.657 -0.9406  0.2531  0.7600
 2567TIP3    H229117   1.805   6.418   2.781  0.2323  0.5165 -0.0763
 2568TIP3   OH229118   3.113   4.328  15.894 -0.2460 -0.6351  0.0534
 2568TIP3    H129119   3.106   4.383  15.817 -1.2743 -0.5315  0.2204
 2568TIP3    H229120   3.042   4.264  15.885  0.4869 -1.4841  0.2196
 2569TIP3   OH229121   6.316   2.931  15.443 -0.1702 -0.0945 -0.3785
 2569TIP3    H129122   6.286   2.841  15.428 -1.0324  0.1448 -0.1390
 2569TIP3    H229123   6.407   2.931  15.415 -0.5629 -0.6915 -1.6788
 2570TIP3   OH229124   0.967   1.363  16.244 -0.2844  0.0840  0.1162
 2570TIP3    H129125   1.052   1.326  16.217 -0.7516 -0.9887  0.0799
 2570TIP3    H229126   0.906   1.337  16.175 -0.6637  0.7965  0.1758
 2571TIP3   OH229127   0.283   6.629  10.991 -0.0687  0.2472  0.2971
 2571TIP3    H129128   0.375   6.622  10.967 -0.2273  1.4097 -0.6858
 2571TIP3    H229129   0.235   6.603  10.912 -0.5816  2.2042 -0.0598
 2572TIP3   OH229130   5.838   0.519   0.536 -0.1816  0.3589  0.0886
 2572TIP3    H129131   5.842   0.480   0.624 -0.4157 -1.5102 -0.6952
 2572TIP3    H229132   5.750   0.556   0.530 -1.4745 -2.6029 -0.5580
 2573TIP3   OH229133   1.587   1.416   5.786  0.1257 -0.8655 -0.3890
 2573TIP3    H129134   1.608   1.383   5.874  1.7944  1.8160  0.2802
 2573TIP3    H229135   1.535   1.494   5.802  1.2755  0.1895 -1.7556
 2574TIP3   OH229136   5.965   5.743  10.810 -0.0637  0.2970 -0.1289
 2574TIP3    H129137   5.875   5.724  10.784  0.2043  0.4530 -1.1744
 2574TIP3    H229138   5.995   5.809  10.748  0.8161  0.1485  0.1284
 2575TIP3   OH229139   6.233   1.098   3.164  0.3993 -0.2775  0.4340
 2575TIP3    H129140   6.246   1.072   3.073 -1.8685 -0.3986  0.1258
 2575TIP3    H229141   6.138   1.098   3.176  0.6959 -2.6982  3.4921
 2576TIP3   OH229142   5.810   4.667  12.896  0.2932  0.1345  0.2146
 2576TIP3    H129143   5.810   4.665  12.992  0.0049  0.4565  0.2184
 2576TIP3    H229144   5.723   4.699  12.872  0.1708 -0.4831 -0.1670
 2577TIP3   OH229145   1.769   4.610  12.140  0.0821 -0.3942  0.1250
 2577TIP3    H129146   1.792   4.655  12.059 -0.4570  0.0322  0.1992
 2577TIP3    H229147   1.750   4.520  12.113  1.5663 -0.6949  0.0330
 2578TIP3   OH229148   2.850   2.134  15.844  0.4314  0.0046  0.6713
 2578TIP3    H129149   2.879   2.195  15.913 -0.6767  0.3585  0.8377
 2578TIP3    H229150   2.756   2.152  15.834 -0.0110 -2.0179  1.0513
 2579TIP3   OH229151   3.361   2.966  13.553  0.1075 -0.0517 -0.1883
 2579TIP3    H129152   3.315   2.882  13.546  0.4316 -0.1099 -1.7663
 2579TIP3    H229153   3.309   3.025  13.499  1.3794  0.1100 -1.2363
 2580TIP3   OH229154   3.282   4.490  13.501 -0.2593 -0.3119 -0.3928
 2580TIP3    H129155   3.376   4.486  13.487 -0.3433 -0.6740 -0.8499
 2580TIP3    H229156   3.244   4.462  13.418 -0.7613 -1.8190  0.3347
 2581TIP3   OH229157   1.886   5.807   0.864 -0.0069  0.2622  0.3407
 2581TIP3    H129158   1.924   5.781   0.948 -1.2108  0.0568  0.8334
 2581TIP3    H229159   1.815   5.867   0.888 -0.9929 -0.5655 -0.4730
 2582TIP3   OH229160   1.413   6.060   4.463 -0.1453 -0.3973  0.0295
 2582TIP3    H129161   1.488   6.091   4.514  0.1639  1.1096 -1.3043
 2582TIP3    H229162   1.354   6.134   4.460  0.1058 -0.2424 -2.2804
 2583TIP3   OH229163   5.934   1.944   4.809 -0.5758  0.2745 -0.4656
 2583TIP3    H129164   5.876   2.011   4.844 -1.2382 -0.4412 -0.1873
 2583TIP3    H229165   5.982   1.912   4.885  0.2583  0.9316 -0.7100
 2584TIP3   OH229166   5.219   5.292   3.518  0.6824  0.1535 -0.1840
 2584TIP3    H129167   5.178   5.226   3.462  0.4734 -0.7348  1.0123
 2584TIP3    H229168   5.165   5.293   3.597  0.6690  1.7750 -0.1988
 2585TIP3   OH229169   0.576   2.443  14.932 -0.1527 -0.4203  0.1220
 2585TIP3    H129170   0.539   2.485  15.010 -2.2104 -1.0957 -0.4502
 2585TIP3    H229171   0.542   2.353  14.935  0.4865 -0.7074 -1.0709
 2586TIP3   OH229172   1.045   2.448  10.723 -0.1630  0.3855 -0.4311
 2586TIP3    H129173   1.031   2.397  10.643  0.0129  1.3192 -1.0684
 2586TIP3    H229174   1.045   2.383  10.793 -0.1807 -0.4620 -1.2048
 2587TIP3   OH229175   3.158   3.612   1.616 -0.6450  0.3356 -0.0294
 2587TIP3    H129176   3.188   3.581   1.531  1.2060  0.2587  0.6092
 2587TIP3    H229177   3.133   3.532   1.663 -2.1537  0.4249 -0.6697
 2588TIP3   OH229178   5.369   2.752  13.644 -0.3311  0.3564 -0.4952
 2588TIP3    H129179   5.323   2.825  13.603  1.2069  0.5330 -1.9445
 2588TIP3    H229180   5.366   2.682  13.579  2.1373  0.6436 -0.9613
 2589TIP3   OH229181   2.496   1.602  12.052  0.5389  0.4155 -0.0326
 2589TIP3    H129182   2.480   1.560  12.136 -0.2859 -2.0762 -1.3850
 2589TIP3    H229183   2.558   1.545  12.008  0.3918  1.2911 -1.4156
 2590TIP3   OH229184   3.264   5.442  13.558  0.0470  0.3301  0.1575
 2590TIP3    H129185   3.322   5.396  13.498  1.0377  1.3709  0.2779
 2590TIP3    H229186   3.210   5.374  13.597  1.0746 -0.6498 -0.0984
 2591TIP3   OH229187   4.409   4.856  12.959  0.7198 -0.5047  0.3228
 2591TIP3    H129188   4.480   4.910  12.924 -1.4691  2.2138 -0.0905
 2591TIP3    H229189   4.425   4.854  13.053  2.7081 -2.0415  0.0001
 2592TIP3   OH229190   3.823   5.442  16.335  0.2723 -0.4595  0.2610
 2592TIP3    H129191   3.754   5.486  16.384  0.4503 -1.4242  1.4001
 2592TIP3    H229192   3.904   5.477  16.372  0.4215  0.8391 -1.2287
 2593TIP3   OH229193   2.516   4.437   3.686  0.1935 -0.1007  0.4753
 2593TIP3    H129194   2.482   4.495   3.618  2.2635  0.3273 -0.2325
 2593TIP3    H229195   2.482   4.351   3.663 -0.7774  0.3836  0.0641
 2594TIP3   OH229196   3.013   2.630   0.755 -0.4876 -0.2477  0.1219
 2594TIP3    H129197   2.933   2.632   0.702 -0.0151 -2.6078 -0.7434
 2594TIP3    H229198   3.075   2.684   0.706 -0.0263 -2.4673 -1.8448
 2595TIP3   OH229199   2.511   5.038  14.311  0.3543  0.5591 -0.0228
 2595TIP3    H129200   2.524   5.031  14.405 -0.7134 -1.5560 -0.0005
 2595TIP3    H229201   2.459   5.117  14.299  2.7220  2.3243  0.9036
 2596TIP3   OH229202   4.957   3.990  13.580  0.4120  0.0584 -0.4262
 2596TIP3    H129203   4.972   3.926  13.649 -0.0074 -0.9606 -1.2634
 2596TIP3    H229204   4.865   4.013  13.589  0.6702  0.8759  0.1486
 2597TIP3   OH229205   1.700   0.897   2.152  1.1100 -0.1417  0.3217
 2597TIP3    H129206   1.681   0.958   2.224 -0.7108 -1.8954  1.3698
 2597TIP3    H229207   1.752   0.828   2.193 -0.3891 -1.4236  0.1301
 2598TIP3   OH229208   4.135   1.066   6.134 -0.8567  0.5687  0.6569
 2598TIP3    H129209   4.098   1.153   6.149  0.6497  1.4021 -0.3621
 2598TIP3    H229210   4.111   1.045   6.044 -2.4535 -0.7119  1.3557
 2599TIP3   OH229211   4.502   0.370   5.014 -0.2289  0.5699 -0.0934
 2599TIP3    H129212   4.459   0.352   5.097  1.9320  1.6580  1.3121
 2599TIP3    H229213   4.480   0.461   4.994 -0.6191  0.3593 -0.6418
 2600TIP3   OH229214   5.534   3.678  13.623  0.7398  0.7185  0.0792
 2600TIP3    H129215   5.629   3.681  13.612  0.7951 -1.3682 -0.0650
 2600TIP3    H229216   5.503   3.626  13.550 -0.3956  0.3645  0.8052
 2601TIP3   OH229217   6.508   5.901   0.083  0.5208  0.5163 -0.1842
 2601TIP3    H129218   6.423   5.869   0.053  0.2748  0.7255  0.2772
 2601TIP3    H229219   6.527   5.849   0.161  0.4309  1.0248  0.1828
 2602TIP3   OH229220   6.391   2.061   4.933  0.6232 -0.1868 -0.3377
 2602TIP3    H129221   6.329   2.002   4.889  0.2171 -0.8283  1.0397
 2602TIP3    H229222   6.336   2.116   4.989  1.0854  0.9524 -0.9878
 2603TIP3   OH229223   1.934   3.381   1.666 -0.1485  0.1651  0.2571
 2603TIP3    H129224   1.888   3.313   1.616 -1.8030  0.5435  1.2585
 2603TIP3    H229225   2.026   3.354   1.662 -0.5851 -1.2731 -0.6997
 2604TIP3   OH229226   1.824   6.670   4.240 -0.2435  0.4000 -0.5617
 2604TIP3    H129227   1.853   6.707   4.323  2.4307 -1.0748 -0.7979
 2604TIP3    H229228   1.816   6.745   4.181 -0.0919  1.2040  0.4338
 2605TIP3   OH229229   0.881   6.514  11.929 -0.7027  0.4596  0.0585
 2605TIP3    H129230   0.835   6.535  12.010 -3.8081  0.3017 -1.6041
 2605TIP3    H229231   0.938   6.590  11.914 -1.0778  1.0789  1.6768
 2606TIP3   OH229232   1.659   1.235   4.715 -0.2743  0.1885 -0.3194
 2606TIP3    H129233   1.612   1.286   4.649  0.5634  2.1643  0.5486
 2606TIP3    H229234   1.729   1.192   4.667 -0.5393  0.4648 -0.9608
 2607TIP3   OH229235   6.253   4.220  16.374 -0.5911 -0.3327  0.1648
 2607TIP3    H129236   6.184   4.263  16.424  0.0520 -0.2161  0.9599
 2607TIP3    H229237   6.322   4.201  16.438  0.9579  1.2906 -0.9484
 2608TIP3   OH229238   3.331   0.841   2.158  0.0414  0.1083  0.3440
 2608TIP3    H129239   3.276   0.812   2.085 -0.0917 -1.4138  1.0395
 2608TIP3    H229240   3.362   0.760   2.198 -0.0222  0.9341  2.0751
 2609TIP3   OH229241   3.942   0.280  16.402  0.3304  0.8551  0.4208
 2609TIP3    H129242   3.930   0.289  16.307 -0.9786  2.9839  0.7659
 2609TIP3    H229243   3.866   0.324  16.440  1.1333  0.5032  2.4771
 2610TIP3   OH229244   0.225   1.050  15.807  0.2046  0.2921  0.0228
 2610TIP3    H129245   0.274   1.016  15.882  2.2722  2.7694 -0.1167
 2610TIP3    H229246   0.226   1.145  15.820 -0.5874  0.6625 -2.4430
 2611TIP3   OH229247   5.122   6.599  17.169 -0.0630 -0.6534 -0.1436
 2611TIP3    H129248   5.204   6.562  17.202  0.8184  0.1577 -1.3946
 2611TIP3    H229249   5.098   6.542  17.095  0.3182  0.1708 -0.9049
 2612TIP3   OH229250   0.444   6.649  12.143 -0.4958 -0.3256  0.3245
 2612TIP3    H129251   0.446   6.745  12.137 -0.1919 -0.3854 -0.6824
 2612TIP3    H229252   0.397   6.621  12.064 -3.0893 -0.9006  2.0011
 2613TIP3   OH229253   4.193   2.845  16.237  0.5120  0.0644  0.3132
 2613TIP3    H129254   4.244   2.778  16.190  1.5188  1.7297 -1.0079
 2613TIP3    H229255   4.216   2.927  16.194 -1.5230  1.1503  1.2494
 2614TIP3   OH229256   5.840   2.736  16.180  0.2888 -0.4858 -0.1195
 2614TIP3    H129257   5.769   2.676  16.205 -1.1655  0.5074 -1.7032
 2614TIP3    H229258   5.846   2.798  16.252  1.2105 -2.0040  1.1328
 2615TIP3   OH229259   1.652   6.033  11.307  0.4509 -0.9870  0.3412
 2615TIP3    H129260   1.724   6.080  11.265 -0.4276 -0.8451 -1.0074
 2615TIP3    H229261   1.695   5.964  11.358  1.6247 -0.0147  0.6968
 2616TIP3   OH229262   1.791   5.161   4.851  0.1825 -0.3073  0.0331
 2616TIP3    H129263   1.754   5.092   4.906 -0.7158  0.3620  0.2777
 2616TIP3    H229264   1.824   5.226   4.913 -0.5805  0.3144 -0.1986
 2617TIP3   OH229265   2.799   5.775   0.973  0.4021 -0.0149  0.4420
 2617TIP3    H129266   2.739   5.739   1.038  0.9428 -1.6786  0.0559
 2617TIP3    H229267   2.743   5.825   0.914 -0.6758 -1.7738 -0.0752
 2618TIP3   OH229268   6.212   6.725  14.922 -0.4741  0.0690 -0.6393
 2618TIP3    H129269   6.276   6.739  14.992  0.1914  0.3912 -1.3115
 2618TIP3    H229270   6.132   6.767  14.954  0.8869  3.5865 -1.7096
 2619TIP3   OH229271   2.243   1.790   3.731 -0.3021  0.2426 -0.2401
 2619TIP3    H129272   2.262   1.882   3.747 -2.8713  0.3981  2.2569
 2619TIP3    H229273   2.271   1.745   3.811 -1.2921 -0.8147 -0.4763
 2620TIP3   OH229274   6.349   3.680   3.221  0.3974  0.1292 -0.2023
 2620TIP3    H129275   6.347   3.711   3.311  2.2052  0.6873 -0.3362
 2620TIP3    H229276   6.350   3.585   3.227 -0.7292  0.1383  0.3175
 2621TIP3   OH229277   4.960   2.554   3.624 -0.3175 -0.2546 -0.3617
 2621TIP3    H129278   4.871   2.588   3.619 -0.1900  0.3321  1.0259
 2621TIP3    H229279   5.013   2.629   3.652  0.5403 -0.6904 -0.7863
 2622TIP3   OH229280   2.991   4.344   6.164  0.3058  1.0736 -0.1021
 2622TIP3    H129281   2.896   4.343   6.147  0.6204  0.7517 -1.9077
 2622TIP3    H229282   3.007   4.430   6.203 -0.7194  1.1596  0.1470
 2623TIP3   OH229283   6.746   5.471  12.944  0.0401  0.2132  0.0211
 2623TIP3    H129284   6.753   5.460  13.038  0.2948  1.4086  0.1515
 2623TIP3    H229285   6.822   5.424  12.908 -0.3083 -0.6286  0.3666
 2624TIP3   OH229286   5.844   5.199  12.953  0.2217 -0.5326  0.4986
 2624TIP3    H129287   5.888   5.254  12.888  1.0558 -0.7696  0.8520
 2624TIP3    H229288   5.788   5.141  12.902  1.0926 -0.9107 -0.0347
 2625TIP3   OH229289   0.880   0.932  14.956 -0.3991 -0.6645 -0.2957
 2625TIP3    H129290   0.815   0.880  15.004 -1.4131 -0.1149 -1.0587
 2625TIP3    H229291   0.944   0.868  14.925 -0.1753 -1.1250  1.0896
 2626TIP3   OH229292   2.669   4.555   4.256  0.2231 -0.2278  0.5653
 2626TIP3    H129293   2.740   4.606   4.219  0.0582 -1.2295 -1.1734
 2626TIP3    H229294   2.672   4.573   4.350  0.6003  2.4064  0.0695
 2627TIP3   OH229295   6.252   6.375  10.690  0.0870 -0.1881  0.0679
 2627TIP3    H129296   6.226   6.467  10.691  0.4700 -0.0783  0.1302
 2627TIP3    H229297   6.171   6.327  10.707 -0.0191  0.1640  0.5735
 2628TIP3   OH229298   0.176   2.442  13.983 -0.4225  0.0037  0.0936
 2628TIP3    H129299   0.095   2.400  13.955 -1.2336  0.9493  0.9810
 2628TIP3    H229300   0.190   2.512  13.920 -0.2722 -0.1799 -0.0782
 2629TIP3   OH229301   5.850   3.411  11.153 -0.5352  0.7037 -0.1804
 2629TIP3    H129302   5.781   3.349  11.177  0.3918 -1.2848 -2.4251
 2629TIP3    H229303   5.828   3.439  11.064  0.2960  1.8336 -0.0447
 2630TIP3   OH229304   2.764   3.051  13.811 -0.4124 -0.5130  0.3128
 2630TIP3    H129305   2.821   3.017  13.742  0.7486  1.4526  0.2660
 2630TIP3    H229306   2.676   3.029  13.781  0.2043 -2.0156 -0.4903
 2631TIP3   OH229307   5.667   0.374   1.624 -0.2035  0.1793  0.2780
 2631TIP3    H129308   5.655   0.336   1.537 -1.7268 -0.4888  0.7660
 2631TIP3    H229309   5.706   0.303   1.676  1.0367  0.6918  0.0446
 2632TIP3   OH229310   4.789   3.136  14.396 -1.1726  0.1409 -0.3917
 2632TIP3    H129311   4.746   3.217  14.370  1.1042  1.7080  0.5504
 2632TIP3    H229312   4.862   3.164  14.450  0.8147 -2.4373 -1.6244
 2633TIP3   OH229313   0.201   2.631   1.794  0.0978 -0.1022 -0.7785
 2633TIP3    H129314   0.217   2.724   1.811  1.0968 -0.4852  0.4709
 2633TIP3    H229315   0.250   2.613   1.714  0.4631  0.3084 -0.6547
 2634TIP3   OH229316   6.172   5.413  13.192  0.2910  0.9250 -0.5125
 2634TIP3    H129317   6.097   5.376  13.146  0.7602 -1.9621  0.9356
 2634TIP3    H229318   6.248   5.371  13.152  0.8185 -0.0371  1.4534
 2635TIP3   OH229319   0.140   3.763   3.640  0.8725  0.3501  0.5459
 2635TIP3    H129320   0.105   3.722   3.562  1.2349  0.0432  0.5440
 2635TIP3    H229321   0.063   3.794   3.688  0.7047  1.9516 -0.6977
 2636TIP3   OH229322   2.311   1.268  14.780 -0.2781  0.1794 -0.5759
 2636TIP3    H129323   2.352   1.245  14.697 -0.6059  0.0673 -0.7084
 2636TIP3    H229324   2.220   1.238  14.771 -0.6190  1.2231 -0.6149
 2637TIP3   OH229325   1.219   3.686  12.381  0.2901 -0.3736 -0.4228
 2637TIP3    H129326   1.145   3.651  12.331 -0.1646  0.3339 -0.2380
 2637TIP3    H229327   1.233   3.621  12.450  0.9182 -1.3533 -1.4589
 2638TIP3   OH229328   3.773   3.548  16.715 -0.2633 -0.3986  0.3331
 2638TIP3    H129329   3.782   3.483  16.645 -4.0027  1.3038 -1.8899
 2638TIP3    H229330   3.811   3.628  16.677 -3.2971  0.8223 -0.2848
 2639TIP3   OH229331   4.239   4.844   0.250  0.5793  0.1727  0.0565
 2639TIP3    H129332   4.302   4.844   0.178  0.1786  0.1203 -0.2892
 2639TIP3    H229333   4.294   4.845   0.329  1.0193 -1.3536 -0.2219
 2640TIP3   OH229334   1.321   4.005   1.384 -0.0434 -0.1697  0.1529
 2640TIP3    H129335   1.276   3.964   1.311  0.1353 -0.5748  0.2709
 2640TIP3    H229336   1.342   4.093   1.353  2.1691 -1.1017 -1.1795
 2641TIP3   OH229337   6.082   0.520  10.957 -0.4843  0.1289  0.0366
 2641TIP3    H129338   6.151   0.537  10.893 -1.0753 -0.3105 -0.7276
 2641TIP3    H229339   6.057   0.429  10.942 -1.0974  0.2269  0.4440
 2642TIP3   OH229340   4.768   0.777  11.962 -0.0753  0.2695 -0.3008
 2642TIP3    H129341   4.817   0.847  11.919  1.4383 -0.1646  0.6474
 2642TIP3    H229342   4.733   0.817  12.041  2.7590 -0.5449  1.4723
 2643TIP3   OH229343   3.764   3.846   4.502 -0.1929 -0.1171  0.3330
 2643TIP3    H129344   3.746   3.865   4.410 -3.1381 -1.1837  0.6287
 2643TIP3    H229345   3.856   3.819   4.503  0.6799  2.5202 -1.8462
 2644TIP3   OH229346   3.078   5.760  13.175 -0.2213 -0.5569  0.5559
 2644TIP3    H129347   3.157   5.811  13.189 -1.1512  1.1912 -0.4672
 2644TIP3    H229348   3.054   5.729  13.263  0.7474  0.1522  1.0776
 2645TIP3   OH229349   1.446   5.643  14.581  0.5727  0.1535  0.2353
 2645TIP3    H129350   1.384   5.691  14.637 -0.4698  0.7151 -1.3615
 2645TIP3    H229351   1.428   5.551  14.599  0.9510  0.3264  1.5661
 2646TIP3   OH229352   4.548   1.121  11.636 -0.0787 -0.4038  0.1978
 2646TIP3    H129353   4.559   1.196  11.578 -1.2190 -0.2028  0.2344
 2646TIP3    H229354   4.572   1.045  11.583 -1.5222 -0.2608 -0.6636
 2647TIP3   OH229355   6.400   0.582  15.109  0.4371  0.5374 -0.5374
 2647TIP3    H129356   6.328   0.592  15.172  0.4496  0.7588 -0.5585
 2647TIP3    H229357   6.431   0.492  15.124  1.0342  0.8895  0.4156
 2648TIP3   OH229358   1.212   2.513   3.614 -0.2707  0.2526  0.0787
 2648TIP3    H129359   1.178   2.600   3.637  0.3718  0.2749  0.9584
 2648TIP3    H229360   1.135   2.456   3.620 -0.7485  0.7923 -0.7419
 2649TIP3   OH229361   0.466   4.205   5.297  0.2057 -0.0350 -0.0674
 2649TIP3    H129362   0.464   4.137   5.228  0.5580  0.7857 -0.8972
 2649TIP3    H229363   0.383   4.193   5.344  0.1404 -0.8749 -0.3805
 2650TIP3   OH229364   3.901   1.227   4.542  0.3153  0.3648 -0.1822
 2650TIP3    H129365   3.904   1.299   4.479 -0.6811  2.8826  2.5422
 2650TIP3    H229366   3.811   1.194   4.536  0.5826 -0.2248 -0.9668
 2651TIP3   OH229367   3.460   4.245  11.571 -0.4169 -0.1535  0.4977
 2651TIP3    H129368   3.420   4.194  11.641  0.0302 -1.7919 -0.4168
 2651TIP3    H229369   3.392   4.307  11.544 -0.6329  0.3965  2.2682
 2652TIP3   OH229370   5.314   4.121  10.608 -1.0190 -0.2350  0.0763
 2652TIP3    H129371   5.295   4.112  10.701 -0.7878 -0.0295  0.1454
 2652TIP3    H229372   5.299   4.034  10.571  0.4122 -0.7185  0.5791
 2653TIP3   OH229373   2.282   4.926  12.445 -0.4699 -0.0699  0.1995
 2653TIP3    H129374   2.235   4.869  12.506 -0.7327 -1.1248 -0.9701
 2653TIP3    H229375   2.375   4.910  12.462 -0.5443 -0.3581  0.3204
 2654TIP3   OH229376   5.193   2.518  14.737 -0.1169 -0.2506  0.6348
 2654TIP3    H129377   5.185   2.574  14.814 -0.3137 -0.5662  0.8494
 2654TIP3    H229378   5.106   2.477  14.729  0.0235 -0.5216  0.4824
 2655TIP3   OH229379   6.243   6.016  11.556  0.3037  1.0652 -0.3989
 2655TIP3    H129380   6.271   6.105  11.574  1.9644  0.4997 -0.0581
 2655TIP3    H229381   6.221   5.980  11.642  2.1001  0.3618 -0.2114
 2656TIP3   OH229382   3.664   0.833   5.262 -0.0951 -0.4636  0.3197
 2656TIP3    H129383   3.726   0.905   5.248  0.0671 -0.7762 -0.5971
 2656TIP3    H229384   3.632   0.812   5.174 -1.3953 -0.4064  0.7788
 2657TIP3   OH229385   0.990   1.482  14.696  0.4957  0.0963 -0.1854
 2657TIP3    H129386   1.051   1.427  14.745  2.4886  2.5450  0.2248
 2657TIP3    H229387   0.904   1.462  14.734  1.5824 -0.4289  2.1211
 2658TIP3   OH229388   0.998   1.655  13.215  0.5204  0.0867  0.3722
 2658TIP3    H129389   1.072   1.668  13.273  1.1329  1.6757 -0.7400
 2658TIP3    H229390   1.011   1.567  13.179  1.7719  0.3011  0.2867
 2659TIP3   OH229391   0.096   3.046   3.079  0.5704  0.3410  0.0678
 2659TIP3    H129392   0.132   3.008   3.160 -1.6490 -0.1891  0.8571
 2659TIP3    H229393   0.160   3.112   3.052  2.0817 -0.5455  1.4222
 2660TIP3   OH229394   4.028   1.470   1.507 -0.1070  0.3834  0.4792
 2660TIP3    H129395   3.960   1.421   1.554 -0.4550  0.7278  0.3335
 2660TIP3    H229396   4.100   1.407   1.497 -0.8952 -0.3853 -0.5077
 2661TIP3   OH229397   5.032   2.742   4.514  0.1861  0.6479  0.2708
 2661TIP3    H129398   4.950   2.708   4.551 -1.1362  1.9545 -1.3620
 2661TIP3    H229399   5.059   2.811   4.575  0.0002  0.2920  0.7575
 2662TIP3   OH229400   4.257   2.483  12.696  0.1861  0.3034  0.1194
 2662TIP3    H129401   4.200   2.413  12.729  0.4217  0.8950  1.8764
 2662TIP3    H229402   4.224   2.503  12.609 -1.3054 -0.4416  0.4977
 2663TIP3   OH229403   4.275   0.379   2.979 -0.1663 -0.0794  0.2682
 2663TIP3    H129404   4.208   0.352   2.916  1.2214  1.3332 -1.8804
 2663TIP3    H229405   4.354   0.391   2.926  1.0449  1.1416  2.2982
 2664TIP3   OH229406   5.785   3.356  16.962  0.2970 -0.1611 -0.6942
 2664TIP3    H129407   5.823   3.400  17.039 -0.9286  1.6242 -1.0792
 2664TIP3    H229408   5.692   3.351  16.981  0.1798 -0.9788 -1.4758
 2665TIP3   OH229409   6.100   3.679  16.987 -0.2301 -0.0052 -0.1315
 2665TIP3    H129410   6.054   3.630  16.919  0.4690 -1.8880  0.7075
 2665TIP3    H229411   6.036   3.690  17.057  0.2873 -1.7691  0.6334
 2666TIP3   OH229412   6.147   6.131  16.964 -0.7618 -0.0144 -0.1813
 2666TIP3    H129413   6.140   6.224  16.944  0.9084  0.0053 -0.7149
 2666TIP3    H229414   6.222   6.101  16.914  0.3645 -1.0688  2.0610
 2667TIP3   OH229415   4.114   1.451  15.159 -0.1847 -0.3970 -0.3326
 2667TIP3    H129416   4.087   1.391  15.090 -1.0253  0.5991 -0.8844
 2667TIP3    H229417   4.032   1.476  15.202  0.2136 -0.0880  0.2518
 2668TIP3   OH229418   3.268   4.369   0.648  0.3806 -0.0930 -0.1086
 2668TIP3    H129419   3.213   4.302   0.686  2.1611 -1.0448  0.8292
 2668TIP3    H229420   3.309   4.413   0.722 -0.4517  1.7806 -0.7205
 2669TIP3   OH229421   3.166   2.549  10.428  0.1414  0.0087 -0.3709
 2669TIP3    H129422   3.124   2.524  10.346 -0.5251 -1.1869  0.3147
 2669TIP3    H229423   3.098   2.534  10.494  0.8764  0.3621  0.4613
 2670TIP3   OH229424   5.208   3.780  15.005 -0.1672 -0.0341  0.3079
 2670TIP3    H129425   5.165   3.703  14.966 -1.1472  1.4313 -1.5756
 2670TIP3    H229426   5.298   3.776  14.971  0.3293 -1.3737  1.7355
 2671TIP3   OH229427   5.117   2.777   2.556 -0.2162  0.2429 -0.1201
 2671TIP3    H129428   5.082   2.732   2.480 -0.6577 -0.9203  0.7649
 2671TIP3    H229429   5.204   2.808   2.528 -0.8840  0.9240 -1.4798
 2672TIP3   OH229430   3.386   4.068  16.904 -0.6518 -0.5055  0.1975
 2672TIP3    H129431   3.471   4.024  16.895 -0.0358  0.7552 -0.3680
 2672TIP3    H229432   3.409   4.156  16.934 -1.8134 -0.3742  0.7070
 2673TIP3   OH229433   5.683   3.987   0.761  0.3874 -0.7078 -0.2507
 2673TIP3    H129434   5.610   3.972   0.701  0.1902  0.3480 -0.2771
 2673TIP3    H229435   5.645   3.985   0.848  0.3043 -0.0250 -0.2709
 2674TIP3   OH229436   4.932   6.296   1.487  0.0242 -0.0678  0.1058
 2674TIP3    H129437   5.013   6.317   1.441  0.0023  2.1630  1.0441
 2674TIP3    H229438   4.873   6.265   1.418  0.7098  1.0985 -1.0327
 2675TIP3   OH229439   3.914   0.090   3.052  0.0477 -0.1677 -0.4569
 2675TIP3    H129440   3.847   0.031   3.084  1.6204 -1.2408  0.9143
 2675TIP3    H229441   3.909   0.167   3.109  0.1860 -0.3681 -0.1780
 2676TIP3   OH229442   2.886   2.311  13.049 -0.0892  0.1432 -0.8750
 2676TIP3    H129443   2.971   2.339  13.082 -1.6432  0.5618  2.9638
 2676TIP3    H229444   2.898   2.219  13.027  0.4735 -0.7934  3.0503
 2677TIP3   OH229445   1.133   0.558   2.911  0.0292  0.3954 -0.1665
 2677TIP3    H129446   1.156   0.476   2.955 -2.7521 -0.6509 -0.5178
 2677TIP3    H229447   1.199   0.620   2.940  0.3332 -1.1541  2.6954
 2678TIP3   OH229448   6.366   1.734   0.118 -0.5347  0.2995 -0.0331
 2678TIP3    H129449   6.431   1.723   0.188 -0.3445  3.1978  0.3161
 2678TIP3    H229450   6.299   1.668   0.137  0.3857 -0.1349  1.8592
 2679TIP3   OH229451   3.537   6.349  10.755  0.3557 -0.1732 -0.4024
 2679TIP3    H129452   3.475   6.336  10.827  1.5173 -1.1974  0.4427
 2679TIP3    H229453   3.524   6.273  10.698  2.1054 -1.3924  0.7584
 2680TIP3   OH229454   1.047   2.381  17.001 -0.1113 -0.1467 -0.2725
 2680TIP3    H129455   0.955   2.378  17.024  0.1094 -0.3317  0.6143
 2680TIP3    H229456   1.091   2.412  17.080  0.6815 -0.9089 -0.3962
 2681TIP3   OH229457   5.217   6.249  16.150  0.2260  0.0531 -0.4595
 2681TIP3    H129458   5.307   6.276  16.169  0.4506  0.6674 -2.2080
 2681TIP3    H229459   5.227   6.181  16.084 -0.5933  0.2229 -0.7595
 2682TIP3   OH229460   6.214   2.538   5.007  0.2433 -0.0461 -0.1750
 2682TIP3    H129461   6.307   2.535   4.984  0.3042  0.1666  0.0403
 2682TIP3    H229462   6.213   2.576   5.095  0.0367 -1.2374  0.3430
 2683TIP3   OH229463   6.419   3.369  10.956  0.1035  0.1272  0.4350
 2683TIP3    H129464   6.503   3.335  10.928  0.5918  0.4533  1.4763
 2683TIP3    H229465   6.375   3.294  10.996  0.2209  0.1503  0.6066
 2684TIP3   OH229466   1.008   5.765  12.938 -0.1345  0.8780 -0.0090
 2684TIP3    H129467   1.010   5.670  12.926 -0.7900  0.5567  2.2502
 2684TIP3    H229468   1.064   5.799  12.868  0.6435 -1.2020 -0.4378
 2685TIP3   OH229469   6.733   2.702   2.758  0.1440 -0.3346 -0.6870
 2685TIP3    H129470   6.692   2.653   2.687  0.5308 -0.9057 -0.5216
 2685TIP3    H229471   6.729   2.793   2.729  0.8936 -0.6266 -1.7558
 2686TIP3   OH229472   1.738   2.322   2.575  0.1670  0.1313  0.6081
 2686TIP3    H129473   1.697   2.402   2.540 -1.0254 -1.2504 -1.2584
 2686TIP3    H229474   1.823   2.319   2.531  0.5730  0.7938  1.3238
 2687TIP3   OH229475   6.153   2.180  13.641  0.1108  0.0089  0.0993
 2687TIP3    H129476   6.133   2.104  13.695 -0.7663  1.3280  1.6851
 2687TIP3    H229477   6.165   2.251  13.704  2.6066  0.8475 -1.2440
 2688TIP3   OH229478   3.946   2.866  16.991 -0.2210  0.3566 -0.3100
 2688TIP3    H129479   3.891   2.913  16.929  1.0745  1.2714 -0.7856
 2688TIP3    H229480   3.937   2.774  16.965 -0.5945  0.6161 -1.1193
 2689TIP3   OH229481   5.460   3.308  13.272  0.1019  0.0346  0.0089
 2689TIP3    H129482   5.543   3.301  13.225  0.4678  1.5617  0.4017
 2689TIP3    H229483   5.393   3.311  13.203  0.5363  0.9031 -0.3887
 2690TIP3   OH229484   0.904   1.321  11.004  0.3874  0.3795 -0.1236
 2690TIP3    H129485   0.845   1.314  10.929  0.0195 -0.9346  0.2870
 2690TIP3    H229486   0.992   1.312  10.967  0.1947 -0.4830 -0.3648
 2691TIP3   OH229487   2.579   0.892  17.164  0.1031  0.4496  0.0163
 2691TIP3    H129488   2.562   0.859  17.252  0.7117  0.5483  0.1780
 2691TIP3    H229489   2.643   0.831  17.127 -1.9956 -1.0277 -1.2887
 2692TIP3   OH229490   2.365   4.104   0.764  0.6840  0.6934 -0.1231
 2692TIP3    H129491   2.303   4.177   0.765 -1.6317 -1.2175  1.5905
 2692TIP3    H229492   2.448   4.143   0.736 -1.9231  2.7598 -5.6755
 2693TIP3   OH229493   4.013   2.952   0.620 -0.3445 -0.6758  0.1515
 2693TIP3    H129494   4.062   2.871   0.605 -0.9891 -1.0937  0.2774
 2693TIP3    H229495   3.994   2.952   0.714  0.3762  0.0411  0.3072
 2694TIP3   OH229496   0.366   1.339  16.470  0.3809 -0.8631  0.5894
 2694TIP3    H129497   0.352   1.251  16.505 -2.1564 -1.9697 -2.9074
 2694TIP3    H229498   0.326   1.397  16.535  0.1393 -2.4300  1.8849
 2695TIP3   OH229499   4.086   6.695   1.657  0.2876 -0.2093 -0.0592
 2695TIP3    H129500   4.099   6.719   1.748 -1.9639  0.0845  0.2154
 2695TIP3    H229501   4.079   6.778   1.610  2.1100 -0.3539 -0.6292
 2696TIP3   OH229502   6.194   2.885   2.923 -0.5009 -0.6358 -0.2168
 2696TIP3    H129503   6.218   2.944   2.851 -0.8141  0.7909  0.8240
 2696TIP3    H229504   6.266   2.821   2.927 -0.4446 -0.6922 -1.7360
 2697TIP3   OH229505   1.145   1.682  14.100 -0.1116 -0.1027  0.0832
 2697TIP3    H129506   1.051   1.686  14.119 -0.8734  0.8307 -3.4633
 2697TIP3    H229507   1.157   1.597  14.059  0.1846  0.5926 -1.2991
 2698TIP3   OH229508   3.396   6.400   3.928 -0.5073  0.5613 -0.2385
 2698TIP3    H129509   3.453   6.474   3.949  0.6007 -0.1416 -0.7160
 2698TIP3    H229510   3.322   6.439   3.882 -0.0306  1.3966 -0.3163
 2699TIP3   OH229511   0.658   5.435  11.823 -0.0617  0.1918 -0.5822
 2699TIP3    H129512   0.624   5.347  11.803 -0.0886 -0.0779  0.5775
 2699TIP3    H229513   0.614   5.459  11.905 -0.0045  1.2678 -0.8588
 2700TIP3   OH229514   2.387   3.433   1.123 -0.5743  0.7044  0.6574
 2700TIP3    H129515   2.350   3.494   1.059  1.7725  1.8763  0.3832
 2700TIP3    H229516   2.419   3.488   1.194  3.7643  0.0719 -0.6904
 2701TIP3   OH229517   4.349   5.839   4.570 -0.8560 -0.5494 -0.6025
 2701TIP3    H129518   4.350   5.783   4.647 -1.0087  1.1839  0.7002
 2701TIP3    H229519   4.357   5.928   4.605  0.0747  0.2103 -2.6473
 2702TIP3   OH229520   4.479   4.873  14.292  0.0635 -0.0333 -0.3866
 2702TIP3    H129521   4.461   4.790  14.336  0.9687  0.1591  0.3609
 2702TIP3    H229522   4.548   4.914  14.344  1.0288  0.2888 -1.8956
 2703TIP3   OH229523   5.707   2.962  16.388  0.7751 -0.2335 -0.5998
 2703TIP3    H129524   5.797   2.994  16.396  0.5942  0.0888  0.2385
 2703TIP3    H229525   5.654   3.042  16.378  0.5371 -0.3937 -0.6279
 2704TIP3   OH229526   4.475   0.762   3.067  0.1436 -0.2770  0.1024
 2704TIP3    H129527   4.421   0.830   3.027  1.4129 -0.0249 -1.2557
 2704TIP3    H229528   4.415   0.689   3.082 -0.7430  0.2892 -0.6349
 2705TIP3   OH229529   2.193   1.755  14.116 -0.1301 -0.6680  0.0108
 2705TIP3    H129530   2.247   1.781  14.190 -2.6124 -0.7636  1.9442
 2705TIP3    H229531   2.178   1.836  14.068  1.5263 -0.6094 -0.4302
 2706TIP3   OH229532   1.261   2.225   2.448 -0.0329  0.9009  0.4385
 2706TIP3    H129533   1.266   2.157   2.381  1.0143  1.7200 -0.3281
 2706TIP3    H229534   1.347   2.223   2.491  0.3510  2.3605 -0.2250
 2707TIP3   OH229535   5.687   3.957   6.424  0.0519  0.2146 -0.5357
 2707TIP3    H129536   5.742   4.001   6.359 -0.6880 -0.3547 -1.5543
 2707TIP3    H229537   5.620   4.022   6.448 -0.2190  0.1123 -1.0177
 2708TIP3   OH229538   3.623   6.004  14.142  0.6650  0.1837  0.3189
 2708TIP3    H129539   3.644   6.037  14.230 -0.1297  1.0118  0.1994
 2708TIP3    H229540   3.705   6.013  14.093  0.9317  0.3335  0.7869
 2709TIP3   OH229541   2.239   0.238   2.041 -0.6870 -0.1315  0.3529
 2709TIP3    H129542   2.257   0.301   1.971  0.4107 -0.6432  0.1655
 2709TIP3    H229543   2.314   0.246   2.100 -0.5450 -1.2504  0.3320
 2710TIP3   OH229544   5.855   1.186   5.840  0.2963  0.3714  0.0275
 2710TIP3    H129545   5.821   1.220   5.923 -0.7625 -0.9608  0.1642
 2710TIP3    H229546   5.796   1.222   5.774  0.8031  0.9842 -0.0884
 2711TIP3   OH229547   5.827   3.011   0.044  0.3243  0.4968 -0.0930
 2711TIP3    H129548   5.824   3.043  -0.046 -1.6515  0.4741 -0.0732
 2711TIP3    H229549   5.884   2.935   0.041 -0.9009 -0.3879 -1.6389
 2712TIP3   OH229550   1.827   4.414   1.379  0.0303  0.1412  0.2499
 2712TIP3    H129551   1.759   4.477   1.355 -0.1568 -0.1567 -0.0107
 2712TIP3    H229552   1.895   4.424   1.311  0.7473  1.1993  1.1146
 2713TIP3   OH229553   2.494   5.900   4.139  0.4450 -0.0822  0.2683
 2713TIP3    H129554   2.462   5.934   4.055 -1.2180 -2.1622 -0.0052
 2713TIP3    H229555   2.513   5.978   4.191  0.8223  1.2415 -1.7934
 2714TIP3   OH229556   2.510   6.111  11.644 -0.2359 -0.3773 -0.2218
 2714TIP3    H129557   2.565   6.188  11.631 -0.6641  0.0509  0.4828
 2714TIP3    H229558   2.571   6.042  11.667  0.1901 -0.3463 -1.2226
 2715TIP3   OH229559   5.702   0.330  14.327 -0.5938 -0.0536 -0.0043
 2715TIP3    H129560   5.698   0.411  14.276  0.5175 -0.6530 -1.0715
 2715TIP3    H229561   5.628   0.336  14.388 -0.9849  1.4000 -0.6079
 2716TIP3   OH229562   1.758   5.390  11.563 -0.2566 -0.4723 -0.0701
 2716TIP3    H129563   1.741   5.314  11.508  1.1193 -0.5050 -0.4636
 2716TIP3    H229564   1.749   5.357  11.653  0.1597 -1.0676 -0.2404
 2717TIP3   OH229565   3.529   5.245   2.456  0.7950 -0.2486 -0.2829
 2717TIP3    H129566   3.615   5.229   2.496  0.8766  0.8662  0.0076
 2717TIP3    H229567   3.538   5.329   2.412 -0.2237 -0.0152 -0.0634
 2718TIP3   OH229568   0.005   2.220   5.128 -0.2679 -0.6122  0.4527
 2718TIP3    H129569   0.027   2.284   5.061  0.1115  1.2770  2.3489
 2718TIP3    H229570   0.037   2.137   5.093 -0.3662  0.2683 -1.8291
 2719TIP3   OH229571   5.963   0.356  16.683  0.4852  0.2425 -0.6856
 2719TIP3    H129572   5.888   0.359  16.624  0.6879  0.9315 -0.9061
 2719TIP3    H229573   5.994   0.446  16.688  0.6729  0.1370  0.2171
 2720TIP3   OH229574   2.227   4.711  11.777  0.3835  0.1426  0.5136
 2720TIP3    H129575   2.297   4.774  11.799  1.5857 -0.1480 -2.3351
 2720TIP3    H229576   2.272   4.641  11.730 -1.1756 -2.2211  2.4117
 2721TIP3   OH229577   5.561   2.366   5.722 -0.2553 -0.1746  0.5337
 2721TIP3    H129578   5.562   2.321   5.638  1.5165  2.0020 -0.6809
 2721TIP3    H229579   5.486   2.425   5.716 -0.1418 -0.0350  0.4818
 2722TIP3   OH229580   2.750   3.958  10.746  0.3520 -0.2727  0.0816
 2722TIP3    H129581   2.757   3.905  10.667 -1.5454 -0.0275 -0.2891
 2722TIP3    H229582   2.707   3.901  10.810  0.8749 -0.1115  0.5846
 2723TIP3   OH229583   1.552   4.052  11.598  0.0475 -0.4827 -0.4341
 2723TIP3    H129584   1.632   4.045  11.546 -0.4074  2.1221 -1.5557
 2723TIP3    H229585   1.571   4.120  11.663 -1.0662 -0.2077 -0.3838
 2724TIP3   OH229586   5.592   5.584  14.396 -0.5727 -0.2104  0.0719
 2724TIP3    H129587   5.605   5.502  14.347  0.6449  0.2316 -0.3539
 2724TIP3    H229588   5.627   5.565  14.483  0.2202  0.0281 -0.1904
 2725TIP3   OH229589   2.330   5.427   4.501  0.2579 -0.0732 -0.1430
 2725TIP3    H129590   2.322   5.332   4.494 -0.2289  0.0313 -1.0250
 2725TIP3    H229591   2.240   5.459   4.499  0.4061  0.3973  0.3845
 2726TIP3   OH229592   6.508   3.002   4.612  0.6958  0.5006 -0.6421
 2726TIP3    H129593   6.488   3.094   4.600 -2.9779 -0.3175 -1.3735
 2726TIP3    H229594   6.475   2.959   4.532  0.4629 -1.6819  0.5708
 2727TIP3   OH229595   2.800   1.281  12.621  0.5443 -0.1311  0.3070
 2727TIP3    H129596   2.890   1.313  12.629  0.5838 -0.3324  0.6865
 2727TIP3    H229597   2.808   1.199  12.573  0.3407  0.9109 -1.5599
 2728TIP3   OH229598   0.819   4.665   0.169 -0.1751  0.0145  0.4795
 2728TIP3    H129599   0.827   4.650   0.263 -0.9472 -0.6507  0.4409
 2728TIP3    H229600   0.856   4.587   0.129 -0.9284 -0.2192  0.2424
 2729TIP3   OH229601   4.431   0.756  14.280  0.2124 -0.2962 -0.4380
 2729TIP3    H129602   4.501   0.801  14.234 -0.9138  1.9538 -0.0156
 2729TIP3    H229603   4.354   0.769  14.224 -0.5593  0.0663  0.6961
 2730TIP3   OH229604   4.742   5.323   2.416 -0.0552 -0.4051  0.2152
 2730TIP3    H129605   4.716   5.393   2.356 -0.3845 -1.3091 -0.7049
 2730TIP3    H229606   4.672   5.258   2.409 -0.1578 -0.4759  1.6629
 2731TIP3   OH229607   3.977   1.298   6.166 -0.0856 -0.3324 -0.2781
 2731TIP3    H129608   4.018   1.352   6.099 -0.2141  0.0987 -0.0112
 2731TIP3    H229609   3.936   1.361   6.226  0.4978 -0.6976  0.5092
 2732TIP3   OH229610   4.182   2.342  14.470  0.0811 -0.6663 -0.6232
 2732TIP3    H129611   4.172   2.247  14.470  1.3822 -0.8109 -0.4968
 2732TIP3    H229612   4.127   2.372  14.398 -0.8512 -1.4581 -0.2441
 2733TIP3   OH229613   6.342   6.115  12.617 -0.2119 -0.2246  0.6828
 2733TIP3    H129614   6.311   6.025  12.629  0.6946 -0.4439  1.4537
 2733TIP3    H229615   6.267   6.162  12.580 -0.9845 -1.0755  1.1563
 2734TIP3   OH229616   2.615   6.085  14.902 -0.3276  0.5396 -0.7140
 2734TIP3    H129617   2.590   6.020  14.836  0.7001 -1.1213  0.4883
 2734TIP3    H229618   2.709   6.096  14.891  0.0072 -0.3758  0.9715
 2735TIP3   OH229619   3.861   4.644   1.582  0.2060 -0.6442  0.1509
 2735TIP3    H129620   3.819   4.721   1.620 -2.2372 -1.4611 -0.8461
 2735TIP3    H229621   3.945   4.638   1.628  0.4760  2.6460  0.2008
 2736TIP3   OH229622   5.353   1.569  13.958  0.8953 -0.3833  0.1260
 2736TIP3    H129623   5.313   1.483  13.947  1.0013 -0.5245  0.7765
 2736TIP3    H229624   5.443   1.557  13.928  1.4489 -1.0056  1.9283
 2737TIP3   OH229625   4.810   4.821  13.808  0.2155 -0.0430 -0.2064
 2737TIP3    H129626   4.872   4.801  13.739  1.0833 -1.6142  1.0110
 2737TIP3    H229627   4.735   4.763  13.792  0.8004 -1.0636  0.6693
 2738TIP3   OH229628   4.535   1.711   2.415 -0.0461  0.3612 -0.3949
 2738TIP3    H129629   4.532   1.633   2.359 -0.3787  0.8471 -1.0616
 2738TIP3    H229630   4.443   1.729   2.435 -0.0619  1.3722 -1.3568
 2739TIP3   OH229631   0.052   3.861   1.596 -0.2610 -0.8103 -0.0358
 2739TIP3    H129632  -0.029   3.847   1.547 -0.7071  0.3132  0.3748
 2739TIP3    H229633   0.022   3.884   1.684  0.5039  0.1720 -0.0360
 2740TIP3   OH229634   5.448   6.196  14.609 -0.1831 -0.1943 -0.0678
 2740TIP3    H129635   5.455   6.102  14.591  0.2361 -0.3162  0.7224
 2740TIP3    H229636   5.467   6.204  14.703 -1.3674  0.5437  0.1217
 2741TIP3   OH229637   1.975   1.921   4.245 -0.6603 -0.0153 -0.2188
 2741TIP3    H129638   2.045   1.862   4.272 -0.6609 -0.1644 -0.5392
 2741TIP3    H229639   1.896   1.866   4.243 -0.7160  0.0642 -0.2287
 2742TIP3   OH229640   1.810   6.780   4.844 -0.0593  0.2760  0.0121
 2742TIP3    H129641   1.903   6.771   4.822  0.1327  0.6853  0.6433
 2742TIP3    H229642   1.767   6.788   4.759  0.6826  1.8893 -0.2457
 2743TIP3   OH229643   1.345   4.309  16.794  0.4566 -0.2786  0.0784
 2743TIP3    H129644   1.393   4.383  16.831  0.4209 -0.8470  1.2839
 2743TIP3    H229645   1.325   4.336  16.705  0.7980  0.9992  0.3792
 2744TIP3   OH229646   1.980   1.402   4.145 -0.0478  0.8010 -0.0812
 2744TIP3    H129647   2.049   1.381   4.082  1.2154  2.4515  0.7095
 2744TIP3    H229648   2.012   1.366   4.228 -1.9263 -1.7987 -0.3961
 2745TIP3   OH229649   0.073   4.871   5.295  0.4402 -0.2524  0.7411
 2745TIP3    H129650   0.003   4.935   5.308  0.5643 -0.0614  0.4769
 2745TIP3    H229651   0.056   4.803   5.360  0.3908  0.1189  1.1114
 2746TIP3   OH229652   0.459   2.231  16.717  0.5362  0.2884 -0.1325
 2746TIP3    H129653   0.486   2.161  16.776 -0.6345  0.1185  0.2180
 2746TIP3    H229654   0.476   2.312  16.766  0.0599  0.1685  0.2403
 2747TIP3   OH229655   5.461   5.192  16.892 -0.0765 -0.6399 -0.6959
 2747TIP3    H129656   5.550   5.221  16.872  0.8971 -1.7677  1.7915
 2747TIP3    H229657   5.407   5.270  16.882  1.7376  0.8839  1.0622
 2748TIP3   OH229658   0.750   5.329  13.792  0.3351  0.8047  0.7357
 2748TIP3    H129659   0.703   5.318  13.874  0.1331 -3.2047  0.1620
 2748TIP3    H229660   0.684   5.363  13.731 -0.2279  1.0429  1.4655
 2749TIP3   OH229661   2.370   0.394  14.152 -0.3995 -0.0856 -0.4728
 2749TIP3    H129662   2.362   0.311  14.200  0.6877  0.0937  0.0187
 2749TIP3    H229663   2.429   0.374  14.080 -1.2384 -0.0904 -1.1759
 2750TIP3   OH229664   0.661   1.216   1.885  0.2050  0.0708  0.0018
 2750TIP3    H129665   0.662   1.121   1.900  0.7404  0.2690  1.3278
 2750TIP3    H229666   0.678   1.254   1.972 -1.7260  1.4052 -0.1730
 2751TIP3   OH229667   1.718   1.616  16.284 -0.0658 -0.4212 -0.4403
 2751TIP3    H129668   1.726   1.677  16.210 -1.7120  1.7282  1.1205
 2751TIP3    H229669   1.809   1.595  16.306  0.5756  1.9231 -0.6496
 2752TIP3   OH229670   5.504   3.159   0.916  0.5876  0.4454  0.2445
 2752TIP3    H129671   5.557   3.091   0.875 -1.4830 -1.0272 -0.0527
 2752TIP3    H229672   5.523   3.151   1.010 -0.5831 -1.4138  0.3491
 2753TIP3   OH229673   2.154   6.313   6.468 -0.1266 -0.3405 -0.6477
 2753TIP3    H129674   2.072   6.269   6.445 -0.2847 -1.9648  2.7712
 2753TIP3    H229675   2.214   6.242   6.491  2.0694  0.8696 -2.4101
 2754TIP3   OH229676   6.533   5.323   4.472 -0.2005 -0.0732 -0.0857
 2754TIP3    H129677   6.440   5.340   4.462 -0.0662  0.4821 -0.3769
 2754TIP3    H229678   6.537   5.251   4.536 -0.7874  0.5647  0.6844
 2755TIP3   OH229679   2.958   5.933   5.774  0.5672  0.7305  0.5944
 2755TIP3    H129680   3.026   5.996   5.794  0.3888  1.1522 -0.1023
 2755TIP3    H229681   2.996   5.879   5.704  0.7298  0.0472  1.2029
 2756TIP3   OH229682   4.701   3.181  13.668  0.1771 -0.0401 -0.9184
 2756TIP3    H129683   4.631   3.151  13.610  0.0252 -0.6368 -0.4369
 2756TIP3    H229684   4.654   3.212  13.746  0.4159  0.1261 -0.8432
 2757TIP3   OH229685   1.545   6.660   5.235  0.0510  0.1057 -0.5393
 2757TIP3    H129686   1.528   6.708   5.154  1.5552  0.1594 -0.8519
 2757TIP3    H229687   1.634   6.625   5.223  0.3119  0.1698  1.1166
 2758TIP3   OH229688   3.826   2.478  13.637  0.2106 -0.1145  0.2950
 2758TIP3    H129689   3.821   2.522  13.722  0.3989  0.1764  0.1579
 2758TIP3    H229690   3.764   2.405  13.644  0.1103  0.0001  0.6263
 2759TIP3   OH229691   0.253   1.090   4.699 -0.0070 -0.2257  0.3987
 2759TIP3    H129692   0.178   1.128   4.745  0.8663  1.3400  0.5437
 2759TIP3    H229693   0.218   1.011   4.658 -1.5749  0.1276  1.0223
 2760TIP3   OH229694   4.695   5.504  14.400 -0.0937 -0.6706  0.1849
 2760TIP3    H129695   4.689   5.408  14.396 -0.1689 -0.7201  1.4268
 2760TIP3    H229696   4.640   5.534  14.328 -0.7386 -1.5386  0.3008
 2761TIP3   OH229697   5.226   5.687  10.940 -0.5298  0.3614 -0.2789
 2761TIP3    H129698   5.185   5.602  10.958 -0.2977  0.4728  0.8158
 2761TIP3    H229699   5.250   5.683  10.848  1.8047 -1.7855  0.3567
 2762TIP3   OH229700   4.253   2.958   6.188 -0.2515 -0.0119  0.6133
 2762TIP3    H129701   4.243   2.863   6.180  0.3709  0.0551 -1.1408
 2762TIP3    H229702   4.303   2.969   6.269 -0.7976 -1.1469  1.1228
 2763TIP3   OH229703   5.072   1.636  11.963  1.2329  0.0373  0.3276
 2763TIP3    H129704   5.114   1.589  11.891  1.5591  0.9632 -0.0973
 2763TIP3    H229705   5.039   1.568  12.021  2.1652 -0.7140 -0.0161
 2764TIP3   OH229706   5.246   3.219  14.687  0.7831  0.0278 -0.1396
 2764TIP3    H129707   5.161   3.181  14.661  1.8746 -2.5547 -0.0993
 2764TIP3    H229708   5.306   3.190  14.619  2.4498 -1.6533  1.9891
 2765TIP3   OH229709   0.037   5.880  13.219 -0.3996 -0.4707 -0.4092
 2765TIP3    H129710   0.075   5.812  13.274  0.7586 -0.4920 -1.2239
 2765TIP3    H229711   0.099   5.953  13.225 -1.1122  0.1397 -0.3579
 2766TIP3   OH229712   5.269   5.082  14.861 -0.3251  0.1273  0.1765
 2766TIP3    H129713   5.299   5.059  14.773  4.0552  1.7663  1.0815
 2766TIP3    H229714   5.278   5.001  14.911  0.1099 -0.0801 -0.2302
 2767TIP3   OH229715   0.729   3.577   4.291  0.2161  0.0676 -0.0943
 2767TIP3    H129716   0.753   3.661   4.251  1.0979 -0.0896  0.0944
 2767TIP3    H229717   0.789   3.514   4.252 -0.2964 -0.4358 -0.0628
 2768TIP3   OH229718   1.038   5.932   6.170  0.2873 -0.2467  0.5036
 2768TIP3    H129719   1.058   5.988   6.246  0.7628 -0.4473  0.5305
 2768TIP3    H229720   1.119   5.933   6.118  0.2620 -0.8290  0.4501
 2769TIP3   OH229721   2.781   2.308   2.707 -0.0117 -0.4947  0.2631
 2769TIP3    H129722   2.698   2.354   2.724  0.2706  0.3401 -0.5284
 2769TIP3    H229723   2.804   2.268   2.791 -0.1494  1.0263  1.0527
 2770TIP3   OH229724   2.418   5.959  15.462  0.1526 -0.1257 -0.4714
 2770TIP3    H129725   2.506   5.929  15.440  0.1263 -1.7046  1.4703
 2770TIP3    H229726   2.377   5.885  15.505 -2.0461  0.7027 -1.0387
 2771TIP3   OH229727   0.587   3.964   4.721  0.7291 -0.2743  0.1558
 2771TIP3    H129728   0.511   3.923   4.761  1.2166 -2.6758 -1.3171
 2771TIP3    H229729   0.657   3.899   4.728  2.0054  0.9612 -0.7117
 2772TIP3   OH229730   5.710   0.264   0.547 -0.5398 -0.6645 -0.2831
 2772TIP3    H129731   5.773   0.331   0.523 -2.0236  1.6061  1.9862
 2772TIP3    H229732   5.690   0.219   0.464  1.8410  0.4669 -1.4947
 2773TIP3   OH229733   2.070   1.642  12.511  0.0688 -0.1307 -0.3584
 2773TIP3    H129734   2.095   1.733  12.525 -0.1504 -0.5332  3.0067
 2773TIP3    H229735   2.142   1.591  12.549 -0.9651 -1.3352  0.0085
 2774TIP3   OH229736   4.252   5.524   1.842 -0.1851 -0.9188 -0.2063
 2774TIP3    H129737   4.280   5.435   1.819  0.0071 -1.3709  1.6321
 2774TIP3    H229738   4.266   5.529   1.937 -0.1952  1.0837 -0.2932
 2775TIP3   OH229739   0.627   1.204  17.171  0.6840 -0.0844 -0.2440
 2775TIP3    H129740   0.604   1.295  17.191 -2.7834 -0.6242 -1.6166
 2775TIP3    H229741   0.626   1.199  17.075  1.4748 -1.4457 -0.1937
 2776TIP3   OH229742   3.308   1.537  16.067  0.1225 -0.1271 -0.0515
 2776TIP3    H129743   3.352   1.555  15.985  0.3910  1.8019  0.4982
 2776TIP3    H229744   3.218   1.566  16.053  0.3395  0.8573  0.5551
 2777TIP3   OH229745   0.546   0.679   4.260 -0.0081  0.4171 -0.2029
 2777TIP3    H129746   0.612   0.633   4.209 -0.1920  1.5681 -1.5046
 2777TIP3    H229747   0.558   0.647   4.350 -0.2024 -2.2267 -1.0754
 2778TIP3   OH229748   5.309   2.488  13.986 -0.0257  0.2829 -0.5374
 2778TIP3    H129749   5.398   2.515  14.007 -0.7406  1.1313  1.5461
 2778TIP3    H229750   5.305   2.395  14.009  0.8880 -0.2795 -2.5760
 2779TIP3   OH229751   4.780   2.493   4.876 -0.4460  0.0596 -0.0112
 2779TIP3    H129752   4.806   2.569   4.929 -1.0107  1.4097 -1.6082
 2779TIP3    H229753   4.861   2.462   4.837 -0.2417 -0.0194  0.4779
 2780TIP3   OH229754   1.752   4.046   0.984  0.3377  0.1804  0.0778
 2780TIP3    H129755   1.748   3.963   1.031  1.7459  0.0977  0.0504
 2780TIP3    H229756   1.702   4.030   0.904 -3.4838  0.7998  2.2147
 2781TIP3   OH229757   2.721   0.985   4.562 -0.5479 -0.9830  0.1621
 2781TIP3    H129758   2.630   0.983   4.530 -0.3818 -0.5773 -0.3576
 2781TIP3    H229759   2.726   0.916   4.627 -1.5994 -0.1397  1.1600
 2782TIP3   OH229760   5.691   1.933   5.530 -0.6919  0.7446 -0.2979
 2782TIP3    H129761   5.685   1.904   5.438  0.2637  0.5949 -0.3166
 2782TIP3    H229762   5.783   1.955   5.542 -0.7958  0.6560  0.6669
 2783TIP3   OH229763   3.984   5.345   4.306  0.0133 -0.2468  0.4545
 2783TIP3    H129764   3.936   5.286   4.364 -1.2366  0.7108  0.4215
 2783TIP3    H229765   4.001   5.293   4.228  1.1921 -1.3577  1.4469
 2784TIP3   OH229766   0.180   3.997   2.852 -0.7879  0.5771 -0.1785
 2784TIP3    H129767   0.189   4.031   2.941  0.2268 -0.2558  0.0555
 2784TIP3    H229768   0.102   4.039   2.818 -1.9116 -0.0392  1.5441
 2785TIP3   OH229769   3.001   1.823   3.806  0.3507  0.4435 -0.0226
 2785TIP3    H129770   3.042   1.816   3.892  0.2789 -3.0502 -0.1841
 2785TIP3    H229771   2.908   1.837   3.824  0.0189 -2.2227  0.5774
 2786TIP3   OH229772   4.291   5.635  15.444 -0.2252  0.5419  0.0693
 2786TIP3    H129773   4.344   5.670  15.372 -0.7823 -0.5559 -0.8954
 2786TIP3    H229774   4.263   5.712  15.493 -1.8981  1.5567 -2.3372
 2787TIP3   OH229775   3.194   3.411  13.258  0.2631 -0.1464 -0.3936
 2787TIP3    H129776   3.271   3.386  13.206  0.1678 -0.6102 -0.3160
 2787TIP3    H229777   3.185   3.505  13.244  0.7110 -0.1293 -0.5863
 2788TIP3   OH229778   6.654   6.263  16.852  0.5967 -0.1447  0.2258
 2788TIP3    H129779   6.619   6.299  16.771  1.5479  0.3272  0.0123
 2788TIP3    H229780   6.719   6.199  16.824  0.4411 -0.4815  0.6156
 2789TIP3   OH229781   2.870   0.796  15.820  0.3034  1.1128  0.3578
 2789TIP3    H129782   2.948   0.741  15.808 -0.8038 -0.2208 -0.9415
 2789TIP3    H229783   2.877   0.863  15.752 -0.3559  0.1795 -0.6432
 2790TIP3   OH229784   2.556   3.045   3.361  0.7515 -0.0643 -0.4172
 2790TIP3    H129785   2.529   3.057   3.270 -0.4439  0.2045 -0.0247
 2790TIP3    H229786   2.482   3.075   3.413  1.4192 -0.2383  0.6533
 2791TIP3   OH229787   2.895   0.251   5.975 -0.2502 -0.1681  0.9177
 2791TIP3    H129788   2.928   0.339   5.989 -0.0834 -0.0298 -0.2977
 2791TIP3    H229789   2.875   0.247   5.881 -0.4915 -1.3363  1.0079
 2792TIP3   OH229790   1.175   1.568  10.393  0.0883  0.0331 -0.2464
 2792TIP3    H129791   1.182   1.627  10.318  0.2916 -1.1029 -1.1285
 2792TIP3    H229792   1.259   1.523  10.397  0.5789  1.0503  1.4949
 2793TIP3   OH229793   6.534   5.922  13.708  0.0312  0.5664 -0.0872
 2793TIP3    H129794   6.452   5.938  13.661 -1.5587 -0.3276  2.2716
 2793TIP3    H229795   6.510   5.929  13.801  2.5105 -0.2591  0.6498
 2794TIP3   OH229796   2.517   4.252  16.918 -0.3137 -0.5290 -0.1223
 2794TIP3    H129797   2.494   4.203  16.839  0.1200  0.3134 -0.7808
 2794TIP3    H229798   2.453   4.323  16.922  0.2040 -0.0573 -0.1981
 2795TIP3   OH229799   4.079   0.668   4.887 -0.0625  0.0823 -0.2946
 2795TIP3    H129800   4.174   0.679   4.888 -0.0616  0.0873 -0.4084
 2795TIP3    H229801   4.049   0.708   4.969 -0.2019  2.3026 -1.3849
 2796TIP3   OH229802   3.284   2.170  12.995  0.7425  0.1467 -0.2281
 2796TIP3    H129803   3.361   2.161  13.052  0.0361 -0.5733  0.6339
 2796TIP3    H229804   3.234   2.241  13.033  0.5427  0.0274 -0.2668
 2797TIP3   OH229805   0.350   2.246  15.811  0.0915  0.3178 -0.9617
 2797TIP3    H129806   0.438   2.279  15.833 -0.1992  0.3634  0.1276
 2797TIP3    H229807   0.300   2.325  15.792  0.4446  0.2576 -2.2177
 2798TIP3   OH229808   5.637   4.091   1.322  0.2014  0.2595 -0.1777
 2798TIP3    H129809   5.703   4.022   1.322  0.5176  0.5607  0.6430
 2798TIP3    H229810   5.580   4.071   1.397 -0.4779  0.1606 -0.7106
 2799TIP3   OH229811   3.932   1.387   2.781  0.1831  0.4984 -0.3492
 2799TIP3    H129812   3.997   1.317   2.777  0.5679  0.8855 -1.0968
 2799TIP3    H229813   3.901   1.386   2.871  0.8758 -0.0124 -0.1108
 2800TIP3   OH229814   2.711   4.735  11.895 -0.5769 -0.2927 -0.2588
 2800TIP3    H129815   2.713   4.826  11.867  1.0766 -0.7555 -1.7014
 2800TIP3    H229816   2.649   4.734  11.969 -1.2018  1.8286 -0.7276
 2801TIP3   OH229817   1.388   2.362  14.119 -0.0821 -0.2368 -0.1808
 2801TIP3    H129818   1.374   2.332  14.029 -0.1656  0.5366 -0.4259
 2801TIP3    H229819   1.421   2.451  14.111  0.0508 -0.2106  0.5528
 2802TIP3   OH229820   5.488   2.259  16.674  0.3877  0.2218 -0.2689
 2802TIP3    H129821   5.511   2.166  16.678 -0.5136 -0.0309 -0.8846
 2802TIP3    H229822   5.393   2.261  16.688  0.3792  1.0288 -0.4270
 2803TIP3   OH229823   2.178   4.754  14.496 -0.3775 -0.1296 -0.4795
 2803TIP3    H129824   2.180   4.796  14.582 -0.5353 -0.9799 -0.0572
 2803TIP3    H229825   2.221   4.817  14.437  1.6033 -0.4065  0.6183
 2804TIP3   OH229826   3.240   6.656   4.649  0.1840  0.4305  0.2046
 2804TIP3    H129827   3.329   6.693   4.654  0.7789 -0.7401 -1.3107
 2804TIP3    H229828   3.246   6.589   4.581 -1.7282 -0.0814  0.5212
 2805TIP3   OH229829   3.134   2.241  10.404  0.2352 -0.4112 -0.2280
 2805TIP3    H129830   3.135   2.156  10.448 -1.6569 -0.6480 -0.5989
 2805TIP3    H229831   3.101   2.302  10.470  0.3533 -0.1931 -0.3677
 2806TIP3   OH229832   3.850   1.893   5.304 -0.3309  0.2144  0.2307
 2806TIP3    H129833   3.940   1.862   5.310  0.1590  1.2820 -1.2493
 2806TIP3    H229834   3.855   1.987   5.323 -1.2494  0.1252  0.9629
 2807TIP3   OH229835   2.661   3.661  14.260 -0.3074 -0.2331  0.5361
 2807TIP3    H129836   2.622   3.623  14.182 -0.1321  0.0148  0.3300
 2807TIP3    H229837   2.592   3.657  14.326 -1.1391  1.4910 -0.2160
 2808TIP3   OH229838   5.813   0.199   0.923 -0.2218 -1.1134 -0.0719
 2808TIP3    H129839   5.772   0.123   0.966 -1.1505 -0.7417 -0.2806
 2808TIP3    H229840   5.893   0.164   0.884  1.6961 -1.0254  3.6365
 2809TIP3   OH229841   3.606   1.266  11.291 -0.0170 -0.0424 -0.4360
 2809TIP3    H129842   3.531   1.310  11.331 -0.5289 -0.6119 -0.7632
 2809TIP3    H229843   3.622   1.190  11.348 -0.9517 -1.0346 -1.4722
 2810TIP3   OH229844   0.876   0.526   3.068 -0.2438  0.3534  0.6324
 2810TIP3    H129845   0.948   0.464   3.074  0.4485  1.1907  1.2412
 2810TIP3    H229846   0.919   0.612   3.061 -1.1769  0.7784 -0.0615
 2811TIP3   OH229847   4.872   5.580  11.676  0.7219 -0.0710  0.4200
 2811TIP3    H129848   4.965   5.600  11.672  1.1780 -2.0872  0.7989
 2811TIP3    H229849   4.866   5.498  11.725 -1.1503 -0.6833 -0.7601
 2812TIP3   OH229850   1.012   1.213   1.927 -0.2593  0.0887 -0.0385
 2812TIP3    H129851   0.954   1.283   1.956  0.9209  0.6972  0.8579
 2812TIP3    H229852   1.061   1.251   1.854 -1.3198 -0.5887 -1.1318
 2813TIP3   OH229853   1.329   5.754   2.551 -0.4769 -0.1448  0.4255
 2813TIP3    H129854   1.408   5.704   2.530  0.1117  0.7253  0.5538
 2813TIP3    H229855   1.344   5.840   2.514 -2.5441 -0.7632 -1.9447
 2814TIP3   OH229856   2.612   6.188   4.758  0.5130 -0.5018  0.5941
 2814TIP3    H129857   2.608   6.117   4.694  2.2973 -0.5175  0.4736
 2814TIP3    H229858   2.700   6.184   4.793  0.6927  1.7157  0.5000
 2815TIP3   OH229859   6.125   3.147  12.368 -0.3085 -0.4314  0.2631
 2815TIP3    H129860   6.062   3.099  12.422 -3.7581  2.6547 -0.7576
 2815TIP3    H229861   6.139   3.230  12.415  1.1059 -0.0858 -0.7393
 2816TIP3   OH229862   0.397   3.392   5.070 -0.0091  0.1014  0.0820
 2816TIP3    H129863   0.415   3.477   5.031  0.6443 -0.7222 -1.4883
 2816TIP3    H229864   0.319   3.361   5.025 -1.1041  0.4764  1.6751
 2817TIP3   OH229865   3.842   4.653  14.964 -0.5706 -0.5176  0.7159
 2817TIP3    H129866   3.923   4.602  14.970 -1.3169 -2.0716 -1.5310
 2817TIP3    H229867   3.870   4.744  14.973  1.5819 -0.9547 -1.0245
 2818TIP3   OH229868   4.902   0.225   4.472 -0.0018 -0.8037 -0.2051
 2818TIP3    H129869   4.831   0.286   4.490  1.6180  1.1897 -0.4556
 2818TIP3    H229870   4.908   0.222   4.376  2.7355  2.0909 -0.2275
 2819TIP3   OH229871   0.058   3.024  14.267  0.4359  0.2205  0.2116
 2819TIP3    H129872   0.006   3.080  14.324 -1.4926 -0.0029 -1.2594
 2819TIP3    H229873   0.078   2.947  14.319 -0.5518  0.3977  0.8581
 2820TIP3   OH229874   5.916   6.468   3.165 -0.3905  0.0474 -0.3791
 2820TIP3    H129875   5.847   6.471   3.099  0.5969 -0.8248 -1.4627
 2820TIP3    H229876   5.966   6.548   3.151 -0.5283  0.1464 -0.3057
 2821TIP3   OH229877   5.273   5.076  13.274 -0.0624 -0.7376 -0.4110
 2821TIP3    H129878   5.202   5.138  13.258 -1.6899 -1.8708  2.0494
 2821TIP3    H229879   5.306   5.099  13.361  1.6744 -1.1037 -0.9578
 2822TIP3   OH229880   5.193   1.438  12.498 -0.1812  0.0453  0.7988
 2822TIP3    H129881   5.128   1.384  12.543 -0.8559 -0.1531 -0.3848
 2822TIP3    H229882   5.181   1.526  12.534  2.3272 -0.9385  4.2642
 2823TIP3   OH229883   0.170   6.337  10.897 -0.0720  0.5163 -0.2583
 2823TIP3    H129884   0.232   6.290  10.842 -0.1687  1.5811 -1.2928
 2823TIP3    H229885   0.189   6.308  10.986  1.6371  0.5464 -0.6070
 2824TIP3   OH229886   0.314   6.535   5.607  0.0143 -0.4998  0.5724
 2824TIP3    H129887   0.232   6.570   5.574  0.2907 -0.2196  0.1703
 2824TIP3    H229888   0.309   6.546   5.702 -0.4096 -0.4844  0.5471
 2825TIP3   OH229889   0.467   4.934  12.032 -0.1587  0.0740  0.1001
 2825TIP3    H129890   0.445   5.014  11.985  0.5935  0.7679  0.9091
 2825TIP3    H229891   0.529   4.889  11.974  0.2251  0.5933  0.0960
 2826TIP3   OH229892   0.406   3.262   0.542 -0.3613 -0.1623  0.3781
 2826TIP3    H129893   0.335   3.233   0.485 -0.5789 -2.1544  1.6207
 2826TIP3    H229894   0.360   3.305   0.615 -0.2479 -0.7247  0.7787
 2827TIP3   OH229895   2.596   2.365   0.022  0.0745  0.0671  0.4319
 2827TIP3    H129896   2.646   2.352  -0.058 -0.1963 -0.9116  0.4093
 2827TIP3    H229897   2.528   2.428  -0.002 -0.6386 -1.0015 -0.4026
 2828TIP3   OH229898   5.857   0.237   4.879 -0.2828 -0.5541  0.4596
 2828TIP3    H129899   5.892   0.231   4.968 -2.7425 -0.9265  1.4375
 2828TIP3    H229900   5.927   0.203   4.824  2.2169  1.9730  1.9874
 2829TIP3   OH229901   3.159   0.785  16.765 -0.4562 -0.5372  0.3878
 2829TIP3    H129902   3.220   0.728  16.810  1.7215  1.1693 -0.3245
 2829TIP3    H229903   3.120   0.839  16.835  2.0400  1.2880  0.4416
 2830TIP3   OH229904   5.864   5.114   2.908  0.0341  0.3349  0.1851
 2830TIP3    H129905   5.807   5.058   2.960 -0.9519  1.8642  0.8033
 2830TIP3    H229906   5.824   5.116   2.821 -0.1704  0.4086  0.2798
 2831TIP3   OH229907   3.087   1.320  16.838  0.1139  0.4003  0.0636
 2831TIP3    H129908   3.009   1.304  16.892 -1.0597  1.5494 -1.2245
 2831TIP3    H229909   3.160   1.289  16.891 -1.3500 -2.1282  0.6692
 2832TIP3   OH229910   4.560   6.684   4.070  0.1247 -0.0388  0.0258
 2832TIP3    H129911   4.625   6.615   4.062  0.7578  0.7544 -2.0346
 2832TIP3    H229912   4.511   6.680   3.988 -1.5516  0.2503  0.9902
 2833TIP3   OH229913   2.445   5.216  11.824 -0.1572  0.2969  0.4111
 2833TIP3    H129914   2.372   5.268  11.792 -0.3110  0.1726  0.5615
 2833TIP3    H229915   2.461   5.249  11.913  0.9506  1.3697 -0.1675
 2834TIP3   OH229916   0.304   1.026   1.855  0.0396 -0.3330 -0.2433
 2834TIP3    H129917   0.287   1.014   1.948  0.4082 -0.0734 -0.1420
 2834TIP3    H229918   0.250   1.100   1.829  2.7751  2.0300  0.6052
 2835TIP3   OH229919   2.742   6.626  16.046  0.2341 -0.0220 -0.5616
 2835TIP3    H129920   2.713   6.596  15.960  2.7390  3.6317 -2.8321
 2835TIP3    H229921   2.715   6.718  16.049  2.6769  0.6733  1.3578
 2836TIP3   OH229922   3.929   1.534  15.806 -0.1562  0.4553 -0.9562
 2836TIP3    H129923   4.008   1.504  15.760 -0.1430 -1.0090  0.0035
 2836TIP3    H229924   3.898   1.608  15.754  2.4266  1.7011 -0.8019
 2837TIP3   OH229925   5.841   3.043   6.936  0.1965  0.2393  0.2833
 2837TIP3    H129926   5.766   2.995   6.900  0.4162  0.4405 -0.4637
 2837TIP3    H229927   5.856   3.113   6.873  0.5471  0.6488  0.8237
 2838TIP3   OH229928   3.521   3.397  17.082  0.2588  0.1268 -0.1393
 2838TIP3    H129929   3.508   3.492  17.079  0.9614  0.3718  2.9502
 2838TIP3    H229930   3.605   3.383  17.039  0.8100  1.0762  0.6072
 2839TIP3   OH229931   3.664   3.111  14.775  0.0165  0.0323 -0.2307
 2839TIP3    H129932   3.643   3.021  14.799  2.1509 -0.1095  1.2242
 2839TIP3    H229933   3.752   3.125  14.809  0.6223  1.9445 -2.4201
 2840TIP3   OH229934   1.364   0.205  11.550 -0.3597 -0.4496  0.1231
 2840TIP3    H129935   1.386   0.128  11.498  1.6158  0.8381 -1.0015
 2840TIP3    H229936   1.321   0.169  11.628  0.5179 -2.6862 -0.3782
 2841TIP3   OH229937   5.235   1.459  11.706  0.0828 -0.0479 -0.1804
 2841TIP3    H129938   5.281   1.376  11.720 -1.3903 -0.4816  2.4511
 2841TIP3    H229939   5.304   1.525  11.700  1.1553 -1.0677  0.7199
 2842TIP3   OH229940   1.009   2.338   3.680 -0.3913 -0.0359  0.1239
 2842TIP3    H129941   1.003   2.329   3.775 -0.4563  0.5951  0.1836
 2842TIP3    H229942   0.926   2.303   3.648 -0.8765  0.8659  0.3825
 2843TIP3   OH229943   0.462   0.239   4.208  0.4728  0.1951 -0.0013
 2843TIP3    H129944   0.447   0.274   4.120  1.7060  0.2483 -0.2026
 2843TIP3    H229945   0.434   0.148   4.202  2.4564 -0.3748 -1.0385
 2844TIP3   OH229946   5.769   4.831  11.573 -0.1041 -0.3429 -0.1588
 2844TIP3    H129947   5.737   4.890  11.641  2.0945 -0.6352  1.1517
 2844TIP3    H229948   5.698   4.767  11.562 -1.4741  1.0988  0.1381
 2845TIP3   OH229949   2.994   2.894   5.412 -0.1493 -0.4176 -0.4518
 2845TIP3    H129950   2.998   2.848   5.329 -2.2481  1.5128 -1.6856
 2845TIP3    H229951   3.085   2.899   5.442  0.4714 -2.2147 -2.0001
 2846TIP3   OH229952   3.494   2.553   2.045 -0.1715  0.2944  0.0821
 2846TIP3    H129953   3.501   2.539   2.139  0.6040 -2.0242 -0.3057
 2846TIP3    H229954   3.583   2.543   2.013 -0.4193  1.1534 -0.9121
 2847TIP3   OH229955   1.522   6.476   0.931  0.3970 -0.0327  0.2489
 2847TIP3    H129956   1.589   6.423   0.889  0.1984 -1.1150  1.2882
 2847TIP3    H229957   1.475   6.518   0.858  0.1608 -1.7581 -0.6060
 2848TIP3   OH229958   1.103   1.002  15.461 -0.5066  0.1437 -0.3520
 2848TIP3    H129959   1.057   1.076  15.423  0.4171  2.1475  2.2245
 2848TIP3    H229960   1.162   0.972  15.392 -2.2776  0.5520 -2.0704
 2849TIP3   OH229961   4.185   4.273  12.154  0.0412 -0.2052 -0.3490
 2849TIP3    H129962   4.260   4.320  12.192 -0.4173 -0.0480  0.3642
 2849TIP3    H229963   4.122   4.342  12.134  0.6980 -0.1509 -2.4245
 2850TIP3   OH229964   2.016   2.254  11.206  0.4569 -0.2660  0.1933
 2850TIP3    H129965   2.078   2.301  11.263  1.7398 -0.7643 -0.7751
 2850TIP3    H229966   2.036   2.161  11.221 -1.1781 -0.4954  1.0988
 2851TIP3   OH229967   3.403   4.770   1.038  0.0246  0.3027 -0.3467
 2851TIP3    H129968   3.388   4.771   1.132  0.5507  0.3402 -0.2619
 2851TIP3    H229969   3.454   4.849   1.020  1.0950 -0.3950 -0.4575
 2852TIP3   OH229970   2.994   5.012  11.872  0.2260 -0.4196  0.2955
 2852TIP3    H129971   2.956   4.951  11.810 -2.4527  0.2974  1.1629
 2852TIP3    H229972   2.973   4.975  11.958  0.4002  0.6413  0.8069
 2853TIP3   OH229973   6.650   0.907   2.454 -0.8327 -0.6163 -0.1445
 2853TIP3    H129974   6.679   0.992   2.421  1.4062 -1.6499 -0.9260
 2853TIP3    H229975   6.623   0.859   2.376  1.1302 -1.7966 -0.1479
 2854TIP3   OH229976   1.054   1.725   0.984  0.5917  0.4264  0.5084
 2854TIP3    H129977   1.126   1.675   1.020 -0.1901 -1.7799 -0.9159
 2854TIP3    H229978   0.977   1.669   0.996 -0.2867  1.2183 -1.2023
 2855TIP3   OH229979   5.779   4.729  13.182 -0.3744 -0.0191  0.3834
 2855TIP3    H129980   5.705   4.789  13.175  0.1066  0.6013  0.5698
 2855TIP3    H229981   5.856   4.785  13.179  0.1084 -0.7154 -0.4073
 2856TIP3   OH229982   6.452   2.413   3.827 -0.5759  0.9840 -0.3213
 2856TIP3    H129983   6.462   2.319   3.843  0.3733  0.6984 -2.4097
 2856TIP3    H229984   6.451   2.452   3.914 -0.2852 -0.8950  0.5510
 2857TIP3   OH229985   0.542   2.174  11.584 -0.3822  0.2406 -0.1472
 2857TIP3    H129986   0.453   2.174  11.548  0.1615 -1.3282 -1.5685
 2857TIP3    H229987   0.543   2.247  11.646 -2.3104  1.0006 -0.9693
 2858TIP3   OH229988   0.729   5.208   0.146 -0.9002  0.4113 -0.3059
 2858TIP3    H129989   0.669   5.272   0.107 -0.5444  0.2395 -1.1425
 2858TIP3    H229990   0.722   5.131   0.090 -0.3854  0.1604 -0.0267
 2859TIP3   OH229991   0.103   6.386   1.048 -0.2708  0.1444  0.4273
 2859TIP3    H129992   0.105   6.314   1.111  0.8427  0.0891  0.3365
 2859TIP3    H229993   0.014   6.384   1.013 -0.5431 -0.5745  1.1351
 2860TIP3   OH229994   2.110   2.033   0.008  0.6641 -0.3343 -0.4976
 2860TIP3    H129995   2.068   1.959   0.051 -1.5031  1.4320  0.5287
 2860TIP3    H229996   2.203   2.019   0.022  0.1787 -1.8439  1.3885
 2861TIP3   OH229997   6.165   5.903  16.045  0.5944 -0.1549 -0.7457
 2861TIP3    H129998   6.113   5.853  15.982  0.4563 -0.0778 -0.6915
 2861TIP3    H229999   6.182   5.987  16.001 -0.9432  0.5666 -0.0122
 2862TIP3   OH230000   0.565   4.949   0.688  0.2516 -0.4425 -0.1835
 2862TIP3    H130001   0.528   4.930   0.602  0.1012 -1.8141  0.1737
 2862TIP3    H230002   0.574   4.863   0.730  0.3429  0.2120  1.1632
 2863TIP3   OH230003   4.176   2.283  14.941  0.2068 -0.6885  0.9308
 2863TIP3    H130004   4.129   2.347  14.888  2.6636  1.3468  1.0865
 2863TIP3    H230005   4.173   2.202  14.890 -2.0755 -0.2178  0.2469
 2864TIP3   OH230006   4.454   0.670   3.790 -0.7282  0.6312 -0.0439
 2864TIP3    H130007   4.380   0.692   3.847 -1.1177 -0.8997  0.0681
 2864TIP3    H230008   4.513   0.620   3.847  0.0385  1.1931 -0.3391
 2865TIP3   OH230009   0.544   0.927   3.851  0.4971  0.3528 -0.0452
 2865TIP3    H130010   0.532   0.845   3.803  0.7570  0.1799  0.1861
 2865TIP3    H230011   0.595   0.982   3.792 -0.3807  0.6470 -0.5343
 2866TIP3   OH230012   4.214   3.645  12.593  0.0221 -0.2120 -0.7354
 2866TIP3    H130013   4.250   3.715  12.647  1.9018 -1.8056  0.1641
 2866TIP3    H230014   4.136   3.616  12.641  1.0201 -0.8200  0.5833
 2867TIP3   OH230015   1.233   6.081  14.818 -0.0107  0.2245 -0.4400
 2867TIP3    H130016   1.170   6.066  14.888  0.7647  2.3281  0.7488
 2867TIP3    H230017   1.311   6.115  14.862  0.5202  1.5430 -2.3190
 2868TIP3   OH230018   3.308   5.419  14.218 -0.1379  0.5719  0.4219
 2868TIP3    H130019   3.243   5.367  14.266 -2.1122  1.4796 -1.1819
 2868TIP3    H230020   3.265   5.503  14.203  2.6304  2.3445  2.0431
 2869TIP3   OH230021   5.109   4.244   0.980 -0.3651  0.2178 -0.2252
 2869TIP3    H130022   5.083   4.185   1.050  0.8207  0.1915  0.1997
 2869TIP3    H230023   5.203   4.256   0.992 -0.2973  0.8559 -1.3233
 2870TIP3   OH230024   4.515   1.476  11.706 -0.4939 -1.0449 -0.0273
 2870TIP3    H130025   4.581   1.546  11.704 -2.0639  0.4790  0.5983
 2870TIP3    H230026   4.471   1.486  11.790 -3.0611 -0.5865 -1.3933
 2871TIP3   OH230027   3.328   0.700  17.013  0.2429  0.1008 -0.4826
 2871TIP3    H130028   3.405   0.709  17.069  0.3000 -1.9910 -0.1851
 2871TIP3    H230029   3.331   0.609  16.982 -2.0284  0.0276 -0.5759
 2872TIP3   OH230030   3.396   2.698   0.815  0.8287 -0.5526  0.0800
 2872TIP3    H130031   3.365   2.656   0.895  0.5421  0.4264  0.4909
 2872TIP3    H230032   3.484   2.729   0.836  1.0398 -0.9393 -0.2224
 2873TIP3   OH230033   6.583   3.809  14.214  0.1417  0.4328  0.2738
 2873TIP3    H130034   6.603   3.730  14.264  1.0798  0.2946 -0.2907
 2873TIP3    H230035   6.657   3.867  14.231  1.2350 -0.1940 -2.1071
 2874TIP3   OH230036   2.672   2.309   4.452 -0.3288 -0.0410  0.2388
 2874TIP3    H130037   2.707   2.227   4.417  0.3818 -0.5041  1.9734
 2874TIP3    H230038   2.582   2.312   4.419  0.4471 -0.2292 -1.9442
 2875TIP3   OH230039   5.885   3.186   0.236 -0.1844  0.6610 -0.1829
 2875TIP3    H130040   5.977   3.160   0.241 -0.7929 -1.3171  1.7148
 2875TIP3    H230041   5.848   3.129   0.168 -1.1881 -2.5831  2.9417
 2876TIP3   OH230042   1.825   3.049  12.488 -0.3554 -0.3802  0.2022
 2876TIP3    H130043   1.815   3.141  12.514 -0.7922 -0.4792  0.3952
 2876TIP3    H230044   1.752   3.004  12.532 -0.5369 -0.7042 -0.4310
 2877TIP3   OH230045   4.456   2.281  14.463  0.3633 -0.3331 -0.5078
 2877TIP3    H130046   4.374   2.310  14.423  0.8252  0.9213 -0.5490
 2877TIP3    H230047   4.429   2.210  14.522 -0.5817 -0.8088 -1.4728
 2878TIP3   OH230048   2.069   3.834  14.908  0.4903 -0.3071  0.0744
 2878TIP3    H130049   2.029   3.764  14.960  1.2172 -0.4443  0.4662
 2878TIP3    H230050   2.122   3.788  14.843 -1.5256 -0.1522 -1.7095
 2879TIP3   OH230051   4.131   2.240  16.768  0.0898  0.0397  0.0464
 2879TIP3    H130052   4.074   2.300  16.817 -1.9507 -1.3632 -0.5411
 2879TIP3    H230053   4.216   2.283  16.768 -1.1905  2.6858  0.0915
 2880TIP3   OH230054   1.739   5.800  12.422  0.5582  0.2720  0.1400
 2880TIP3    H130055   1.715   5.810  12.514  0.3141  1.8798 -0.0783
 2880TIP3    H230056   1.827   5.761  12.424  1.3700  2.0608  1.1157
 2881TIP3   OH230057   3.768   4.243   3.299  0.4196  0.3429 -0.0340
 2881TIP3    H130058   3.685   4.268   3.259 -0.0371  0.2814  0.8532
 2881TIP3    H230059   3.781   4.308   3.369  1.3893  0.6838 -0.5139
 2882TIP3   OH230060   1.137   1.123  16.235  0.0487 -0.5140 -0.2941
 2882TIP3    H130061   1.221   1.168  16.230 -1.3720  2.1189 -0.9861
 2882TIP3    H230062   1.145   1.066  16.312  2.5133 -0.4526 -0.4655
 2883TIP3   OH230063   5.875   0.077  12.287  0.4718 -0.3109  0.0241
 2883TIP3    H130064   5.811   0.139  12.251  0.9719 -0.2509 -0.7623
 2883TIP3    H230065   5.909   0.031  12.211  1.0911 -0.6137  0.4834
 2884TIP3   OH230066   1.868   0.458  11.751  0.7961  0.3795 -0.5161
 2884TIP3    H130067   1.830   0.536  11.713 -0.6268  1.9559  3.8526
 2884TIP3    H230068   1.799   0.392  11.747  0.0670  1.0553  0.8609
 2885TIP3   OH230069   4.308   3.869   1.197  0.4987 -0.1152  0.5703
 2885TIP3    H130070   4.368   3.912   1.258  0.5573  1.4404 -0.5628
 2885TIP3    H230071   4.224   3.915   1.210  0.7008  0.7179 -1.0222
 2886TIP3   OH230072   3.878   0.049   1.169  0.1126 -0.1902  0.4596
 2886TIP3    H130073   3.785   0.071   1.171 -0.7316 -3.5038  0.7017
 2886TIP3    H230074   3.882  -0.032   1.118  2.8768 -0.0734  0.4247
 2887TIP3   OH230075   3.128   3.178   4.962 -0.3482 -0.4300 -0.1666
 2887TIP3    H130076   3.105   3.149   5.050 -0.3674 -2.2324 -0.7508
 2887TIP3    H230077   3.113   3.102   4.907  0.2307  0.5086 -1.6493
 2888TIP3   OH230078   1.688   0.062   4.615 -0.4679  0.2846 -0.7776
 2888TIP3    H130079   1.629   0.012   4.560  0.3863  0.7226 -2.1115
 2888TIP3    H230080   1.742   0.112   4.554  0.9688  0.2480  0.4246
 2889TIP3   OH230081   5.820   5.234   5.264 -0.0839 -0.0117 -0.6913
 2889TIP3    H130082   5.832   5.326   5.287 -1.0162 -0.0237 -0.1332
 2889TIP3    H230083   5.827   5.231   5.169  1.6785  0.3712 -0.5886
 2890TIP3   OH230084   1.984   3.979  12.996  0.5780 -0.2138  0.0708
 2890TIP3    H130085   1.936   3.996  13.076 -0.0048 -0.2575 -0.2686
 2890TIP3    H230086   2.013   3.888  13.005  0.6887 -0.1545  0.3205
 2891TIP3   OH230087   4.770   3.822   5.146  0.4818 -0.0061 -0.1367
 2891TIP3    H130088   4.787   3.904   5.099  0.2713 -0.8198 -1.6873
 2891TIP3    H230089   4.676   3.825   5.166  0.1428 -0.5487 -1.5776
 2892TIP3   OH230090   6.488   5.223  11.891  0.2771  0.4491 -0.2954
 2892TIP3    H130091   6.542   5.161  11.842 -2.2495 -1.3593 -0.9362
 2892TIP3    H230092   6.441   5.272  11.824 -0.5586  0.4067  0.2442
 2893TIP3   OH230093   0.891   6.145  15.216  0.7295 -0.2746 -0.4183
 2893TIP3    H130094   0.977   6.188  15.224  0.2884  0.5374  0.0327
 2893TIP3    H230095   0.868   6.121  15.306  0.2413 -0.0081 -0.4704
 2894TIP3   OH230096   1.768   0.375   2.927 -0.2026  0.4455 -0.3629
 2894TIP3    H130097   1.703   0.435   2.962 -0.6552 -0.1184 -0.2334
 2894TIP3    H230098   1.720   0.320   2.864 -0.0144 -0.4331  0.2436
 2895TIP3   OH230099   1.002   5.565  16.622  0.2693  0.6034 -0.2649
 2895TIP3    H130100   1.019   5.558  16.716  0.4409 -1.4211 -0.4142
 2895TIP3    H230101   0.915   5.528  16.611 -0.5190  2.5598 -0.6774
 2896TIP3   OH230102   3.461   3.854  12.618 -0.3436 -0.4190 -0.2147
 2896TIP3    H130103   3.385   3.813  12.578 -0.3252  0.4413 -1.1348
 2896TIP3    H230104   3.499   3.785  12.674 -1.7005 -0.8917  0.1428
 2897TIP3   OH230105   4.902   4.545  14.706 -0.2630 -0.4240 -0.0186
 2897TIP3    H130106   4.820   4.593  14.697 -0.1017  0.2316  1.8124
 2897TIP3    H230107   4.875   4.453  14.704 -0.8842 -0.2255 -0.8711
 2898TIP3   OH230108   2.445   0.769   2.561  0.1212 -0.3717 -0.0642
 2898TIP3    H130109   2.506   0.733   2.626  0.3704 -0.2907 -0.2520
 2898TIP3    H230110   2.380   0.816   2.613  0.4756 -0.0726  0.1122
 2899TIP3   OH230111   3.071   3.121   5.215 -0.3933  0.6181 -0.1959
 2899TIP3    H130112   2.993   3.130   5.270  0.3328  0.5786  0.8533
 2899TIP3    H230113   3.142   3.159   5.267  0.3660  0.2821 -0.9654
 2900TIP3   OH230114   5.591   6.046   2.334 -0.5296  0.3926  0.2063
 2900TIP3    H130115   5.560   5.961   2.300  1.6389 -0.4139  0.1725
 2900TIP3    H230116   5.560   6.110   2.270 -0.0767 -0.6575 -1.0886
 2901TIP3   OH230117   4.351   2.839   6.855  0.3622  0.0008 -0.0229
 2901TIP3    H130118   4.368   2.755   6.812 -1.4276  0.3039 -1.3684
 2901TIP3    H230119   4.416   2.899   6.817  0.8817 -0.4981  0.0760
 2902TIP3   OH230120   3.215   3.089  15.534  0.2165 -0.2268 -0.3383
 2902TIP3    H130121   3.246   3.010  15.491 -0.8260 -0.9140  0.1662
 2902TIP3    H230122   3.123   3.072  15.554  0.8755 -0.3147  2.9754
 2903TIP3   OH230123   1.223   2.309  15.259 -0.1780  0.1034  0.3104
 2903TIP3    H130124   1.174   2.293  15.339  0.4130  0.4939  0.7472
 2903TIP3    H230125   1.243   2.221  15.226 -0.8045 -0.0570  0.3502
 2904TIP3   OH230126   0.094   3.319   3.944  0.2742 -0.1999 -0.6836
 2904TIP3    H130127   0.182   3.290   3.966 -0.0154 -1.2934 -0.9341
 2904TIP3    H230128   0.090   3.316   3.849 -0.5781 -1.8110 -0.6081
 2905TIP3   OH230129   4.992   6.276  11.199 -0.7029 -0.2899  0.3521
 2905TIP3    H130130   4.972   6.321  11.116 -0.8439 -1.4492 -0.2575
 2905TIP3    H230131   5.080   6.241  11.187 -0.8538 -0.7433  0.5650
 2906TIP3   OH230132   4.315   2.416  15.872  0.1430 -0.2353  0.2857
 2906TIP3    H130133   4.391   2.386  15.922  0.0401  0.1741  0.6928
 2906TIP3    H230134   4.324   2.373  15.787  1.0328  0.1068  0.2012
 2907TIP3   OH230135   5.991   2.514   4.167  0.1505 -0.7719 -0.0159
 2907TIP3    H130136   6.069   2.473   4.204 -0.2656 -1.4699  0.0880
 2907TIP3    H230137   6.014   2.531   4.076  0.3287 -1.2017 -0.0498
 2908TIP3   OH230138   0.125   3.337   0.394  0.1549  0.3007 -0.1897
 2908TIP3    H130139   0.171   3.420   0.376  0.0051  0.4965  0.3187
 2908TIP3    H230140   0.159   3.277   0.328  0.2404  0.7778 -0.5869
 2909TIP3   OH230141   4.228   5.035   2.776  0.1888  0.3953  0.1358
 2909TIP3    H130142   4.239   4.990   2.859  0.1264  0.9882  0.4650
 2909TIP3    H230143   4.135   5.056   2.771  0.4708  1.8362  0.6877
 2910TIP3   OH230144   3.252   1.716   2.132 -0.0730  0.0671  0.0131
 2910TIP3    H130145   3.296   1.632   2.141  0.5215  0.2778 -0.9005
 2910TIP3    H230146   3.295   1.772   2.197 -0.5465 -0.3572  0.6999
 2911TIP3   OH230147   1.542   3.310  15.885 -0.1910 -0.4426 -0.1222
 2911TIP3    H130148   1.520   3.321  15.792 -0.5401 -0.5842 -0.0597
 2911TIP3    H230149   1.503   3.385  15.929  1.1496  0.3437 -0.2663
 2912TIP3   OH230150   5.926   0.669   2.385  0.1500 -0.1430  0.2109
 2912TIP3    H130151   5.931   0.747   2.440  0.1174  0.0467 -0.0531
 2912TIP3    H230152   6.018   0.647   2.367  0.1482  0.2315 -0.2696
 2913TIP3   OH230153   6.134   6.773  15.934 -0.1334 -0.0116 -0.0286
 2913TIP3    H130154   6.167   6.846  15.986  1.9249 -0.6415 -0.4323
 2913TIP3    H230155   6.040   6.790  15.927 -0.2818  0.7020  2.8942
 2914TIP3   OH230156   2.139   3.817   5.034  0.3197 -0.1055 -0.2437
 2914TIP3    H130157   2.198   3.879   5.077 -2.0521  0.4860  2.3101
 2914TIP3    H230158   2.191   3.779   4.964  2.9990  2.0544  0.4937
 2915TIP3   OH230159   0.490   5.018   4.477  0.3198  0.2779  0.3291
 2915TIP3    H130160   0.507   5.109   4.453  1.2471  0.3206  1.1269
 2915TIP3    H230161   0.398   5.004   4.453  0.1215  1.4702  0.3425
 2916TIP3   OH230162   0.445   3.053  16.618  0.1597 -0.4463  0.9642
 2916TIP3    H130163   0.388   3.123  16.649 -0.9613 -1.7914  2.0219
 2916TIP3    H230164   0.433   2.983  16.681  2.9173 -0.8182  1.1270
 2917TIP3   OH230165   5.102   5.674  13.261 -0.1252 -0.6596 -0.1944
 2917TIP3    H130166   5.131   5.595  13.216 -2.4194 -1.1628 -0.8004
 2917TIP3    H230167   5.090   5.738  13.192 -1.4796 -0.7635 -0.0566
 2918TIP3   OH230168   6.206   4.309  15.547  0.4587  0.0346 -0.2371
 2918TIP3    H130169   6.235   4.400  15.535  0.3135  0.1376  0.1919
 2918TIP3    H230170   6.227   4.289  15.638 -0.2102 -0.1023 -0.1063
 2919TIP3   OH230171   4.469   5.807   2.271 -0.2994  0.1663  0.4586
 2919TIP3    H130172   4.448   5.852   2.189  1.4159 -1.8098 -1.1114
 2919TIP3    H230173   4.384   5.788   2.310 -1.1880  0.3274 -1.3194
 2920TIP3   OH230174   6.163   3.689   6.267  0.2042 -0.4491 -0.5022
 2920TIP3    H130175   6.137   3.610   6.219 -1.6503  1.2153 -2.3502
 2920TIP3    H230176   6.104   3.757   6.234  2.9486  2.1290 -0.2660
 2921TIP3   OH230177   6.227   4.887   1.249  0.1405 -0.4796 -0.3856
 2921TIP3    H130178   6.263   4.810   1.206  1.6712 -0.1786  0.3129
 2921TIP3    H230179   6.303   4.942   1.267 -0.6952  0.2869  0.9175
 2922TIP3   OH230180   2.316   3.036  14.128  0.1974 -0.0833 -0.4479
 2922TIP3    H130181   2.333   2.998  14.042 -0.4996 -1.2315 -0.0826
 2922TIP3    H230182   2.365   2.980  14.189 -0.7101 -0.3158  0.0759
 2923TIP3   OH230183   5.050   0.911   5.091 -1.0438 -0.4955 -0.0359
 2923TIP3    H130184   4.992   0.894   5.165 -2.3390 -1.2144 -1.1949
 2923TIP3    H230185   5.049   0.830   5.040  2.1712 -1.0606  0.6950
 2924TIP3   OH230186   0.935   5.781  13.259  0.0682  1.1080  0.0064
 2924TIP3    H130187   1.029   5.800  13.249  0.4372  0.0102  1.1722
 2924TIP3    H230188   0.929   5.686  13.247 -0.8040  1.0892  0.5967
 2925TIP3   OH230189   1.392   2.685   1.147 -0.3691  0.2955  0.3411
 2925TIP3    H130190   1.320   2.667   1.208 -1.2431 -0.4300 -0.8784
 2925TIP3    H230191   1.447   2.607   1.151 -0.5419  0.1582  0.0408
 2926TIP3   OH230192   0.546   0.409  10.539 -0.5080  0.0457  0.5287
 2926TIP3    H130193   0.502   0.415  10.455  0.9367 -0.3933 -0.2842
 2926TIP3    H230194   0.567   0.316  10.549  3.2449  0.6847 -0.7270
 2927TIP3   OH230195   1.413   0.200   5.491  0.0107 -0.6887 -0.1100
 2927TIP3    H130196   1.497   0.247   5.493 -0.9268  0.9679  2.5154
 2927TIP3    H230197   1.371   0.231   5.411  1.4823 -0.8159 -0.9575
 2928TIP3   OH230198   1.278   3.219  12.890 -0.2388 -0.1800 -0.1564
 2928TIP3    H130199   1.212   3.271  12.844  0.4341  2.3499  1.6299
 2928TIP3    H230200   1.230   3.174  12.959 -0.8501 -2.0766 -1.7966
 2929TIP3   OH230201   5.050   0.447  14.604 -0.7168  0.5746 -0.2388
 2929TIP3    H130202   5.032   0.529  14.651 -1.6379  0.2486 -0.0240
 2929TIP3    H230203   5.091   0.391  14.670  1.6576  1.5026 -0.8681
 2930TIP3   OH230204   3.081   2.383   5.136 -0.2454 -0.2376  0.0784
 2930TIP3    H130205   3.012   2.320   5.114  0.7479 -0.6180 -2.0876
 2930TIP3    H230206   3.159   2.329   5.149  0.2369  0.4006 -0.1269
 2931TIP3   OH230207   1.362   1.008  15.944 -0.3800 -0.3969 -0.6012
 2931TIP3    H130208   1.362   0.933  16.003 -0.0380 -0.1733 -0.3123
 2931TIP3    H230209   1.454   1.037  15.941 -0.9581  1.8469  1.6681
 2932TIP3   OH230210   3.252   2.818  14.433 -0.3432 -0.0816 -0.3943
 2932TIP3    H130211   3.177   2.842  14.378 -0.1418  1.8541  0.1382
 2932TIP3    H230212   3.300   2.900  14.444 -0.1623 -0.5324  2.3172
 2933TIP3   OH230213   0.986   0.568  12.763  0.0859  0.1313  0.6926
 2933TIP3    H130214   0.984   0.608  12.850  3.6441 -0.1224  0.9724
 2933TIP3    H230215   1.033   0.632  12.708 -0.7816 -0.3874 -0.6779
 2934TIP3   OH230216   3.058   4.149   3.569 -0.2151  0.1689 -0.2793
 2934TIP3    H130217   2.979   4.140   3.622 -1.4967  1.5381 -1.9033
 2934TIP3    H230218   3.127   4.166   3.632 -1.4998  0.5851  1.0391
 2935TIP3   OH230219   6.424   5.965  14.895 -0.1272  0.3201  0.2490
 2935TIP3    H130220   6.373   5.901  14.946  0.0406 -0.6781 -0.8074
 2935TIP3    H230221   6.510   5.966  14.937 -0.1227 -0.1700  0.2517
 2936TIP3   OH230222   3.407   4.282   4.494  0.0522 -0.2785  0.3981
 2936TIP3    H130223   3.490   4.296   4.538  1.3755 -2.5122 -1.2598
 2936TIP3    H230224   3.375   4.198   4.529 -1.4639  0.5171  0.9552
 2937TIP3   OH230225   2.323   0.148  15.554 -0.5618 -0.3396 -0.4040
 2937TIP3    H130226   2.371   0.229  15.572 -0.0648 -0.7459  0.1282
 2937TIP3    H230227   2.388   0.079  15.569 -1.4575 -0.9233  0.7834
 2938TIP3   OH230228   6.325   6.417  13.216  0.3963 -0.2679 -0.1883
 2938TIP3    H130229   6.263   6.421  13.289 -0.0681 -1.9036 -0.4719
 2938TIP3    H230230   6.395   6.479  13.240 -0.2206 -0.0897  1.1863
 2939TIP3   OH230231   5.386   6.737   2.204 -0.5974  0.1556  0.8480
 2939TIP3    H130232   5.298   6.751   2.171 -0.5422 -1.2947  0.0285
 2939TIP3    H230233   5.441   6.735   2.125  0.0642  0.4303  1.3005
 2940TIP3   OH230234   2.141   5.031  15.001 -0.1454  0.2307 -0.7689
 2940TIP3    H130235   2.108   5.067  15.083 -0.5258 -0.7931 -0.4664
 2940TIP3    H230236   2.149   4.937  15.017  1.3304  0.2361 -1.3803
 2941TIP3   OH230237   1.191   5.564   1.436  0.0394 -0.8307  0.4836
 2941TIP3    H130238   1.142   5.482   1.441  0.5906 -1.1923 -0.0480
 2941TIP3    H230239   1.219   5.581   1.526 -2.3067  0.1507  1.0929
 2942TIP3   OH230240   0.688   2.566   4.625  0.2079  0.8947 -0.1385
 2942TIP3    H130241   0.770   2.581   4.576  1.0396  0.3796  1.0731
 2942TIP3    H230242   0.681   2.471   4.631 -0.6204  0.9333 -0.4558
 2943TIP3   OH230243   3.786   6.553   2.978 -0.3371 -0.3413 -0.0761
 2943TIP3    H130244   3.872   6.590   2.998 -0.8080  0.4828  0.4862
 2943TIP3    H230245   3.753   6.523   3.062 -0.2835 -1.3476 -0.4154
 2944TIP3   OH230246   2.446   1.623  13.972  0.3736 -0.3959 -0.2157
 2944TIP3    H130247   2.416   1.702  14.017 -0.5270  0.9634 -3.1049
 2944TIP3    H230248   2.374   1.562  13.979 -0.4833  0.4650 -1.3318
 2945TIP3   OH230249   0.772   5.629   2.845 -0.3635  0.0942  0.8288
 2945TIP3    H130250   0.767   5.552   2.788 -0.3998 -0.7881  1.9863
 2945TIP3    H230251   0.842   5.608   2.907 -0.2680  1.0699  1.0512
 2946TIP3   OH230252   2.400   6.183  12.105  0.0642  1.1359  0.2029
 2946TIP3    H130253   2.412   6.278  12.105 -0.9002  1.2626 -0.3723
 2946TIP3    H230254   2.474   6.150  12.054 -0.7491  1.7431 -1.4009
 2947TIP3   OH230255   2.118   2.130  11.732  0.0398  0.0967  0.2486
 2947TIP3    H130256   2.060   2.192  11.687 -0.5909  0.8591  2.0595
 2947TIP3    H230257   2.080   2.044  11.715 -0.3728  0.4061 -0.3951
 2948TIP3   OH230258   5.151   3.011  10.832 -0.3245  0.4016 -0.1515
 2948TIP3    H130259   5.069   2.968  10.853  0.6030 -0.7944  1.1148
 2948TIP3    H230260   5.169   3.068  10.907  0.7141 -0.4478  0.2631
 2949TIP3   OH230261   3.707   0.187   0.706 -0.2465  0.0748 -0.0595
 2949TIP3    H130262   3.618   0.199   0.738 -0.3630 -0.1832 -0.2818
 2949TIP3    H230263   3.763   0.221   0.775 -0.5547  1.3530 -0.4309
 2950TIP3   OH230264   1.390   5.610   2.141 -0.6258 -0.0531  0.4159
 2950TIP3    H130265   1.379   5.548   2.214 -0.8602 -0.0885  0.3507
 2950TIP3    H230266   1.386   5.696   2.182 -0.4618 -0.0758  0.4847
 2951TIP3   OH230267   3.496   1.562   3.754  0.0755 -0.3910  0.4637
 2951TIP3    H130268   3.440   1.636   3.777  0.3329 -0.9865  3.1948
 2951TIP3    H230269   3.575   1.575   3.805  1.3616 -0.9880 -1.3270
 2952TIP3   OH230270   5.553   2.317  16.985 -0.4022  0.5365 -0.4266
 2952TIP3    H130271   5.475   2.334  16.932 -0.1025  0.3700 -0.9226
 2952TIP3    H230272   5.526   2.248  17.045 -0.4877  0.1076 -0.9502
 2953TIP3   OH230273   5.249   0.671   3.456  0.6288 -0.3763  0.0733
 2953TIP3    H130274   5.173   0.710   3.500  0.0304 -1.0488 -0.3723
 2953TIP3    H230275   5.309   0.651   3.528  1.1434  1.7790  0.2814
 2954TIP3   OH230276   6.351   5.519  11.106  0.4705 -0.5500 -0.5718
 2954TIP3    H130277   6.351   5.424  11.105 -2.3583 -0.5906 -0.6851
 2954TIP3    H230278   6.427   5.543  11.158  0.8930 -2.8839 -0.0789
 2955TIP3   OH230279   0.917   6.665   2.949 -1.0068 -0.2259 -0.0972
 2955TIP3    H130280   0.896   6.588   2.896 -0.3794  0.3607 -1.2061
 2955TIP3    H230281   1.009   6.653   2.973 -1.2321 -0.3914  0.7063
 2956TIP3   OH230282   0.636   1.606   5.896  0.0999  0.0272 -0.1657
 2956TIP3    H130283   0.650   1.674   5.962 -0.1948 -0.2832  0.2212
 2956TIP3    H230284   0.629   1.525   5.947  1.2533 -0.4077 -0.6812
 2957TIP3   OH230285   0.717   2.809   3.419  0.0674 -0.0761  0.3144
 2957TIP3    H130286   0.670   2.780   3.340  1.6210  1.5435 -1.2548
 2957TIP3    H230287   0.652   2.860   3.467  0.1410  2.2306 -1.8965
 2958TIP3   OH230288   4.671   5.918  17.164 -0.0977 -0.0348  0.4836
 2958TIP3    H130289   4.688   5.927  17.070 -0.8973  0.2559  0.3628
 2958TIP3    H230290   4.639   5.829  17.174 -0.5081  0.1024  0.4009
 2959TIP3   OH230291   2.911   0.069  12.518  0.0011  0.0558  1.2999
 2959TIP3    H130292   2.862  -0.011  12.540 -0.1182 -0.0714  0.5864
 2959TIP3    H230293   2.998   0.038  12.492  0.0123  0.1693  1.2008
 2960TIP3   OH230294   3.669   5.570  16.527  0.3015 -0.5326  0.1337
 2960TIP3    H130295   3.577   5.549  16.512  0.4454 -0.3876 -1.0066
 2960TIP3    H230296   3.671   5.666  16.529  0.4963 -0.5248 -0.3440
 2961TIP3   OH230297   6.336   1.022  16.961 -0.0862 -0.6274  1.0504
 2961TIP3    H130298   6.271   1.049  17.025  1.0193  0.4368  1.7461
 2961TIP3    H230299   6.342   0.927  16.971 -2.4892 -0.9143  0.0392
 2962TIP3   OH230300   6.354   5.227  11.452 -0.4309 -0.0035 -0.0276
 2962TIP3    H130301   6.410   5.217  11.375  0.0117 -2.0832  0.5587
 2962TIP3    H230302   6.265   5.224  11.417 -0.2691 -2.6946 -0.2867
 2963TIP3   OH230303   0.981   6.000   0.965 -0.2325 -0.0139 -0.3682
 2963TIP3    H130304   1.011   6.010   1.056  1.6282 -1.3196 -0.8115
 2963TIP3    H230305   1.040   6.055   0.914 -1.2148  0.6417 -0.8114
 2964TIP3   OH230306   6.420   6.029   2.385  0.1957 -0.5966  0.3692
 2964TIP3    H130307   6.409   5.935   2.392 -0.7864 -0.5875 -0.9393
 2964TIP3    H230308   6.332   6.065   2.397  0.2127  0.0171 -1.1904
 2965TIP3   OH230309   2.658   0.615   4.297  0.5743 -0.6791  0.0507
 2965TIP3    H130310   2.670   0.702   4.257 -0.8833  0.2141  1.4800
 2965TIP3    H230311   2.598   0.570   4.238  0.3728 -0.2572 -0.0731
 2966TIP3   OH230312   0.558   6.620  15.760  0.5295  0.3592 -0.3337
 2966TIP3    H130313   0.556   6.714  15.742  1.8359  0.2255 -1.2050
 2966TIP3    H230314   0.534   6.613  15.852 -1.1076  1.4280 -0.6529
 2967TIP3   OH230315   2.831   4.005  16.716  0.2335 -0.2034 -0.1622
 2967TIP3    H130316   2.741   4.024  16.690  0.1434  0.4791  0.6240
 2967TIP3    H230317   2.823   3.940  16.786  0.3992 -0.8774 -0.7665
 2968TIP3   OH230318   0.318   3.646  11.069  0.3314 -0.3791  0.1717
 2968TIP3    H130319   0.227   3.616  11.074 -0.1501  1.1774  1.0156
 2968TIP3    H230320   0.370   3.566  11.072 -0.9782 -1.2167  0.9318
 2969TIP3   OH230321   0.437   2.576   1.343 -0.0610  0.3041  0.3310
 2969TIP3    H130322   0.470   2.492   1.311 -2.6382 -1.0239  0.9951
 2969TIP3    H230323   0.385   2.610   1.270  2.1335  2.0551 -0.4659
 2970TIP3   OH230324   1.326   0.940  14.357  0.2604  0.1708 -0.0663
 2970TIP3    H130325   1.237   0.908  14.373  0.4569 -0.2673  0.1607
 2970TIP3    H230326   1.314   1.029  14.323 -0.3024 -0.2156 -0.9028
 2971TIP3   OH230327   2.600   6.727   3.690 -0.0194 -0.0771  0.3373
 2971TIP3    H130328   2.529   6.754   3.748 -0.1779 -0.5849  0.3783
 2971TIP3    H230329   2.659   6.802   3.688  1.1514 -0.8785  2.9317
 2972TIP3   OH230330   4.234   1.960  16.422 -0.2031  0.0761  0.2843
 2972TIP3    H130331   4.265   1.986  16.509 -0.4746  0.0708  0.3836
 2972TIP3    H230332   4.140   1.942  16.435 -0.4007  0.7833 -0.1706
 2973TIP3   OH230333   2.688   1.683  15.797 -0.2033  0.1434 -0.4322
 2973TIP3    H130334   2.744   1.670  15.720 -1.4612  0.1907 -1.3612
 2973TIP3    H230335   2.684   1.778  15.808 -1.3565  0.2065 -1.3090
 2974TIP3   OH230336   0.075   4.447   5.376 -0.2516  0.8520  0.2654
 2974TIP3    H130337   0.128   4.521   5.348 -0.2121  1.1167  1.0470
 2974TIP3    H230338   0.024   4.479   5.450  0.0469  0.0045  0.8604
 2975TIP3   OH230339   3.443   5.162  12.024 -0.4777 -0.7609  0.2889
 2975TIP3    H130340   3.395   5.079  12.015 -0.2239 -1.0048  1.1413
 2975TIP3    H230341   3.524   5.148  11.975  0.3369 -1.6345  1.8402
 2976TIP3   OH230342   1.057   0.678   5.288 -0.7149 -0.6262 -0.0895
 2976TIP3    H130343   0.968   0.659   5.317 -0.9861  0.4731 -0.1851
 2976TIP3    H230344   1.106   0.693   5.369 -0.5419 -1.4838 -0.0228
 2977TIP3   OH230345   1.220   0.476  16.902 -0.1217 -0.0649 -0.0062
 2977TIP3    H130346   1.241   0.408  16.838  0.8546 -0.3046  0.5737
 2977TIP3    H230347   1.281   0.462  16.974 -0.4332  0.9460  0.4591
 2978TIP3   OH230348   4.722   3.402   3.640  1.1005  0.1278 -0.0039
 2978TIP3    H130349   4.712   3.429   3.731 -0.0696  0.8629 -0.3380
 2978TIP3    H230350   4.741   3.483   3.592 -0.3271  0.0742 -0.7032
 2979TIP3   OH230351   1.962   2.792  16.730 -0.0949 -0.6128  0.2483
 2979TIP3    H130352   2.039   2.794  16.673 -2.1533  0.0024 -2.6655
 2979TIP3    H230353   1.923   2.706  16.715 -1.2918 -0.0118 -0.1895
 2980TIP3   OH230354   6.252   2.153  12.684 -0.2149  0.1899 -0.1457
 2980TIP3    H130355   6.217   2.221  12.742  0.9731  1.9535 -1.4578
 2980TIP3    H230356   6.347   2.164  12.688 -0.0666 -0.5712 -1.3622
 2981TIP3   OH230357   4.547   3.262   5.738  0.8093 -0.0520  0.2297
 2981TIP3    H130358   4.559   3.175   5.702  0.2738  0.0513 -0.2039
 2981TIP3    H230359   4.608   3.317   5.689 -0.0593  0.1252 -0.6756
 2982TIP3   OH230360   2.662   2.086  13.367  0.3228  0.4897 -0.2313
 2982TIP3    H130361   2.660   2.142  13.289 -1.6749  0.8678  0.0634
 2982TIP3    H230362   2.647   1.998  13.333 -4.3358  1.0714  0.0110
 2983TIP3   OH230363   5.314   6.388  14.267  0.2323  0.0166 -0.1793
 2983TIP3    H130364   5.249   6.432  14.322 -0.1958  0.5242 -1.0872
 2983TIP3    H230365   5.395   6.436  14.281 -0.2788  1.2417 -1.3218
 2984TIP3   OH230366   0.402   5.337   2.647  0.3870 -0.4988 -0.6662
 2984TIP3    H130367   0.431   5.279   2.718  2.0737 -0.2869 -1.1669
 2984TIP3    H230368   0.346   5.402   2.690 -1.9359 -2.7409 -0.1608
 2985TIP3   OH230369   1.696   1.274  13.910  0.0714 -0.0451  0.3116
 2985TIP3    H130370   1.612   1.234  13.930  1.0130 -3.2328 -1.6656
 2985TIP3    H230371   1.753   1.251  13.984 -0.2104  0.2645  0.6248
 2986TIP3   OH230372   6.302   1.692  10.650 -0.4750  0.3588 -0.3844
 2986TIP3    H130373   6.275   1.756  10.716 -0.3980  0.2619 -0.2583
 2986TIP3    H230374   6.308   1.609  10.697  1.1607  0.5920 -0.1380
 2987TIP3   OH230375   3.118   1.727   4.381  0.1642 -0.4314  0.1302
 2987TIP3    H130376   3.094   1.635   4.395 -1.9512  0.4904  3.1917
 2987TIP3    H230377   3.097   1.770   4.464  0.7000  2.9232 -1.3800
 2988TIP3   OH230378   6.421   5.676  16.082 -0.2740 -0.6469 -0.0112
 2988TIP3    H130379   6.418   5.760  16.129 -0.3916  0.3870 -1.8234
 2988TIP3    H230380   6.426   5.610  16.152 -0.8835  0.8168  1.4685
 2989TIP3   OH230381   3.832   5.106  15.208  0.0138 -0.4342  0.3369
 2989TIP3    H130382   3.878   5.029  15.242  1.0531  1.2558  2.8672
 2989TIP3    H230383   3.741   5.093  15.236  0.3712 -0.2900  1.5871
 2990TIP3   OH230384   0.683   2.815  13.966 -1.0000 -0.0035 -0.1945
 2990TIP3    H130385   0.641   2.767  14.037 -1.8454 -0.0835 -0.7360
 2990TIP3    H230386   0.751   2.757  13.934 -0.1326  0.3286  1.0243
 2991TIP3   OH230387   4.321   3.232  15.091 -0.4396  0.3894 -0.1983
 2991TIP3    H130388   4.409   3.268  15.083 -1.5919  2.8867 -2.5733
 2991TIP3    H230389   4.297   3.245  15.182  1.7407 -0.6568  0.5645
 2992TIP3   OH230390   5.748   6.447  14.640 -0.2073 -0.1682 -0.3173
 2992TIP3    H130391   5.820   6.493  14.598 -1.8274  0.8096 -2.0933
 2992TIP3    H230392   5.762   6.461  14.734  0.4908  2.1867 -0.7408
 2993TIP3   OH230393   4.958   4.452   2.177  0.1396 -0.2682 -0.3958
 2993TIP3    H130394   5.029   4.513   2.160  0.0498 -0.0191  0.1096
 2993TIP3    H230395   4.921   4.481   2.260 -0.0852 -0.8408 -0.2956
 2994TIP3   OH230396   0.550   1.622  12.571  0.5505 -0.4394  0.2089
 2994TIP3    H130397   0.502   1.560  12.516  0.8350 -0.2111 -0.3004
 2994TIP3    H230398   0.502   1.704  12.563 -0.0688 -0.6931  1.2197
 2995TIP3   OH230399   1.629   4.753   1.925 -0.4366 -0.2754  0.0652
 2995TIP3    H130400   1.555   4.763   1.985  0.5448  0.4313  1.1767
 2995TIP3    H230401   1.593   4.778   1.839 -1.1374  1.4042  0.8162
 2996TIP3   OH230402   5.427   4.727   2.786  0.1270 -0.5546  0.2653
 2996TIP3    H130403   5.353   4.703   2.732 -0.7568  0.2384  1.1029
 2996TIP3    H230404   5.496   4.666   2.761 -0.4176 -0.5220 -1.3758
 2997TIP3   OH230405   3.931   2.190   4.901  0.0302 -0.4057  0.4578
 2997TIP3    H130406   3.940   2.162   4.810  2.4092  2.0871 -0.1595
 2997TIP3    H230407   3.999   2.141   4.947 -0.7077 -1.1403  0.7702
 2998TIP3   OH230408   3.660   5.946   4.760 -0.1699  0.1121  0.1552
 2998TIP3    H130409   3.696   6.032   4.777  3.9825 -1.4965  0.0012
 2998TIP3    H230410   3.691   5.923   4.672 -2.0606 -1.1503 -0.2268
 2999TIP3   OH230411   3.386   4.332  15.466  0.1416  0.1626 -0.1760
 2999TIP3    H130412   3.411   4.307  15.555  1.9397 -1.1130 -1.0096
 2999TIP3    H230413   3.370   4.249  15.421  2.6516  0.5939 -1.9871
 3000TIP3   OH230414   4.135   4.845  12.852 -0.4961 -0.1839 -0.0995
 3000TIP3    H130415   4.081   4.839  12.930  1.4986 -0.6574  1.2722
 3000TIP3    H230416   4.215   4.888  12.880 -0.2513  0.7826 -2.1643
 3001TIP3   OH230417   4.496   3.458   2.292  0.0306  0.0650 -0.4268
 3001TIP3    H130418   4.440   3.497   2.226 -0.2190 -0.3393 -0.4529
 3001TIP3    H230419   4.436   3.417   2.354  0.2871 -0.1857 -0.3405
 3002TIP3   OH230420   1.777   4.673   3.929  0.0772 -0.7265 -0.6373
 3002TIP3    H130421   1.830   4.604   3.888 -1.1255 -0.6826 -2.3061
 3002TIP3    H230422   1.695   4.672   3.880 -1.6689 -1.0853  2.1872
 3003TIP3   OH230423   0.657   6.610  16.941 -0.1268  0.0859  0.1535
 3003TIP3    H130424   0.562   6.620  16.952  0.1019  0.7704  1.5264
 3003TIP3    H230425   0.683   6.552  17.012  0.8369  1.7593  1.1882
 3004TIP3   OH230426   2.323   4.153   0.119  0.3104  0.8359 -0.3883
 3004TIP3    H130427   2.244   4.184   0.163  1.2207  1.2228  1.0511
 3004TIP3    H230428   2.292   4.098   0.048 -1.2344 -1.0706  1.6807
 3005TIP3   OH230429   4.424   3.078  16.697  0.4792 -1.0294 -0.2867
 3005TIP3    H130430   4.482   3.098  16.623  2.2217 -2.9246  0.4924
 3005TIP3    H230431   4.378   2.998  16.669  0.1485 -0.9808  0.1264
 3006TIP3   OH230432   3.093   0.221   3.714  0.3997 -0.3732  0.6799
 3006TIP3    H130433   3.061   0.273   3.641  1.2359  0.3506  0.8161
 3006TIP3    H230434   3.157   0.161   3.675  1.3373  0.4670  0.9107
 3007TIP3   OH230435   6.168   2.761   4.213  0.1156  0.0141  0.0077
 3007TIP3    H130436   6.134   2.751   4.302  1.0400 -0.7935  0.2781
 3007TIP3    H230437   6.106   2.819   4.170 -1.5471 -1.3751  0.4988
 3008TIP3   OH230438   2.181   3.066   5.851 -0.5515  0.2431 -0.0940
 3008TIP3    H130439   2.215   3.136   5.795 -0.9274 -0.5214 -1.3015
 3008TIP3    H230440   2.237   2.991   5.832  0.8449  0.6113  2.3583
 3009TIP3   OH230441   5.616   6.521   3.185 -0.4293  0.7057  0.1229
 3009TIP3    H130442   5.639   6.554   3.272  2.2679 -0.9645  0.1189
 3009TIP3    H230443   5.656   6.583   3.124 -0.7627  0.8771  0.0773
 3010TIP3   OH230444   2.277   4.317   5.219 -0.0163  0.0536 -0.2508
 3010TIP3    H130445   2.189   4.353   5.227 -0.1794  0.4966 -3.2796
 3010TIP3    H230446   2.271   4.229   5.256 -1.6735  0.1435 -0.2885
 3011TIP3   OH230447   4.081   2.538   4.440  0.4700  0.5264 -0.1309
 3011TIP3    H130448   4.087   2.602   4.370 -2.7122  3.2331  1.9317
 3011TIP3    H230449   4.042   2.460   4.399  0.5142  1.3581 -1.7798
 3012TIP3   OH230450   5.897   0.058  13.484 -0.3086  0.3406  0.1189
 3012TIP3    H130451   5.879   0.091  13.573  0.2443 -0.4813  0.5405
 3012TIP3    H230452   5.864  -0.032  13.485  1.7415 -0.4303  0.1991
 3013TIP3   OH230453   5.647   0.294   4.364  0.5719  0.2255 -0.4298
 3013TIP3    H130454   5.655   0.387   4.387  1.2627  0.3531 -1.1450
 3013TIP3    H230455   5.594   0.293   4.284 -1.7084 -0.2053  1.0569
 3014TIP3   OH230456   0.469   5.310   5.059 -0.0586 -0.0452 -0.0076
 3014TIP3    H130457   0.474   5.381   4.996 -0.4246  0.2358  0.2811
 3014TIP3    H230458   0.487   5.231   5.008 -1.4611  0.0631 -0.6918
 3015TIP3   OH230459   1.648   3.426   0.996 -0.2217 -0.8250  0.5149
 3015TIP3    H130460   1.570   3.382   0.963 -0.2973 -0.7597  0.6081
 3015TIP3    H230461   1.644   3.514   0.960  0.5426 -1.2539 -0.6425
 3016TIP3   OH230462   2.927   6.400  14.820 -0.6525  0.0580  0.1800
 3016TIP3    H130463   2.998   6.436  14.767  1.3554 -1.8853  1.4250
 3016TIP3    H230464   2.865   6.364  14.756  0.1245  0.6269 -0.9062
 3017TIP3   OH230465   2.419   1.711  15.678  0.7528 -0.2354  0.5968
 3017TIP3    H130466   2.505   1.673  15.694  0.3156 -1.9487 -0.8755
 3017TIP3    H230467   2.358   1.650  15.720  0.2220  0.8361  1.4222
 3018TIP3   OH230468   0.538   3.122   5.538 -0.6385  0.3288  0.7609
 3018TIP3    H130469   0.582   3.066   5.473 -1.6518  0.3717  0.0164
 3018TIP3    H230470   0.566   3.088   5.622 -1.5841 -1.6119  0.3188
 3019TIP3   OH230471   1.266   3.276  13.396  0.3109 -0.7174 -0.2180
 3019TIP3    H130472   1.235   3.306  13.310  0.8117 -3.1380 -1.2606
 3019TIP3    H230473   1.191   3.230  13.433 -0.7007  2.2701  1.7025
 3020TIP3   OH230474   0.264   3.890  16.822 -0.2241 -0.1795  0.2505
 3020TIP3    H130475   0.338   3.935  16.781 -0.4306  0.5711  0.6900
 3020TIP3    H230476   0.201   3.960  16.841 -0.2904 -0.5795  1.5009
 3021TIP3   OH230477   6.664   0.253  13.766  0.0126  0.4036 -0.0676
 3021TIP3    H130478   6.637   0.321  13.827  0.7672  1.3058 -0.7270
 3021TIP3    H230479   6.607   0.264  13.690 -2.1637 -1.8822  1.1816
 3022TIP3   OH230480   5.141   1.316   1.312 -0.3109  0.0871  0.3103
 3022TIP3    H130481   5.182   1.237   1.348  0.9008  1.1395  1.3153
 3022TIP3    H230482   5.073   1.339   1.375 -1.6100 -0.9294 -0.6994
 3023TIP3   OH230483   2.799   2.448   5.614 -0.1062  0.3830  0.6937
 3023TIP3    H130484   2.758   2.511   5.673  1.3038  0.4232  1.6408
 3023TIP3    H230485   2.790   2.364   5.659 -3.4198 -0.4222 -1.2781
 3024TIP3   OH230486   0.499   0.166  12.913  0.0066 -0.3804  0.1790
 3024TIP3    H130487   0.438   0.183  12.985 -0.0963  0.9862 -0.2043
 3024TIP3    H230488   0.461   0.092  12.867 -2.5305  1.7258 -1.2635
 3025TIP3   OH230489   4.146   6.006   1.634 -0.1947 -0.0459 -0.1197
 3025TIP3    H130490   4.159   5.920   1.674  3.0629  0.9209  1.0488
 3025TIP3    H230491   4.140   5.989   1.540  2.4586 -1.3743 -0.0690
 3026TIP3   OH230492   5.452   1.891  10.847  0.1834 -0.2366  0.5830
 3026TIP3    H130493   5.444   1.985  10.863  1.1096  0.0442 -0.5371
 3026TIP3    H230494   5.544   1.871  10.864  0.2703 -0.6980 -0.3892
 3027TIP3   OH230495   0.267   0.655  16.978 -0.1231 -0.3857 -0.1321
 3027TIP3    H130496   0.216   0.701  17.044 -0.1193  0.1970 -0.5288
 3027TIP3    H230497   0.208   0.648  16.903  0.9024  1.7757 -1.1922
 3028TIP3   OH230498   4.738   2.700  16.008  0.3628 -0.3105 -0.2594
 3028TIP3    H130499   4.804   2.726  16.073 -0.4374 -0.3246  0.5692
 3028TIP3    H230500   4.670   2.658  16.060  0.1865 -1.2376 -1.2381
 3029TIP3   OH230501   0.615   3.064  15.486  0.0375  0.1634  0.2119
 3029TIP3    H130502   0.597   2.978  15.524 -0.5021 -0.0017 -0.4110
 3029TIP3    H230503   0.686   3.100  15.540 -0.5491 -0.1700  1.2222
 3030TIP3   OH230504   3.253   6.026  15.684  0.4946 -0.4659 -0.6831
 3030TIP3    H130505   3.212   6.032  15.598  0.7647 -1.3117 -0.8740
 3030TIP3    H230506   3.191   6.068  15.744  1.2181  1.9946 -1.5893
 3031TIP3   OH230507   1.557   6.713  12.955  0.6352 -0.1864  0.1560
 3031TIP3    H130508   1.485   6.738  13.013 -0.0775 -0.3367 -0.6561
 3031TIP3    H230509   1.632   6.764  12.987  0.3554 -0.5833  1.4587
 3032TIP3   OH230510   5.397   3.525  13.448 -0.2807 -0.1249 -0.8341
 3032TIP3    H130511   5.303   3.508  13.442  0.0214 -2.1376 -0.3600
 3032TIP3    H230512   5.438   3.452  13.402  1.0518  1.1004 -1.6576
 3033TIP3   OH230513   2.507   4.477  14.277  0.6975 -0.1001  0.5653
 3033TIP3    H130514   2.444   4.515  14.215  0.0020 -0.8647  0.7796
 3033TIP3    H230515   2.590   4.476  14.229  0.0958 -1.0108 -0.5158
 3034TIP3   OH230516   6.205   1.979  12.427  0.8018  0.4253 -0.1537
 3034TIP3    H130517   6.188   2.003  12.518  0.3809  1.6997 -0.5614
 3034TIP3    H230518   6.285   1.926  12.430 -0.1903 -1.0549  1.1552
 3035TIP3   OH230519   0.703   2.633  15.262 -0.0788  0.1515 -0.3299
 3035TIP3    H130520   0.679   2.675  15.344 -0.9026 -0.5200 -0.2268
 3035TIP3    H230521   0.777   2.576  15.284  0.5472  0.9522 -0.3227
 3036TIP3   OH230522   4.729   1.750   5.430  0.4514 -0.5054  0.3755
 3036TIP3    H130523   4.641   1.774   5.404  0.7873 -1.2830 -1.5160
 3036TIP3    H230524   4.718   1.709   5.516 -1.0164 -0.4970  0.2010
 3037TIP3   OH230525   6.019   5.248   4.317 -0.1714  0.1286 -0.1723
 3037TIP3    H130526   6.023   5.166   4.268 -0.1105 -0.1178  0.2362
 3037TIP3    H230527   5.966   5.227   4.394  2.5745 -0.4759  1.6618
 3038TIP3   OH230528   0.205   6.080   1.516  0.1217 -0.7312 -0.2592
 3038TIP3    H130529   0.200   6.007   1.577 -0.3390 -0.6734 -0.2236
 3038TIP3    H230530   0.116   6.088   1.480 -0.0246  0.2927  0.2985
 3039TIP3   OH230531   4.623   3.454  16.043  0.0165 -0.1746 -0.5389
 3039TIP3    H130532   4.613   3.420  16.132  0.0874 -0.1410 -0.5185
 3039TIP3    H230533   4.612   3.549  16.052  2.3682  0.0810 -0.2039
 3040TIP3   OH230534   2.829   4.696   1.945  0.4058 -1.0701 -0.6574
 3040TIP3    H130535   2.742   4.729   1.964  0.6639  0.4400 -2.0013
 3040TIP3    H230536   2.815   4.604   1.920 -0.8440 -0.7259 -1.2632
 3041TIP3   OH230537   1.050   6.515   2.234  0.1879  0.0638 -0.3088
 3041TIP3    H130538   1.013   6.597   2.201 -0.2447  0.7561  1.7828
 3041TIP3    H230539   0.977   6.453   2.231  0.4180 -0.1540 -1.5568
 3042TIP3   OH230540   3.047   6.561  11.837  0.3000  0.1101  0.4040
 3042TIP3    H130541   2.978   6.534  11.898  0.0830  2.4653  1.2799
 3042TIP3    H230542   3.003   6.565  11.752 -0.5776  1.1892  0.8841
 3043TIP3   OH230543   1.938   3.696   3.005  0.8403  0.2238  0.3197
 3043TIP3    H130544   1.966   3.753   2.933  1.6134 -0.9512 -0.3050
 3043TIP3    H230545   1.913   3.757   3.075  3.6217  1.3204  0.4137
 3044TIP3   OH230546   5.580   1.447   2.049  0.3514  0.0989 -0.6294
 3044TIP3    H130547   5.586   1.358   2.013  0.7526  0.0835 -0.5311
 3044TIP3    H230548   5.514   1.490   1.996 -0.3631 -0.4787 -0.2256
 3045TIP3   OH230549   5.364   1.867   3.149  0.1835  0.0607 -0.5634
 3045TIP3    H130550   5.327   1.780   3.135 -0.1092  0.3491 -1.6770
 3045TIP3    H230551   5.289   1.926   3.146  0.3386  0.3304  0.5299
 3046TIP3   OH230552   0.579   4.839   0.384 -0.3339 -0.0918 -0.6425
 3046TIP3    H130553   0.634   4.772   0.425 -0.9747  0.5040  1.2985
 3046TIP3    H230554   0.503   4.791   0.352 -0.5295 -0.3974  0.2456
 3047TIP3   OH230555   2.234   4.738  12.065 -0.3391  0.4504 -0.5137
 3047TIP3    H130556   2.155   4.746  12.118 -0.7689  0.1336 -1.0989
 3047TIP3    H230557   2.215   4.789  11.986 -0.3753 -0.4942 -1.1261
 3048TIP3   OH230558   5.226   4.672   3.946  0.0993 -0.0839  0.7640
 3048TIP3    H130559   5.302   4.639   3.898  0.9742  0.9220  1.4215
 3048TIP3    H230560   5.255   4.672   4.038  0.3377  3.0059  0.7266
 3049TIP3   OH230561   1.346   2.023  11.815 -0.2888 -0.0428 -0.1839
 3049TIP3    H130562   1.401   1.990  11.744 -0.1462 -1.6104  0.6403
 3049TIP3    H230563   1.258   1.993  11.794 -0.2915 -0.2869  0.1707
 3050TIP3   OH230564   5.467   2.757  11.452 -0.5773 -0.0717 -0.2630
 3050TIP3    H130565   5.496   2.803  11.374 -1.0848  0.7360  0.0244
 3050TIP3    H230566   5.505   2.669  11.444  1.3377  0.7357 -0.2484
 3051TIP3   OH230567   0.219   4.031   3.121  0.3037  0.0403 -0.0908
 3051TIP3    H130568   0.129   4.018   3.150  0.1943 -0.2871 -0.5932
 3051TIP3    H230569   0.233   4.126   3.128 -0.2819  0.1644 -0.6414
 3052TIP3   OH230570   6.470   6.110   2.125  0.6669 -0.1996 -0.0833
 3052TIP3    H130571   6.469   6.090   2.219  0.1201 -0.4091 -0.1330
 3052TIP3    H230572   6.390   6.071   2.091  0.6962  0.1682 -0.5820
 3053TIP3   OH230573   0.204   3.501  14.529  0.0586  0.7507  0.2217
 3053TIP3    H130574   0.169   3.474  14.614 -1.7156 -0.7167 -0.9578
 3053TIP3    H230575   0.266   3.433  14.506 -1.6125 -0.3803 -0.9940
 3054TIP3   OH230576   5.665   6.456  11.236  0.1678 -0.0171 -0.3842
 3054TIP3    H130577   5.655   6.513  11.312  0.7435 -1.1130  0.5362
 3054TIP3    H230578   5.684   6.370  11.273  0.0395 -0.6566 -1.7657
 3055TIP3   OH230579   0.976   6.519   1.480  0.1194 -0.3498 -0.0227
 3055TIP3    H130580   1.064   6.498   1.511 -0.1908 -0.2484  0.9500
 3055TIP3    H230581   0.927   6.438   1.490 -0.6139  0.3172  2.0565
 3056TIP3   OH230582   3.684   1.073   4.479  0.1085 -0.3204  0.2703
 3056TIP3    H130583   3.605   1.082   4.427 -1.5987 -1.7664  2.5475
 3056TIP3    H230584   3.702   0.979   4.481  2.8334  0.0801 -1.5114
 3057TIP3   OH230585   5.023   5.210  16.193 -0.6301 -0.2566 -0.2340
 3057TIP3    H130586   4.928   5.201  16.200 -0.6699 -0.7708 -1.4625
 3057TIP3    H230587   5.038   5.305  16.193 -0.9885 -0.1647  1.8240
 3058TIP3   OH230588   3.469   5.699   3.146  0.7507  0.5921 -0.3182
 3058TIP3    H130589   3.452   5.738   3.060 -1.0272  2.7491  0.9552
 3058TIP3    H230590   3.401   5.632   3.155  2.4986 -1.4055 -1.6160
 3059TIP3   OH230591   1.802   1.268  12.796 -0.1019 -0.5679  0.5337
 3059TIP3    H130592   1.843   1.193  12.840  0.8871 -0.5705 -0.3805
 3059TIP3    H230593   1.720   1.281  12.843  1.0999 -0.3314  2.6326
 3060TIP3   OH230594   0.354   1.368   5.026  0.2932  0.1707 -0.7687
 3060TIP3    H130595   0.375   1.314   4.951  0.5371 -0.3860 -0.3002
 3060TIP3    H230596   0.400   1.327   5.099 -0.6550  0.2079 -0.1538
 3061TIP3   OH230597   0.420   0.917  11.499 -0.4809  0.2888  0.1580
 3061TIP3    H130598   0.487   0.984  11.482 -0.2043 -0.3182 -1.2235
 3061TIP3    H230599   0.342   0.951  11.455 -0.9375  0.7357  1.3073
 3062TIP3   OH230600   3.753   0.227  12.712 -0.2495  0.1406  1.1957
 3062TIP3    H130601   3.837   0.189  12.734 -0.1818 -0.5425 -0.1559
 3062TIP3    H230602   3.774   0.303  12.657 -0.5361 -0.7231 -0.1341
 3063TIP3   OH230603   1.128   6.354   2.651 -0.2135  0.6581  0.1312
 3063TIP3    H130604   1.188   6.279   2.651 -1.8874 -0.7051 -0.2602
 3063TIP3    H230605   1.180   6.425   2.615  0.3450 -1.2243 -2.9781
 3064TIP3   OH230606   5.895   5.569   0.681  0.1562  0.3648 -0.0116
 3064TIP3    H130607   5.847   5.588   0.600 -0.1317 -0.6111 -0.0834
 3064TIP3    H230608   5.843   5.501   0.724  0.1339  1.1000  1.1577
 3065TIP3   OH230609   0.904   4.046  11.800  0.2373 -0.4245  0.3236
 3065TIP3    H130610   0.868   3.968  11.842 -0.8466  0.3384  0.8320
 3065TIP3    H230611   0.901   4.027  11.706  2.0768 -1.8898  0.5397
 3066TIP3   OH230612   0.434   1.953  15.261 -0.0938  0.0355 -0.0070
 3066TIP3    H130613   0.434   1.952  15.357 -1.0241  0.6364  0.0056
 3066TIP3    H230614   0.517   1.995  15.237 -0.9274  2.0936  0.5878
 3067TIP3   OH230615   3.754   5.578  12.390  0.2540  0.3812  0.1133
 3067TIP3    H130616   3.703   5.627  12.454 -0.4806 -1.5854  1.1017
 3067TIP3    H230617   3.739   5.622  12.307 -4.0754 -0.8699  0.1571
 3068TIP3   OH230618   3.531   4.835  16.346  0.2480  0.3206  0.1668
 3068TIP3    H130619   3.439   4.856  16.328  0.5771  0.1194 -1.8644
 3068TIP3    H230620   3.527   4.765  16.410 -1.0497 -0.3562 -0.6287
 3069TIP3   OH230621   4.728   0.317  12.256  0.1351 -0.3399 -0.0039
 3069TIP3    H130622   4.695   0.234  12.292  0.1137  0.0434  0.8790
 3069TIP3    H230623   4.704   0.382  12.322 -0.7905  0.5330 -1.1920
 3070TIP3   OH230624   4.284   6.202  13.938 -0.3475 -0.1203  0.2839
 3070TIP3    H130625   4.274   6.258  14.015  0.8847 -0.9120  1.0573
 3070TIP3    H230626   4.365   6.233  13.897 -0.0457 -0.8664  0.3165
 3071TIP3   OH230627   4.636   1.518   0.823  0.6010 -0.4315 -0.1770
 3071TIP3    H130628   4.677   1.496   0.907  3.1565  1.8234 -0.7655
 3071TIP3    H230629   4.667   1.451   0.763  1.8078  0.0639 -0.1303
 3072TIP3   OH230630   3.692   0.942  16.912  0.3340 -0.2335 -0.0037
 3072TIP3    H130631   3.750   0.980  16.979  0.5393 -1.4873  0.5319
 3072TIP3    H230632   3.749   0.886  16.860 -0.1576 -0.5029 -0.2537
 3073TIP3   OH230633   6.306   3.116  13.163  0.2219 -0.6530 -0.0869
 3073TIP3    H130634   6.381   3.079  13.210 -0.0746 -1.3610 -0.1637
 3073TIP3    H230635   6.234   3.056  13.183  0.0512 -0.8676 -1.3155
 3074TIP3   OH230636   4.705   5.810  14.552 -0.1580  0.8633 -0.2117
 3074TIP3    H130637   4.796   5.839  14.546  0.0945  0.2478  0.6648
 3074TIP3    H230638   4.703   5.727  14.504  0.0886  0.0911  1.0888
 3075TIP3   OH230639   4.455   6.509  15.011  0.0255 -0.3387 -0.0824
 3075TIP3    H130640   4.479   6.576  15.075  1.7511  1.2185 -2.2785
 3075TIP3    H230641   4.528   6.448  15.010 -0.5333 -1.0163  0.2925
 3076TIP3   OH230642   4.637   6.501  15.779 -0.0239 -0.2842  0.1298
 3076TIP3    H130643   4.585   6.439  15.829 -0.8743  0.5233  0.2770
 3076TIP3    H230644   4.688   6.447  15.718 -2.1092 -1.0332 -1.0085
 3077TIP3   OH230645   3.378   6.635  10.979  0.1368 -0.6442 -0.4040
 3077TIP3    H130646   3.301   6.604  10.932 -1.5281  3.0822 -0.3058
 3077TIP3    H230647   3.377   6.587  11.062 -1.8983 -0.8756 -0.5429
 3078TIP3   OH230648   6.267   4.898  12.329 -0.9446 -0.0988 -0.0070
 3078TIP3    H130649   6.209   4.891  12.253 -0.3654  1.5518 -0.6347
 3078TIP3    H230650   6.354   4.879  12.293 -0.2020  3.7464 -0.4955
 3079TIP3   OH230651   1.563   0.786   2.772 -0.1063 -0.2880  0.1835
 3079TIP3    H130652   1.492   0.824   2.720  0.9764  1.1579 -0.2674
 3079TIP3    H230653   1.637   0.778   2.711  0.2575 -1.3973  0.7499
 3080TIP3   OH230654   1.535   5.521  10.304  0.4516  0.2819  0.5113
 3080TIP3    H130655   1.604   5.455  10.313 -0.9050 -1.5448 -1.7304
 3080TIP3    H230656   1.454   5.472  10.316 -0.5560  1.6715 -0.5120
 3081TIP3   OH230657   2.754   5.508   4.121  0.3511 -0.3727  0.4846
 3081TIP3    H130658   2.725   5.420   4.098  2.2267 -0.2877 -2.4145
 3081TIP3    H230659   2.684   5.565   4.088  0.5602 -0.5852 -0.3253
 3082TIP3   OH230660   5.521   0.931  11.307  0.3063 -1.2371 -0.2848
 3082TIP3    H130661   5.537   1.005  11.249  0.4348 -1.5887 -0.7036
 3082TIP3    H230662   5.446   0.886  11.268 -1.1087 -0.1720  1.1110
 3083TIP3   OH230663   2.509   1.478   1.886  0.1343  0.0894 -0.4381
 3083TIP3    H130664   2.597   1.513   1.871  0.2277 -0.2202 -0.6204
 3083TIP3    H230665   2.476   1.528   1.961  0.6509 -0.1278 -0.0589
 3084TIP3   OH230666   1.148   2.902  14.678 -0.5871 -0.1442 -0.4160
 3084TIP3    H130667   1.078   2.886  14.742 -0.3384 -2.7791 -0.7255
 3084TIP3    H230668   1.229   2.890  14.728 -0.3934 -2.4970 -1.2392
 3085TIP3   OH230669   0.863   3.614   2.794 -0.0736  0.0093 -0.2744
 3085TIP3    H130670   0.791   3.676   2.790  0.3153  0.3868 -2.0973
 3085TIP3    H230671   0.867   3.577   2.706  1.9533  0.0055 -0.1999
 3086TIP3   OH230672   4.209   6.675   0.666 -0.4346  0.3068  0.3222
 3086TIP3    H130673   4.150   6.626   0.609  0.9911 -0.7723 -0.2666
 3086TIP3    H230674   4.179   6.654   0.755  0.0918 -1.6168  0.0789
 3087TIP3   OH230675   6.422   1.547  16.544  0.1631 -0.3338  0.2623
 3087TIP3    H130676   6.396   1.613  16.608  0.0967  1.0359 -1.1660
 3087TIP3    H230677   6.343   1.494  16.531 -0.6521  1.0969 -0.7505
 3088TIP3   OH230678   4.359   4.412   5.552  0.6687  0.1911 -0.0960
 3088TIP3    H130679   4.337   4.502   5.573  0.3874 -0.3553  2.0479
 3088TIP3    H230680   4.276   4.365   5.555  0.6859  0.0004 -2.0532
 3089TIP3   OH230681   5.657   1.532  16.438  0.2255 -0.2120  0.4321
 3089TIP3    H130682   5.588   1.474  16.406  0.6838 -0.8378  0.5950
 3089TIP3    H230683   5.713   1.477  16.492 -0.1622  0.7026  1.7776
 3090TIP3   OH230684   2.388   1.701  14.744  0.1208  0.2243 -0.5040
 3090TIP3    H130685   2.437   1.669  14.669  0.1159 -0.5509 -0.1878
 3090TIP3    H230686   2.309   1.646  14.746 -0.6396  1.2875 -0.8635
 3091TIP3   OH230687   3.006   4.654  13.511 -0.1808 -0.8254  0.3218
 3091TIP3    H130688   3.078   4.597  13.541  2.0494  1.2292 -0.9197
 3091TIP3    H230689   2.964   4.684  13.591  2.9321  1.1368  1.3128
 3092TIP3   OH230690   1.129   0.800   4.543  0.0147 -0.3619 -0.2289
 3092TIP3    H130691   1.047   0.837   4.511 -0.3977  0.0664  1.2943
 3092TIP3    H230692   1.119   0.706   4.532 -0.4932 -0.2758 -0.4895
 3093TIP3   OH230693   0.746   2.855  15.945  0.3770  0.4663  0.2781
 3093TIP3    H130694   0.700   2.794  15.888 -0.9827  0.8786  0.9309
 3093TIP3    H230695   0.678   2.908  15.985  1.3392  0.4738  1.9681
 3094TIP3   OH230696   1.779   2.657  16.158 -0.3837 -0.8602  0.1158
 3094TIP3    H130697   1.747   2.719  16.223 -1.5698 -2.3025  0.9490
 3094TIP3    H230698   1.709   2.652  16.092 -0.3764 -1.4399  0.1451
 3095TIP3   OH230699   1.091   1.763  12.437 -0.0250  0.2006 -0.3056
 3095TIP3    H130700   1.109   1.671  12.459  0.9722  0.2652 -0.8123
 3095TIP3    H230701   0.997   1.773  12.453 -0.3818 -1.2316 -1.3529
 3096TIP3   OH230702   6.726   6.528   0.706 -0.0676  0.5122 -0.4252
 3096TIP3    H130703   6.813   6.549   0.740  0.1949  0.8923 -1.3040
 3096TIP3    H230704   6.671   6.519   0.784  0.5385  1.2577  0.0978
 3097TIP3   OH230705   0.065   4.766  14.136  0.0858  0.5467  0.2397
 3097TIP3    H130706  -0.003   4.828  14.163 -0.4876 -0.3341  0.8368
 3097TIP3    H230707   0.124   4.817  14.081 -0.5452  1.5514  0.4915
 3098TIP3   OH230708   3.567   0.399   2.295  0.0906  0.1987  0.1487
 3098TIP3    H130709   3.652   0.415   2.336 -0.1477  0.6805  0.4501
 3098TIP3    H230710   3.518   0.480   2.308 -0.7242 -0.3737  0.7108
 3099TIP3   OH230711   6.683   0.036  13.262 -0.0829 -0.4610  0.1668
 3099TIP3    H130712   6.677   0.037  13.357 -0.8817  0.5019  0.1174
 3099TIP3    H230713   6.604   0.080  13.232 -0.4895 -1.8951 -0.9848
 3100TIP3   OH230714   0.621   4.434  10.553  0.2564 -0.1341  0.4084
 3100TIP3    H130715   0.617   4.495  10.479 -1.4714 -0.8599 -0.1110
 3100TIP3    H230716   0.715   4.420  10.566  0.5991  0.1441 -1.5460
 3101TIP3   OH230717   4.527   5.782  11.601  0.5224  0.2182  0.1553
 3101TIP3    H130718   4.618   5.804  11.624  0.0012  2.4675  0.1976
 3101TIP3    H230719   4.481   5.866  11.603 -1.6377 -0.9416  0.4093
 3102TIP3   OH230720   6.081   5.314   0.440  0.5201  0.0069  0.3471
 3102TIP3    H130721   6.149   5.382   0.448 -2.2311  2.9333 -0.0696
 3102TIP3    H230722   6.082   5.291   0.347  0.0192  1.0771  0.0672
 3103TIP3   OH230723   5.180   0.576   3.077 -0.2297  0.4544  0.5213
 3103TIP3    H130724   5.105   0.604   3.130 -0.5387  0.7270 -0.0580
 3103TIP3    H230725   5.253   0.571   3.139 -1.0437 -1.1948  1.3837
 3104TIP3   OH230726   3.253   3.793  12.142  0.3387 -0.5818  0.2621
 3104TIP3    H130727   3.178   3.737  12.161 -1.1268  1.0931 -0.4989
 3104TIP3    H230728   3.236   3.874  12.190  0.5422  0.6284 -1.6344
 3105TIP3   OH230729   1.452   5.351   0.462 -0.5138  0.3328  0.0748
 3105TIP3    H130730   1.492   5.344   0.549  0.2744 -1.1861 -0.3905
 3105TIP3    H230731   1.502   5.420   0.419 -0.1768  0.3297  0.4518
 3106TIP3   OH230732   0.677   5.752  16.970  0.1747 -0.1725  0.1008
 3106TIP3    H130733   0.677   5.790  17.058 -1.1247  2.1561 -0.8662
 3106TIP3    H230734   0.590   5.771  16.936  0.7258 -0.9064 -1.7499
 3107TIP3   OH230735   1.536   5.116   3.668 -0.1562  0.1287  0.0687
 3107TIP3    H130736   1.469   5.119   3.600  0.2353  0.3478 -0.3111
 3107TIP3    H230737   1.526   5.030   3.708  0.5786 -0.6008 -1.2572
 3108TIP3   OH230738   1.731   2.071   0.592  0.0214  0.3387  0.3862
 3108TIP3    H130739   1.744   2.133   0.520  2.1311  0.2604  0.6714
 3108TIP3    H230740   1.811   2.018   0.593 -1.8788 -2.6644 -0.0746
 3109TIP3   OH230741   1.483   5.391  14.787 -0.1571  0.4247  0.0925
 3109TIP3    H130742   1.495   5.331  14.860  3.2701  0.0030 -0.7588
 3109TIP3    H230743   1.524   5.473  14.815  1.7678  0.0679 -1.5299
 3110TIP3   OH230744   4.371   4.634  12.451  0.4023 -0.0150 -0.4019
 3110TIP3    H130745   4.391   4.650  12.543  1.2823  0.5930 -0.6907
 3110TIP3    H230746   4.433   4.689  12.403 -1.2110  1.0225 -1.3445
 3111TIP3   OH230747   4.834   2.859   0.163 -0.0758  0.7395  0.1640
 3111TIP3    H130748   4.796   2.914   0.232  0.7342  0.9204  0.4746
 3111TIP3    H230749   4.883   2.920   0.108  1.1463  0.2986  0.7294
 3112TIP3   OH230750   1.382   4.263  12.889 -0.3777  0.3639 -0.4078
 3112TIP3    H130751   1.324   4.338  12.873 -2.2406 -1.0754 -0.5605
 3112TIP3    H230752   1.324   4.196  12.925  1.1343 -1.2611 -0.9728
 3113TIP3   OH230753   4.182   5.576  14.638  0.0266 -0.4378 -0.4429
 3113TIP3    H130754   4.259   5.520  14.636  1.5730  1.5359  1.1930
 3113TIP3    H230755   4.200   5.644  14.573 -0.0488  0.3732  0.3673
 3114TIP3   OH230756   2.270   0.063  12.815  0.4545  0.2225  0.0136
 3114TIP3    H130757   2.237  -0.021  12.784 -0.1888  1.0245 -1.5410
 3114TIP3    H230758   2.287   0.113  12.735 -2.5317  2.8432  0.8996
 3115TIP3   OH230759   2.994   3.367   2.509  0.4766  0.5195  0.2409
 3115TIP3    H130760   3.065   3.331   2.563  1.7890  0.3232 -1.5621
 3115TIP3    H230761   3.037   3.432   2.454 -0.7675  0.4154 -0.8698
 3116TIP3   OH230762   2.173   3.487   4.649  0.6509  0.3774 -0.1904
 3116TIP3    H130763   2.158   3.407   4.700  0.5107 -0.8559 -2.1252
 3116TIP3    H230764   2.086   3.526   4.638  0.9064  1.6878  2.1217
 3117TIP3   OH230765   4.952   5.669   2.371 -1.0094 -0.4033 -0.0421
 3117TIP3    H130766   4.947   5.733   2.300 -0.7106  0.1815  0.4643
 3117TIP3    H230767   5.007   5.711   2.437 -2.0030 -0.5984  0.9091
 3118TIP3   OH230768   4.100   6.177  16.100  0.9255 -0.1362 -0.4178
 3118TIP3    H130769   4.038   6.120  16.055  1.4327 -1.0745  0.0812
 3118TIP3    H230770   4.050   6.257  16.118  0.0400 -0.6521 -0.5705
 3119TIP3   OH230771   3.743   4.023  16.196 -0.1973 -0.9229 -0.3837
 3119TIP3    H130772   3.717   4.017  16.104 -0.8229 -0.8020 -0.2185
 3119TIP3    H230773   3.720   4.112  16.222  0.8047 -0.6640 -0.3506
 3120TIP3   OH230774   1.802   1.083   2.910  0.2830  0.4945  0.3130
 3120TIP3    H130775   1.720   1.127   2.889  0.4075 -0.1285 -1.5981
 3120TIP3    H230776   1.868   1.153   2.909  0.0010  0.7580  0.3357
 3121TIP3   OH230777   3.070   3.342  14.702 -0.5931  0.5352  0.0298
 3121TIP3    H130778   3.048   3.262  14.654 -0.0934  0.0146  0.6636
 3121TIP3    H230779   3.110   3.311  14.783 -0.2405  1.4355  0.2021
 3122TIP3   OH230780   6.664   5.713  16.696 -0.7130 -0.0339  0.1445
 3122TIP3    H130781   6.643   5.619  16.698  0.0121 -0.1773  1.3203
 3122TIP3    H230782   6.651   5.738  16.605  0.2024 -1.5362 -0.4112
 3123TIP3   OH230783   3.805   2.267  11.602  0.1818 -0.3602 -0.1838
 3123TIP3    H130784   3.888   2.287  11.559  0.1824 -0.9103 -0.4426
 3123TIP3    H230785   3.810   2.173  11.622  0.1159 -0.1391  0.8765
 3124TIP3   OH230786   0.291   2.720   0.080 -0.2480  0.0201  0.2800
 3124TIP3    H130787   0.199   2.722   0.106 -1.0142  0.0893 -2.2615
 3124TIP3    H230788   0.314   2.627   0.083 -1.3223 -0.3466 -2.0211
 3125TIP3   OH230789   5.208   1.841  17.223 -0.5763 -0.0295  0.5874
 3125TIP3    H130790   5.276   1.779  17.247 -0.0039  0.3679 -0.0198
 3125TIP3    H230791   5.226   1.919  17.277  0.9187  0.9987 -1.3362
 3126TIP3   OH230792   5.150   5.827   0.363  0.1184  0.5914 -0.5654
 3126TIP3    H130793   5.245   5.837   0.359  0.2724 -0.5108  0.2063
 3126TIP3    H230794   5.116   5.908   0.325  1.3642  1.0438 -0.7384
 3127TIP3   OH230795   2.423   1.894  15.364  0.2953  0.2257 -0.0741
 3127TIP3    H130796   2.435   1.976  15.316 -1.2650  0.4724 -0.0721
 3127TIP3    H230797   2.415   1.827  15.296  0.2306  0.2660 -0.1059
 3128TIP3   OH230798   1.071   6.118  15.586  0.0843 -0.0061  0.8550
 3128TIP3    H130799   0.977   6.129  15.600 -0.2721  1.0939 -1.9524
 3128TIP3    H230800   1.102   6.206  15.566  1.3067 -0.6930 -0.2996
 3129TIP3   OH230801   4.600   5.523   5.207  0.4352  0.1340 -0.9065
 3129TIP3    H130802   4.580   5.458   5.274 -0.7044  1.2603 -0.1397
 3129TIP3    H230803   4.695   5.535   5.214  0.1575  1.3577  1.5859
 3130TIP3   OH230804   1.140   5.698  10.655 -0.3787 -0.0938 -0.4170
 3130TIP3    H130805   1.049   5.725  10.672 -0.1055  0.2326  0.5751
 3130TIP3    H230806   1.179   5.690  10.742  0.5662 -0.1647 -0.8413
 3131TIP3   OH230807   3.476   3.742   4.002 -0.0572 -0.0927 -0.4677
 3131TIP3    H130808   3.456   3.648   3.997  1.5494 -0.4194 -1.0329
 3131TIP3    H230809   3.566   3.746   4.034 -0.5299  1.3057  0.7520
 3132TIP3   OH230810   2.198   0.629   0.388  0.3242  0.2931 -0.1992
 3132TIP3    H130811   2.224   0.543   0.422 -1.7596 -0.1437  0.3194
 3132TIP3    H230812   2.174   0.612   0.297  3.7447  1.0688 -1.3237
 3133TIP3   OH230813   1.518   3.656  15.232 -0.2115  0.0117  0.2597
 3133TIP3    H130814   1.483   3.709  15.161  0.4443  1.4764  0.9977
 3133TIP3    H230815   1.613   3.658  15.220 -0.0409  0.8947  1.5855
 3134TIP3   OH230816   5.490   0.504   3.560 -0.0606 -0.8753  0.4004
 3134TIP3    H130817   5.424   0.455   3.512 -0.8701  0.8866 -0.3310
 3134TIP3    H230818   5.556   0.525   3.495 -1.4293  2.0030 -0.1311
 3135TIP3   OH230819   6.552   5.052  12.380 -0.3161 -0.1610  0.0720
 3135TIP3    H130820   6.572   4.970  12.335  1.0909 -1.0091  2.1396
 3135TIP3    H230821   6.486   5.094  12.325 -0.1200 -2.0658 -1.7041
 3136TIP3   OH230822   5.349   5.085  15.588 -0.0853 -0.4230 -0.5037
 3136TIP3    H130823   5.368   5.136  15.667  0.9599  1.0089 -1.6559
 3136TIP3    H230824   5.262   5.050  15.603 -0.2199  0.4852  0.9577
 3137TIP3   OH230825   0.657   5.155   2.394 -0.3243 -0.1587 -0.1971
 3137TIP3    H130826   0.677   5.127   2.483  0.6205  0.3456 -0.2439
 3137TIP3    H230827   0.616   5.079   2.353 -0.4421 -0.5047  0.5612
 3138TIP3   OH230828   1.013   4.897   2.781  1.0417 -0.8912  0.0898
 3138TIP3    H130829   1.065   4.942   2.847 -0.7578  0.7605  0.4252
 3138TIP3    H230830   1.076   4.877   2.711  2.6311 -1.2585  1.6085
 3139TIP3   OH230831   2.887   2.395   2.318  0.4549 -0.1604  0.0183
 3139TIP3    H130832   2.818   2.399   2.252  0.1961 -0.3971  0.2705
 3139TIP3    H230833   2.912   2.486   2.333  1.8947 -0.2257 -1.8396
 3140TIP3   OH230834   3.742   2.532   2.756 -0.3797  0.4587  0.2710
 3140TIP3    H130835   3.702   2.559   2.673  0.3755  1.8965  0.3775
 3140TIP3    H230836   3.788   2.609   2.788 -0.6474 -0.0935  2.0378
 3141TIP3   OH230837   2.378   4.334  12.204  0.6621 -0.3304  0.4281
 3141TIP3    H130838   2.362   4.406  12.142  0.3086 -0.6075  0.1911
 3141TIP3    H230839   2.378   4.256  12.149  1.2377 -0.4944  0.6593
 3142TIP3   OH230840   6.119   6.648   0.233 -0.3425  0.1492  0.1326
 3142TIP3    H130841   6.096   6.719   0.173 -0.9667  0.0591  0.2611
 3142TIP3    H230842   6.115   6.569   0.179  1.0775  0.2863 -0.1891
 3143TIP3   OH230843   2.252   1.596  15.207 -0.2695  0.0047  0.0677
 3143TIP3    H130844   2.178   1.656  15.193 -1.2935 -1.3041 -0.2008
 3143TIP3    H230845   2.236   1.524  15.146  1.1117 -0.4135  0.1858
 3144TIP3   OH230846   1.677   0.761   1.427  0.2443 -0.1516 -0.1853
 3144TIP3    H130847   1.765   0.759   1.388  0.5557 -2.7054  0.6008
 3144TIP3    H230848   1.679   0.836   1.487  1.8817 -0.1922 -0.1648
 3145TIP3   OH230849   3.586   2.553   1.704 -0.1256  0.1786  0.0471
 3145TIP3    H130850   3.641   2.592   1.771  1.0807  0.0311 -0.8371
 3145TIP3    H230851   3.526   2.495   1.752 -0.2028  1.1164  1.1043
 3146TIP3   OH230852   3.957   1.549   0.651  0.0121  0.2514  0.1012
 3146TIP3    H130853   3.897   1.622   0.665 -0.4268 -0.5004  2.3481
 3146TIP3    H230854   3.899   1.475   0.628  0.0969 -0.3551  1.7913
 3147TIP3   OH230855   5.902   5.350  15.652 -0.4691  0.3990  0.0261
 3147TIP3    H130856   5.955   5.363  15.573 -1.0982 -0.0867 -0.4881
 3147TIP3    H230857   5.961   5.370  15.725  1.2664 -2.8365 -0.4072
 3148TIP3   OH230858   0.388   1.070   6.558  0.8865 -0.3836 -0.0242
 3148TIP3    H130859   0.417   0.979   6.559  0.3625 -0.5858 -1.6526
 3148TIP3    H230860   0.468   1.120   6.576  1.4233 -1.1133 -0.3357
 3149TIP3   OH230861   4.050   0.561  13.959 -0.9574 -0.4547  0.7446
 3149TIP3    H130862   4.139   0.528  13.967 -0.6055 -0.3928 -2.3051
 3149TIP3    H230863   3.995   0.494  14.000  0.2161 -2.0233 -0.2157
 3150TIP3   OH230864   5.546   3.398   2.038  0.0413  0.2248  0.5568
 3150TIP3    H130865   5.540   3.482   2.082 -0.1716  1.4426 -1.7152
 3150TIP3    H230866   5.540   3.419   1.945 -2.4466 -2.5270  0.0252
 3151TIP3   OH230867   1.941   4.227   0.477  0.5157  0.5450  0.0149
 3151TIP3    H130868   1.953   4.134   0.497 -1.0354  0.0456 -1.3355
 3151TIP3    H230869   1.992   4.241   0.397  0.0445  0.6635 -0.2635
 3152TIP3   OH230870   4.114   3.207  17.029 -0.0529  0.7506  0.6517
 3152TIP3    H130871   4.059   3.201  17.107 -0.6825 -1.2008  0.0958
 3152TIP3    H230872   4.063   3.259  16.967 -0.3287  0.7777  0.9017
 3153TIP3   OH230873   3.245   1.840  10.566 -0.1621 -0.2817 -0.3487
 3153TIP3    H130874   3.294   1.768  10.525  0.4326  2.5211 -4.9293
 3153TIP3    H230875   3.156   1.828  10.534 -0.1102  0.8171 -0.9133
 3154TIP3   OH230876   6.747   4.052   4.398 -0.0290 -0.2435 -0.3187
 3154TIP3    H130877   6.681   4.121   4.387 -1.5037 -1.4968  0.6458
 3154TIP3    H230878   6.810   4.069   4.327 -0.5908  1.8334 -0.3558
 3155TIP3   OH230879   1.886   0.030  17.190  0.0797  0.1188 -0.2019
 3155TIP3    H130880   1.803   0.013  17.234 -0.3075 -1.5910 -1.5649
 3155TIP3    H230881   1.952   0.015  17.258 -0.6501  0.3470  0.5707
 3156TIP3   OH230882   6.573   0.488  12.122 -0.6503 -0.2984 -0.0245
 3156TIP3    H130883   6.645   0.551  12.133 -1.0843  0.0413  0.9264
 3156TIP3    H230884   6.494   0.541  12.126 -0.9693 -0.7025 -0.8548
 3157TIP3   OH230885   4.809   0.040  11.883  0.3669  0.1852  0.0246
 3157TIP3    H130886   4.831   0.039  11.790  1.4324  2.3791  0.2367
 3157TIP3    H230887   4.852  -0.038  11.918  0.4022 -0.3627 -1.2134
 3158TIP3   OH230888   6.509   5.785   5.867  0.5911 -0.1646  0.0946
 3158TIP3    H130889   6.527   5.871   5.904  0.6496 -0.6248  1.1458
 3158TIP3    H230890   6.593   5.739   5.872  0.3571 -0.5693  0.2950
 3159TIP3   OH230891   3.088   1.061  14.980 -0.0639 -0.1208 -0.0727
 3159TIP3    H130892   3.051   1.039  15.066  0.1523 -0.1724  0.0058
 3159TIP3    H230893   3.015   1.101  14.933 -0.7466 -1.9531 -0.5798
 3160TIP3   OH230894   4.646   4.606   2.146 -0.3429  0.2090  0.0115
 3160TIP3    H130895   4.556   4.626   2.170  0.0264  0.7586  0.9572
 3160TIP3    H230896   4.686   4.572   2.227  0.7024  1.3694 -0.0062
 3161TIP3   OH230897   2.764   0.003   5.642 -0.1408  0.0506 -0.0886
 3161TIP3    H130898   2.725   0.047   5.718 -2.0519 -1.9576  0.1501
 3161TIP3    H230899   2.814  -0.070   5.680  0.4383  0.1461 -0.6621
 3162TIP3   OH230900   6.272   2.202   4.468  0.4554 -0.7665  0.3202
 3162TIP3    H130901   6.194   2.171   4.514  2.2230 -3.8267  1.3631
 3162TIP3    H230902   6.315   2.260   4.531  0.8914 -1.9353  1.1044
 3163TIP3   OH230903   1.425   3.213   3.848  0.6713 -0.0064  0.0172
 3163TIP3    H130904   1.511   3.212   3.890 -0.1132  0.9362  1.6879
 3163TIP3    H230905   1.436   3.269   3.771  0.8912  2.3111  1.7054
 3164TIP3   OH230906   2.466   1.658  16.399  0.1976 -0.0751 -0.1134
 3164TIP3    H130907   2.388   1.683  16.348  0.7238 -0.9805 -1.3735
 3164TIP3    H230908   2.499   1.742  16.433 -1.4209  0.3012  0.5914
 3165TIP3   OH230909   1.242   4.185   3.460 -0.2281  0.0369  0.0348
 3165TIP3    H130910   1.282   4.267   3.431 -0.2593 -0.0844 -0.3587
 3165TIP3    H230911   1.310   4.142   3.512  0.2795 -0.3291 -0.9148
 3166TIP3   OH230912   0.405   6.693   4.709  0.0951 -0.6057 -0.1256
 3166TIP3    H130913   0.347   6.728   4.642  1.0749 -0.7333 -1.0489
 3166TIP3    H230914   0.424   6.767   4.766 -0.5098 -0.4327 -0.1496
 3167TIP3   OH230915   3.954   3.077   0.215 -0.3092 -0.4268 -0.0903
 3167TIP3    H130916   3.894   3.045   0.283 -0.5819  1.5655  0.6465
 3167TIP3    H230917   3.897   3.096   0.140 -0.3846 -0.1041  0.0462
 3168TIP3   OH230918   6.669   2.636   0.969  0.1205  0.7337  0.2738
 3168TIP3    H130919   6.665   2.564   0.906  0.7320 -0.1169  1.1896
 3168TIP3    H230920   6.710   2.708   0.920 -0.2024  0.3648 -0.5510
 3169TIP3   OH230921   5.775   0.800   4.682  0.0612 -0.0044  0.5277
 3169TIP3    H130922   5.849   0.739   4.681 -0.3098 -0.4582 -0.8286
 3169TIP3    H230923   5.801   0.869   4.620  0.0904  0.7556  1.3773
 3170TIP3   OH230924   1.312   5.918  12.366  0.5484 -0.5801 -0.3001
 3170TIP3    H130925   1.241   5.967  12.407  0.8373 -0.4421  0.0454
 3170TIP3    H230926   1.269   5.858  12.306  0.0122 -1.6672  1.1211
 3171TIP3   OH230927   4.212   2.717   1.038 -0.1198  0.1778  0.2246
 3171TIP3    H130928   4.220   2.787   0.974  0.7227  0.6524  0.8515
 3171TIP3    H230929   4.118   2.696   1.039 -0.2064  0.5042 -0.7954
 3172TIP3   OH230930   2.626   1.460  15.516 -0.1687  0.2563 -0.1263
 3172TIP3    H130931   2.648   1.381  15.565  1.4835 -0.3670 -1.8133
 3172TIP3    H230932   2.533   1.449  15.495 -0.4095 -0.3743  1.1877
 3173TIP3   OH230933   3.936   2.592  12.719  0.3121 -0.3694  0.1071
 3173TIP3    H130934   3.937   2.528  12.647  1.4413  0.3658 -0.5408
 3173TIP3    H230935   3.986   2.666  12.685  1.3946 -0.2670  1.8962
 3174TIP3   OH230936   6.611   4.321  16.891 -0.2253  0.2913  0.5520
 3174TIP3    H130937   6.689   4.304  16.945 -0.0429 -2.4065 -0.4502
 3174TIP3    H230938   6.571   4.398  16.931  3.5591  2.4755  0.4264
 3175TIP3   OH230939   4.362   0.888   5.154  0.2835  0.8071 -0.3397
 3175TIP3    H130940   4.324   0.917   5.236 -0.3239  0.8942 -0.6518
 3175TIP3    H230941   4.417   0.961   5.126  1.2101  0.4227  0.4395
 3176TIP3   OH230942   1.903   5.481  13.795 -0.2941  0.3278 -0.5760
 3176TIP3    H130943   1.851   5.424  13.851 -2.1862  2.6933  0.1850
 3176TIP3    H230944   1.859   5.476  13.709  0.5048 -0.5833 -0.9402
 3177TIP3   OH230945   4.828   6.300  17.229  0.1308  0.1569  0.4181
 3177TIP3    H130946   4.853   6.237  17.296  0.9152  0.9656  0.9003
 3177TIP3    H230947   4.883   6.280  17.154  0.1996  0.1129  0.4816
 3178TIP3   OH230948   0.105   5.564   2.413 -0.3128 -0.3773  0.3145
 3178TIP3    H130949   0.013   5.586   2.427  0.2034  0.8837  1.8986
 3178TIP3    H230950   0.130   5.513   2.490  0.9692  1.4498  1.1353
 3179TIP3   OH230951   2.797   4.998  14.928 -0.3274  0.2934  0.2083
 3179TIP3    H130952   2.707   5.000  14.961 -0.4887  0.2879 -0.2273
 3179TIP3    H230953   2.788   5.007  14.833  0.1685  0.9431  0.2205
 3180TIP3   OH230954   4.677   1.125  13.084  0.8742  0.2547 -0.4510
 3180TIP3    H130955   4.585   1.146  13.071  0.7463  1.6985  2.3203
 3180TIP3    H230956   4.677   1.056  13.151  1.8088  0.8723  0.2064
 3181TIP3   OH230957   0.954   6.632   3.753 -0.5099 -0.0198 -0.3450
 3181TIP3    H130958   0.969   6.721   3.784 -0.3941  0.0741 -0.6599
 3181TIP3    H230959   0.908   6.643   3.670  0.2417 -0.2227 -0.7967
 3182TIP3   OH230960   0.925   3.582   0.474 -0.2171  0.0346 -0.6256
 3182TIP3    H130961   0.851   3.539   0.431 -0.9690  0.1203  0.5506
 3182TIP3    H230962   0.997   3.520   0.466 -0.6928 -0.4888 -0.8953
 3183TIP3   OH230963   5.960   0.080   3.998 -0.7602 -0.9367  0.5403
 3183TIP3    H130964   6.017   0.087   3.922 -1.8631  1.4295 -0.1392
 3183TIP3    H230965   6.011   0.032   4.063  0.5585 -2.1150 -1.3347
 3184TIP3   OH230966   2.597   6.304   2.341 -0.2428 -0.4529 -0.4620
 3184TIP3    H130967   2.514   6.268   2.374 -0.4959  1.2215  0.7667
 3184TIP3    H230968   2.656   6.229   2.338 -0.4862 -0.8263  2.9511
 3185TIP3   OH230969   2.662   2.924  13.341 -0.4826 -0.5675 -0.2969
 3185TIP3    H130970   2.628   3.012  13.325 -0.1026 -0.4076 -0.2121
 3185TIP3    H230971   2.704   2.900  13.259 -1.5975 -1.1279 -0.7144
 3186TIP3   OH230972   3.383   3.962   3.883  0.1491  0.5618  0.1344
 3186TIP3    H130973   3.438   3.945   3.807 -1.3385 -0.3872 -0.7397
 3186TIP3    H230974   3.398   3.887   3.940  0.1709  0.5791  0.1519
 3187TIP3   OH230975   2.433   1.770   0.031  0.0359  0.7302 -0.5334
 3187TIP3    H130976   2.370   1.754   0.101 -0.2546 -0.6588 -1.0841
 3187TIP3    H230977   2.411   1.705  -0.037  0.0110  2.3588 -2.1127
 3188TIP3   OH230978   1.395   2.813  15.785  0.2668 -0.5289  0.7814
 3188TIP3    H130979   1.308   2.819  15.825  0.1306  1.3470  0.2533
 3188TIP3    H230980   1.448   2.876  15.833 -0.1256  2.4383 -2.4573
 3189TIP3   OH230981   1.895   1.050  11.097 -0.4134 -0.4943  0.3395
 3189TIP3    H130982   1.905   1.111  11.024 -0.6179 -0.9678 -0.0883
 3189TIP3    H230983   1.915   1.102  11.175  0.6995 -0.2246 -0.1220
 3190TIP3   OH230984   5.171   5.981   6.112 -0.2185  0.1930 -0.6857
 3190TIP3    H130985   5.164   6.072   6.141  4.4208  0.8725 -1.3473
 3190TIP3    H230986   5.144   5.930   6.188 -1.1582  2.0550  0.2769
 3191TIP3   OH230987   1.434   5.388  16.653 -0.5777 -0.1175 -0.0541
 3191TIP3    H130988   1.487   5.328  16.602 -1.2108  2.1521 -3.5115
 3191TIP3    H230989   1.454   5.366  16.744  1.6212 -3.3427 -1.2420
 3192TIP3   OH230990   0.307   4.940   2.684  0.3841  0.1373 -0.0738
 3192TIP3    H130991   0.258   4.939   2.767 -0.2221 -0.6860 -0.4285
 3192TIP3    H230992   0.398   4.953   2.710  0.0014  1.5048  0.6091
 3193TIP3   OH230993   2.375   4.833  16.900 -0.7441 -0.0682  0.0600
 3193TIP3    H130994   2.419   4.749  16.894 -1.8910 -0.6214 -0.7670
 3193TIP3    H230995   2.360   4.846  16.994  2.1238  0.6413  0.4423
 3194TIP3   OH230996   1.517   3.452   3.640 -0.2489  0.4360  0.1668
 3194TIP3    H130997   1.589   3.465   3.702 -0.0482 -0.9660  0.2451
 3194TIP3    H230998   1.509   3.536   3.595  0.1764  1.2042  1.4885
 3195TIP3   OH230999   1.828   3.615   1.517 -0.2533 -0.2811 -0.8861
 3195TIP3    H131000   1.832   3.612   1.421 -1.1214  1.4502 -1.0073
 3195TIP3    H231001   1.824   3.524   1.544 -0.5150 -0.7742 -2.5366
 3196TIP3   OH231002   0.643   5.538   4.970 -0.4248  0.6027  0.7497
 3196TIP3    H131003   0.738   5.550   4.972 -0.0721 -1.2577 -1.9948
 3196TIP3    H231004   0.608   5.626   4.954  0.9269  1.0215  0.0537
 3197TIP3   OH231005   3.087   3.060  11.899 -0.7567 -0.4345  0.2667
 3197TIP3    H131006   3.095   3.148  11.862 -0.3201 -1.1876 -1.4539
 3197TIP3    H231007   3.010   3.065  11.956 -2.3114  0.3807 -1.8471
 3198TIP3   OH231008   4.155   4.096   6.298 -0.0750  0.3437 -0.0290
 3198TIP3    H131009   4.077   4.059   6.257 -1.1326  1.4265  0.9676
 3198TIP3    H231010   4.216   4.022   6.305 -0.7922 -0.3844 -1.3225
 3199TIP3   OH231011   4.310   0.590   3.170 -0.0504  0.4190 -0.2617
 3199TIP3    H131012   4.316   0.497   3.150  0.7981  0.6042 -0.9089
 3199TIP3    H231013   4.349   0.598   3.257 -1.1047  0.0243  0.2566
 3200TIP3   OH231014   2.791   2.650   1.073  0.1438 -0.0027  0.3946
 3200TIP3    H131015   2.857   2.680   1.011  0.3151  1.5405  1.2758
 3200TIP3    H231016   2.839   2.596   1.136 -0.0813 -1.8022 -0.9435
 3201TIP3   OH231017   3.535   5.539  14.093 -0.3195 -0.6527  0.1457
 3201TIP3    H131018   3.541   5.590  14.012  0.4945  2.0970  1.8681
 3201TIP3    H231019   3.452   5.491  14.086 -0.9712  0.7053 -1.6652
 3202TIP3   OH231020   3.791   0.803   4.929 -0.0254 -0.0436  0.1101
 3202TIP3    H131021   3.848   0.753   4.871  1.1952  1.4524 -0.0098
 3202TIP3    H231022   3.790   0.891   4.892  0.7339  0.9161  2.3092
 3203TIP3   OH231023   5.825   4.719   3.457  0.4339 -0.2580  0.2224
 3203TIP3    H131024   5.792   4.804   3.485  0.5227  0.3160 -1.3299
 3203TIP3    H231025   5.769   4.694   3.383  1.3013 -0.8670 -0.2536
 3204TIP3   OH231026   0.916   1.340   2.666  0.2487  0.0202 -0.0218
 3204TIP3    H131027   0.825   1.310   2.667  0.2393  0.0061  2.0277
 3204TIP3    H231028   0.959   1.282   2.603 -1.1147 -0.1013 -0.8663
 3205TIP3   OH231029   5.869   1.228  12.986 -0.0242  0.0469  0.1930
 3205TIP3    H131030   5.791   1.178  12.963  0.1564 -0.4173  0.5847
 3205TIP3    H231031   5.858   1.312  12.941 -0.6808 -0.0663  0.1426
 3206TIP3   OH231032   6.780   0.591  15.356  0.7889 -0.0308 -0.3052
 3206TIP3    H131033   6.760   0.617  15.266 -0.4017  1.9000  0.4882
 3206TIP3    H231034   6.868   0.625  15.372  1.2877 -1.0061 -0.9791
 3207TIP3   OH231035   2.226   1.076  13.517 -0.0929 -0.1468  0.4194
 3207TIP3    H131036   2.133   1.057  13.508 -0.0078 -0.1585 -0.5316
 3207TIP3    H231037   2.244   1.139  13.447  0.3607  0.7579  1.3414
 3208TIP3   OH231038   5.241   1.932  13.252  0.0741  0.1924  0.5897
 3208TIP3    H131039   5.302   2.005  13.239  0.6530 -0.6988 -2.0784
 3208TIP3    H231040   5.289   1.855  13.220 -2.5369 -0.4929 -1.8237
 3209TIP3   OH231041   3.465   4.641   5.251  0.3706 -0.0592 -0.2628
 3209TIP3    H131042   3.441   4.552   5.278  0.6324  0.2093  0.8943
 3209TIP3    H231043   3.412   4.658   5.174 -1.8527 -0.1521  1.1979
 3210TIP3   OH231044   4.868   1.761  12.221  0.0778  0.1353 -0.4068
 3210TIP3    H131045   4.943   1.816  12.200  0.4233  0.3373  1.2954
 3210TIP3    H231046   4.900   1.672  12.208 -0.0276  0.2731 -1.6975
 3211TIP3   OH231047   4.121   2.808  14.270 -0.9691  0.1157 -0.0321
 3211TIP3    H131048   4.125   2.865  14.346  1.2108 -0.1469  0.0946
 3211TIP3    H231049   4.087   2.864  14.200  1.0327  1.5682  0.1113
 3212TIP3   OH231050   1.200   6.530   2.898 -0.1287 -0.6481 -0.4431
 3212TIP3    H131051   1.282   6.523   2.850  0.3563  0.9240  0.1216
 3212TIP3    H231052   1.141   6.579   2.839  0.1528  0.4108  0.1323
 3213TIP3   OH231053   5.853   1.619  14.731 -0.2986 -0.0142 -0.4589
 3213TIP3    H131054   5.919   1.669  14.684  0.1594 -1.5939 -1.5333
 3213TIP3    H231055   5.865   1.529  14.702 -0.3063 -0.9942  2.3509
 3214TIP3   OH231056   5.286   0.779  12.131 -0.3770 -0.1685 -0.1574
 3214TIP3    H131057   5.225   0.853  12.129 -0.2225 -0.0733 -3.3493
 3214TIP3    H231058   5.373   0.819  12.130 -0.2605 -0.3692  1.0285
 3215TIP3   OH231059   2.744   2.959  14.901  0.1627  0.3457 -0.9391
 3215TIP3    H131060   2.837   2.968  14.883  0.0917  0.3735 -1.3120
 3215TIP3    H231061   2.738   2.888  14.965  0.3166 -0.8301 -2.2052
 3216TIP3   OH231062   3.859   6.364  14.508  0.4326 -0.0744 -0.3802
 3216TIP3    H131063   3.926   6.395  14.447  0.5025  0.2481 -0.1373
 3216TIP3    H231064   3.840   6.439  14.564  0.1202 -0.2694 -0.2230
 3217TIP3   OH231065   6.674   2.477  16.972 -0.4298 -0.6941 -0.2149
 3217TIP3    H131066   6.704   2.545  16.912 -2.2490 -0.3278 -0.7424
 3217TIP3    H231067   6.590   2.447  16.935 -0.7255 -1.6732  1.1970
 3218TIP3   OH231068   4.371   6.713  14.846  0.7945  0.1677 -0.3607
 3218TIP3    H131069   4.350   6.674  14.762  0.8525 -1.1172  0.1986
 3218TIP3    H231070   4.375   6.638  14.907 -1.3563  1.2899  1.2152
 3219TIP3   OH231071   0.057   4.511  16.099  0.7012 -0.2495 -0.2086
 3219TIP3    H131072   0.092   4.480  16.015 -0.6370  0.5538 -1.0766
 3219TIP3    H231073   0.051   4.606  16.089 -0.9065 -0.2846  0.2282
 3220TIP3   OH231074   5.370   1.413  12.016  0.3188  0.0815  0.0556
 3220TIP3    H131075   5.377   1.327  11.976 -0.2518  0.2958 -0.5133
 3220TIP3    H231076   5.313   1.400  12.092 -0.5344  0.1269 -0.5623
 3221TIP3   OH231077   2.263   2.521  14.462  0.4387  0.7574  0.0474
 3221TIP3    H131078   2.349   2.544  14.426  0.4748  0.1451 -0.2646
 3221TIP3    H231079   2.223   2.467  14.394  0.3395 -0.0712  0.7584
 3222TIP3   OH231080   4.242   1.318  11.056 -0.2410  0.3887 -0.4374
 3222TIP3    H131081   4.232   1.264  11.134 -0.0209  0.2315 -0.5202
 3222TIP3    H231082   4.335   1.339  11.053 -0.3359  0.8304 -0.3665
 3223TIP3   OH231083   2.179   1.163   2.601  0.3061  0.6803  0.2948
 3223TIP3    H131084   2.126   1.166   2.521  1.8603 -1.8596 -0.9061
 3223TIP3    H231085   2.259   1.212   2.578  0.8783 -0.2988  0.1746
 3224TIP3   OH231086   1.779   6.783  16.696 -0.1639 -0.4407  0.8583
 3224TIP3    H131087   1.814   6.695  16.699 -0.0868 -0.4280  0.2802
 3224TIP3    H231088   1.823   6.829  16.768  2.5045  0.1424 -1.0985
 3225TIP3   OH231089   2.309   5.710  15.570 -0.1818 -0.0971 -0.1505
 3225TIP3    H131090   2.239   5.649  15.595  0.2014 -1.0299 -1.3680
 3225TIP3    H231091   2.379   5.693  15.633 -0.8455  0.5180  0.7812
 3226TIP3   OH231092   3.972   4.948   4.014  0.4453 -0.2604 -0.7648
 3226TIP3    H131093   3.988   4.896   4.093  2.5396  1.7121  0.1559
 3226TIP3    H231094   3.879   4.933   3.994 -0.3026 -0.2486  2.4707
 3227TIP3   OH231095   0.826   4.667   6.084 -0.0886 -1.0678 -0.0845
 3227TIP3    H131096   0.844   4.577   6.055 -0.8014 -0.8784 -1.1640
 3227TIP3    H231097   0.764   4.657   6.156 -0.3437 -1.4358 -0.3512
 3228TIP3   OH231098   5.606   3.983  14.077 -0.8575 -0.1514  0.3851
 3228TIP3    H131099   5.558   3.933  14.011  1.1597 -1.5547 -0.0519
 3228TIP3    H231100   5.617   3.922  14.150  1.0772 -0.1737  0.1004
 3229TIP3   OH231101   1.778   0.276   5.931 -0.4419 -0.1227  0.3717
 3229TIP3    H131102   1.804   0.348   5.989 -1.4101 -0.0829  0.7610
 3229TIP3    H231103   1.823   0.199   5.967 -0.0236  0.1360  0.4100
 3230TIP3   OH231104   5.569   3.708   0.210  0.2857 -0.0342  0.3336
 3230TIP3    H131105   5.496   3.741   0.264  0.2091 -0.4029  0.4594
 3230TIP3    H231106   5.535   3.628   0.171 -0.1858  1.0316 -1.4877
 3231TIP3   OH231107   2.509   0.603  16.762 -0.1905  0.0357  0.1962
 3231TIP3    H131108   2.509   0.573  16.671  1.0038  0.3519  0.0928
 3231TIP3    H231109   2.592   0.574  16.798  0.3325  1.8622  0.5393
 3232TIP3   OH231110   2.946   2.135   0.273 -0.1133  0.0116 -0.0310
 3232TIP3    H131111   2.961   2.108   0.364 -0.1522 -0.7308 -0.2430
 3232TIP3    H231112   2.859   2.175   0.273 -0.3641 -0.5400  0.1337
 3233TIP3   OH231113   1.444   1.536  13.563  0.1677  0.4340  0.4653
 3233TIP3    H131114   1.455   1.467  13.498  1.2452  0.4862  0.5854
 3233TIP3    H231115   1.375   1.592  13.527 -0.2993 -0.3736  0.0930
 3234TIP3   OH231116   4.323   3.991  16.981  0.0299  0.3566  0.1256
 3234TIP3    H131117   4.352   3.932  17.050  0.2108 -1.6534 -1.6182
 3234TIP3    H231118   4.228   3.981  16.980  0.0550  0.1493 -0.1272
 3235TIP3   OH231119   2.970   2.069   2.104 -0.7588 -0.3640  0.0966
 3235TIP3    H131120   2.932   2.075   2.192 -2.0178 -1.3809 -0.3543
 3235TIP3    H231121   3.063   2.084   2.117 -0.9807 -0.1325  1.5560
 3236TIP3   OH231122   0.942   3.357  14.219  0.0929  0.1674 -0.1622
 3236TIP3    H131123   0.886   3.394  14.287  0.3581  0.7431 -0.2493
 3236TIP3    H231124   0.881   3.324  14.153 -0.1583 -0.0439  0.1737
 3237TIP3   OH231125   6.569   3.562   0.850 -0.3353  0.0453 -0.6931
 3237TIP3    H131126   6.505   3.497   0.822 -0.0415 -0.3017 -0.5701
 3237TIP3    H231127   6.573   3.625   0.779 -0.6362 -0.0655 -0.8071
 3238TIP3   OH231128   0.856   0.272   5.069 -0.1329  0.5046  0.6355
 3238TIP3    H131129   0.934   0.259   5.014 -0.8876 -2.7267  0.2185
 3238TIP3    H231130   0.891   0.288   5.156  1.0385  2.1309 -0.1170
 3239TIP3   OH231131   1.188   1.334  12.022  0.0464  0.1864 -0.3609
 3239TIP3    H131132   1.151   1.259  12.069 -1.1379 -0.5014 -2.3352
 3239TIP3    H231133   1.170   1.409  12.078  0.7992 -0.9226  1.4166
 3240TIP3   OH231134   5.016   4.502  13.689  0.4140 -0.2609 -0.3349
 3240TIP3    H131135   5.111   4.493  13.695  0.6803  2.5562  0.1388
 3240TIP3    H231136   4.989   4.531  13.776 -0.5706  1.2622 -1.1288
 3241TIP3   OH231137   2.943   1.342   6.370 -0.7742 -0.1806  0.0133
 3241TIP3    H131138   2.914   1.305   6.453  2.6751  0.3888  1.5627
 3241TIP3    H231139   3.015   1.285   6.342 -1.3559  0.1093 -2.1836
 3242TIP3   OH231140   6.058   5.782   2.822 -0.5148  0.1012 -0.0644
 3242TIP3    H131141   6.076   5.876   2.823 -0.8464  0.1720  1.4990
 3242TIP3    H231142   6.137   5.742   2.788  0.7016  0.7601  1.9100
 3243TIP3   OH231143   4.258   6.720  11.810  0.1571 -0.1359  0.0789
 3243TIP3    H131144   4.227   6.637  11.773 -0.6984  0.5131 -0.7052
 3243TIP3    H231145   4.260   6.780  11.735  1.2124  0.4272  0.5521
 3244TIP3   OH231146   2.045   0.729  16.239  0.0457  0.4968  0.0892
 3244TIP3    H131147   1.951   0.739  16.255 -0.1320  0.7073 -1.0274
 3244TIP3    H231148   2.067   0.804  16.183  0.4896 -0.6017 -1.2163
 3245TIP3   OH231149   6.474   4.904  13.957 -0.4081 -0.8261 -0.2584
 3245TIP3    H131150   6.531   4.948  14.020 -2.4267 -0.7283  1.5626
 3245TIP3    H231151   6.491   4.811  13.971 -0.5564 -0.7909  0.1888
 3246TIP3   OH231152   3.369   3.968  11.346 -0.9778 -0.5696 -0.1383
 3246TIP3    H131153   3.283   3.973  11.386 -0.4157 -1.7318  1.2596
 3246TIP3    H231154   3.370   4.039  11.282 -2.1560  0.8844  1.4083
 3247TIP3   OH231155   4.901   0.887   3.706 -0.0653 -0.0195  0.2584
 3247TIP3    H131156   4.810   0.879   3.734 -0.0077  0.5500  0.6249
 3247TIP3    H231157   4.950   0.832   3.768 -0.2284 -0.8545 -0.3446
 3248TIP3   OH231158   0.531   4.900  13.980  0.9283  0.7858 -0.0604
 3248TIP3    H131159   0.598   4.958  13.945  0.9290  1.1761  0.5833
 3248TIP3    H231160   0.567   4.868  14.062 -1.2305  4.1043  2.3496
 3249TIP3   OH231161   1.021   5.201   3.779 -0.8012  0.7934  0.8274
 3249TIP3    H131162   0.947   5.184   3.837 -0.5882 -0.2477  0.7932
 3249TIP3    H231163   1.095   5.215   3.838 -1.0525  2.0313  0.8686
 3250TIP3   OH231164   4.584   2.317   3.057  0.0703  0.1148 -0.6173
 3250TIP3    H131165   4.555   2.238   3.102 -1.1664  0.8623 -0.0767
 3250TIP3    H231166   4.571   2.387   3.121  1.4971  0.7219 -0.9620
 3251TIP3   OH231167   5.079   4.648   2.973  0.3025 -0.6105 -0.2976
 3251TIP3    H131168   5.049   4.685   2.890 -0.1853 -1.8834 -0.7031
 3251TIP3    H231169   5.095   4.725   3.029 -1.3000  0.1892 -0.9013
 3252TIP3   OH231170   4.766   4.256  16.902 -0.2866 -0.6159  0.0350
 3252TIP3    H131171   4.856   4.229  16.921 -0.6239 -2.1286 -0.4930
 3252TIP3    H231172   4.729   4.277  16.988  0.7764  0.7131  0.1860
 3253TIP3   OH231173   0.962   0.385  16.641 -0.0067 -0.3954 -0.5702
 3253TIP3    H131174   0.979   0.475  16.614  0.1903 -0.6824 -1.4073
 3253TIP3    H231175   0.964   0.388  16.737  0.0184  0.4849 -0.5929
 3254TIP3   OH231176   6.644   6.321  11.300  0.1982  0.2201  0.0345
 3254TIP3    H131177   6.697   6.361  11.369  0.1914  1.1837 -0.5100
 3254TIP3    H231178   6.672   6.365  11.220  0.2868 -0.9685 -0.6102
 3255TIP3   OH231179   6.621   0.372   3.014  0.7037 -0.0444  0.1660
 3255TIP3    H131180   6.544   0.430   3.022 -0.4023 -1.4607 -0.0433
 3255TIP3    H231181   6.598   0.312   2.944  1.7678 -0.8599  0.5135
 3256TIP3   OH231182   6.677   4.803   1.606 -0.6314 -0.4543  0.0446
 3256TIP3    H131183   6.720   4.871   1.657 -1.8567 -1.0294  1.9123
 3256TIP3    H231184   6.730   4.794   1.527  0.3371  1.6620  0.4254
 3257TIP3   OH231185   2.891   6.090  11.899  0.1677 -0.7911  0.3652
 3257TIP3    H131186   2.934   6.011  11.930  0.2687 -0.8836 -0.0071
 3257TIP3    H231187   2.854   6.066  11.814 -0.0349 -0.5168  0.3727
 3258TIP3   OH231188   0.570   0.054  15.204  0.1981 -0.3794  0.1074
 3258TIP3    H131189   0.497   0.095  15.156 -0.0333 -1.2392 -0.2833
 3258TIP3    H231190   0.602   0.123  15.262  0.4122  0.6516 -1.2069
 3259TIP3   OH231191   3.532   3.925  15.064 -0.3188 -0.6589  0.5456
 3259TIP3    H131192   3.536   3.984  14.988 -1.8259 -0.9739  0.2218
 3259TIP3    H231193   3.515   3.839  15.027 -1.1568 -0.7972  1.2391
 3260TIP3   OH231194   0.265   2.195  13.185 -0.6285 -0.4583  0.3659
 3260TIP3    H131195   0.280   2.134  13.257  0.9267  0.3275  0.7385
 3260TIP3    H231196   0.282   2.143  13.106 -0.2852 -0.7749  0.6457
 3261TIP3   OH231197   5.816   2.290  13.170  0.2298  0.3649 -0.0380
 3261TIP3    H131198   5.831   2.371  13.219 -1.1161  0.5485  0.0854
 3261TIP3    H231199   5.857   2.306  13.085  0.5562  0.9194  0.2198
 3262TIP3   OH231200   1.446   4.717   1.175 -0.5299 -0.1656  0.3792
 3262TIP3    H131201   1.449   4.766   1.257 -1.4380  0.6120 -0.0438
 3262TIP3    H231202   1.385   4.765   1.120 -2.0475 -2.1624  0.2339
 3263TIP3   OH231203   5.813   0.960  16.340 -0.1909  0.3044 -0.1036
 3263TIP3    H131204   5.882   1.013  16.381  1.0293 -0.0598 -1.6129
 3263TIP3    H231205   5.845   0.945  16.251 -1.0760 -1.9477 -0.0754
 3264TIP3   OH231206   3.824   2.566   0.511  0.2095 -0.2041  0.9809
 3264TIP3    H131207   3.829   2.646   0.458 -3.7614  1.3375  2.7446
 3264TIP3    H231208   3.749   2.519   0.476 -0.4920 -0.7404  3.1250
 3265TIP3   OH231209   6.133   3.505  11.660  0.2087 -0.2569  0.0968
 3265TIP3    H131210   6.123   3.420  11.701 -0.7007 -0.4680 -0.5510
 3265TIP3    H231211   6.223   3.505  11.626  1.1934  0.1677  2.5818
 3266TIP3   OH231212   5.863   6.601   3.549 -0.0065 -0.1901  0.5534
 3266TIP3    H131213   5.836   6.509   3.545 -1.8706  0.3998 -1.2169
 3266TIP3    H231214   5.928   6.610   3.479 -2.3165  0.5709 -1.5833
 3267TIP3   OH231215   5.041   5.676  15.247 -0.0323  0.6407 -0.4996
 3267TIP3    H131216   5.118   5.692  15.192 -0.6314  1.7669 -1.0303
 3267TIP3    H231217   4.968   5.707  15.194 -1.0131 -1.5888 -0.5279
 3268TIP3   OH231218   2.701   2.162  11.957 -0.2175  0.2990  0.5351
 3268TIP3    H131219   2.729   2.152  12.048 -1.1309  1.9219  1.0093
 3268TIP3    H231220   2.631   2.099  11.946 -1.9227  1.9413  1.7550
 3269TIP3   OH231221   3.130   1.133  10.884  0.1269  0.6411 -0.2583
 3269TIP3    H131222   3.120   1.184  10.804 -0.8790  0.8130 -0.0310
 3269TIP3    H231223   3.151   1.198  10.951  0.5314  0.5474 -0.2898
 3270TIP3   OH231224   3.313   3.416  14.491  0.0417  0.2738 -0.2990
 3270TIP3    H131225   3.265   3.334  14.474 -0.1810  0.4907 -0.7196
 3270TIP3    H231226   3.357   3.400  14.574 -2.1032  0.6797  0.9581
 3271TIP3   OH231227   4.793   1.156  16.814  0.1922 -0.4814  0.0480
 3271TIP3    H131228   4.824   1.222  16.877 -1.5596  0.6250 -0.2270
 3271TIP3    H231229   4.802   1.073  16.861 -0.1360  0.2334  1.4084
 3272TIP3   OH231230   6.151   4.054  12.795 -0.0201  0.0681  0.3792
 3272TIP3    H131231   6.059   4.030  12.788 -0.3686  1.0992  1.4396
 3272TIP3    H231232   6.167   4.064  12.889  1.1397  0.0184  0.1974
 3273TIP3   OH231233   1.850   4.029   1.716  0.3786 -0.4039 -0.0538
 3273TIP3    H131234   1.830   4.123   1.716 -0.1801 -0.5234 -0.3584
 3273TIP3    H231235   1.792   3.992   1.782  1.3949 -0.3687  0.8667
 3274TIP3   OH231236   0.999   4.496  13.564 -0.4715 -0.8953  0.1967
 3274TIP3    H131237   1.090   4.488  13.535 -1.0739 -0.1547 -2.0418
 3274TIP3    H231238   0.996   4.448  13.647  1.7186 -1.7688 -0.1757
 3275TIP3   OH231239   2.806   4.500   0.561 -0.3597 -0.0088 -0.1973
 3275TIP3    H131240   2.882   4.464   0.515  0.4462  1.7777 -0.3153
 3275TIP3    H231241   2.793   4.586   0.521 -0.6326  0.9165  1.8370
 3276TIP3   OH231242   2.722   0.932  14.214  0.6341 -0.0072  0.0606
 3276TIP3    H131243   2.646   0.988  14.231  1.5541  1.2856  0.0020
 3276TIP3    H231244   2.734   0.883  14.296 -0.1285 -0.0535  0.1462
 3277TIP3   OH231245   4.002   6.695   4.582 -0.0135  0.4876  0.6715
 3277TIP3    H131246   4.061   6.630   4.546 -1.8219 -0.1561 -1.2694
 3277TIP3    H231247   4.058   6.768   4.607  1.6280 -0.3112 -0.6138
 3278TIP3   OH231248   0.150   5.809  15.856 -0.6325  0.4015 -0.2824
 3278TIP3    H131249   0.083   5.742  15.865  0.4381 -0.5853  0.4763
 3278TIP3    H231250   0.179   5.801  15.765 -0.8582  0.1781 -0.3377
 3279TIP3   OH231251   3.631   2.275  15.486 -0.3012  0.4261 -0.0806
 3279TIP3    H131252   3.622   2.235  15.573 -1.2084 -1.0942 -0.8584
 3279TIP3    H231253   3.541   2.298  15.461 -0.0790  0.5490 -0.7688
 3280TIP3   OH231254   0.239   2.671   2.639  0.4109 -0.5761  0.3366
 3280TIP3    H131255   0.148   2.643   2.628  0.3892  0.1296 -1.4962
 3280TIP3    H231256   0.236   2.734   2.711 -0.5849 -0.4246  0.1730
 3281TIP3   OH231257   1.052   2.003   0.944  0.1459  0.0583 -0.7770
 3281TIP3    H131258   1.122   2.040   0.998 -0.6110  2.2991 -1.3105
 3281TIP3    H231259   1.060   1.908   0.956  0.1154  0.4880  3.1275
 3282TIP3   OH231260   4.783   4.012  11.951  0.2138  0.4556  0.3417
 3282TIP3    H131261   4.811   4.103  11.965  1.0554  0.0323  1.4943
 3282TIP3    H231262   4.753   4.010  11.861  0.5248  1.8039  0.1954
 3283TIP3   OH231263   0.011   0.521   6.108 -0.2392 -0.0837 -0.0448
 3283TIP3    H131264  -0.063   0.469   6.140 -0.8382  1.3507  0.9670
 3283TIP3    H231265  -0.011   0.611   6.132  2.4750  0.2295  1.5400
 3284TIP3   OH231266   0.293   4.604   3.240 -0.5044  0.0970 -0.0803
 3284TIP3    H131267   0.210   4.613   3.287 -1.5197  4.3399 -2.4512
 3284TIP3    H231268   0.266   4.583   3.150  1.1037 -0.4179 -0.4484
 3285TIP3   OH231269   6.093   6.781   4.473 -0.5638  0.6199  0.0978
 3285TIP3    H131270   6.012   6.730   4.481 -2.6954  3.8651 -0.0033
 3285TIP3    H231271   6.108   6.786   4.378  0.3095 -0.7463  0.1445
 3286TIP3   OH231272   3.738   4.525   4.176 -0.0354 -0.2148  0.4092
 3286TIP3    H131273   3.802   4.521   4.106  0.1850  0.2544  0.5819
 3286TIP3    H231274   3.674   4.457   4.155 -0.0543  0.0266 -0.3249
 3287TIP3   OH231275   3.779   2.184   0.358  0.6620  0.0216  0.4633
 3287TIP3    H131276   3.839   2.211   0.290 -1.2579  2.3222 -0.4006
 3287TIP3    H231277   3.774   2.259   0.417  0.1664 -0.8890  1.6086
 3288TIP3   OH231278   0.100   4.607   3.863 -0.2555  0.3049 -0.0757
 3288TIP3    H131279   0.110   4.620   3.957 -0.3039 -1.3374  0.1602
 3288TIP3    H231280   0.136   4.520   3.846 -0.6294  0.4148 -1.5143
 3289TIP3   OH231281   3.051   4.579  15.234 -0.0214  0.0614 -0.0525
 3289TIP3    H131282   3.073   4.579  15.141 -0.4246 -0.4113 -0.1505
 3289TIP3    H231283   2.968   4.531  15.239 -0.4735  0.8774  0.4397
 3290TIP3   OH231284   4.450   3.252  14.334  0.2837 -0.1441  0.2479
 3290TIP3    H131285   4.449   3.208  14.419 -0.6068 -2.4969 -0.9432
 3290TIP3    H231286   4.422   3.342  14.352 -2.0241 -1.2172  2.1126
 3291TIP3   OH231287   1.920   1.491   0.475 -0.5251 -0.2816 -0.2405
 3291TIP3    H131288   2.006   1.518   0.442 -0.2549  0.8196  1.3280
 3291TIP3    H231289   1.864   1.491   0.397  0.6197  0.1352 -1.0773
 3292TIP3   OH231290   0.423   1.812  14.410 -0.2087  0.0319 -0.0769
 3292TIP3    H131291   0.384   1.739  14.362  0.4285  0.8487 -1.8505
 3292TIP3    H231292   0.434   1.778  14.499 -1.6451 -1.3994 -0.4098
 3293TIP3   OH231293   1.488   0.697  13.899 -0.1356  0.1247 -0.1143
 3293TIP3    H131294   1.453   0.620  13.943  3.0494 -0.3446  1.7845
 3293TIP3    H231295   1.493   0.764  13.967  0.8523  0.7277 -0.7623
 3294TIP3   OH231296   0.790   2.617  14.904  0.3990  0.0641  0.1075
 3294TIP3    H131297   0.764   2.683  14.969 -1.1732 -1.8054  1.4467
 3294TIP3    H231298   0.711   2.564  14.892  1.0564 -0.3574 -2.4408
 3295TIP3   OH231299   1.666   2.444  12.431  0.5091 -0.2453 -0.1217
 3295TIP3    H131300   1.683   2.509  12.363 -2.1280 -0.4130 -0.9941
 3295TIP3    H231301   1.720   2.369  12.407 -1.9451 -1.1127 -3.3050
 3296TIP3   OH231302   4.594   5.133   6.931  0.2765 -0.1600  0.2703
 3296TIP3    H131303   4.687   5.150   6.915  1.1151 -1.8222  2.9647
 3296TIP3    H231304   4.570   5.066   6.867  1.2082 -0.4625  0.2323
 3297TIP3   OH231305   1.074   5.369   4.754 -0.1892  0.2373  0.4916
 3297TIP3    H131306   1.016   5.321   4.813 -1.5726  0.7792 -0.3926
 3297TIP3    H231307   1.048   5.460   4.763 -0.0410  0.3942 -0.5376
 3298TIP3   OH231308   4.016   3.476   6.006  0.3232  0.0048  0.6882
 3298TIP3    H131309   4.094   3.485   6.060  0.9473 -0.2820 -0.1442
 3298TIP3    H231310   4.003   3.381   5.999  0.6490  0.0231 -0.2220
 3299TIP3   OH231311   6.003   1.520  11.333 -0.1155 -0.2221  0.1863
 3299TIP3    H131312   6.032   1.462  11.262  0.9439 -0.7939  1.0657
 3299TIP3    H231313   5.941   1.466  11.383  0.2193 -0.3026  0.5132
 3300TIP3   OH231314   6.362   3.301  12.307 -0.0847  0.2150  0.0958
 3300TIP3    H131315   6.276   3.268  12.335 -0.0919  0.5941  0.5241
 3300TIP3    H231316   6.363   3.393  12.335 -0.3872  0.8254 -1.7826
 3301TIP3   OH231317   6.324   2.813   4.780  0.5997  0.0821 -0.2119
 3301TIP3    H131318   6.312   2.718   4.783 -3.4297  0.3581 -3.2404
 3301TIP3    H231319   6.404   2.826   4.730 -0.6877 -1.7086 -2.8030
 3302TIP3   OH231320   4.973   1.468  11.629 -0.4569 -0.0711  0.3020
 3302TIP3    H131321   5.064   1.469  11.659 -0.6272 -0.8713  0.8467
 3302TIP3    H231322   4.975   1.418  11.547 -0.1812  1.1232 -0.4296
 3303TIP3   OH231323   0.506   5.781   3.844 -0.2948  0.0789 -0.5378
 3303TIP3    H131324   0.589   5.767   3.890 -0.7177  0.6366  0.4021
 3303TIP3    H231325   0.458   5.843   3.899 -0.1583  1.9928 -2.5208
 3304TIP3   OH231326   4.490   6.492  16.030  0.4215 -0.2917 -0.3505
 3304TIP3    H131327   4.488   6.397  16.028  0.7345 -0.2903 -1.3060
 3304TIP3    H231328   4.424   6.519  15.966  0.2778  0.1294 -0.0233
 3305TIP3   OH231329   5.249   3.166  16.632  0.1226  0.0429 -0.5218
 3305TIP3    H131330   5.258   3.233  16.699  0.9322  2.0665 -2.5874
 3305TIP3    H231331   5.206   3.211  16.559  1.4730 -1.4511 -2.2776
 3306TIP3   OH231332   3.025   3.083   0.748  0.1616 -0.1013 -0.1595
 3306TIP3    H131333   2.998   3.017   0.684  0.1053 -1.2744  1.0603
 3306TIP3    H231334   2.948   3.098   0.802  0.0990  1.1623 -0.5625
 3307TIP3   OH231335   3.364   3.876  12.986  0.3915 -0.0256  0.2257
 3307TIP3    H131336   3.334   3.955  13.031  0.2592 -1.0023  1.8531
 3307TIP3    H231337   3.459   3.887  12.979  0.3154  0.5025 -0.0057
 3308TIP3   OH231338   5.204   1.446   4.756  0.3143 -0.2188 -0.2854
 3308TIP3    H131339   5.233   1.537   4.766  1.5972 -0.8529  2.0065
 3308TIP3    H231340   5.123   1.441   4.806 -0.4218 -0.0467 -1.4391
 3309TIP3   OH231341   5.257   0.105  16.754 -0.3220 -0.0025  0.8712
 3309TIP3    H131342   5.176   0.076  16.714  0.9331 -0.4832 -1.3750
 3309TIP3    H231343   5.314   0.028  16.753  0.3192  0.4299  2.0697
 3310TIP3   OH231344   3.397   3.825  15.463 -0.0473  0.6204 -0.5501
 3310TIP3    H131345   3.481   3.833  15.508 -0.6534 -1.9227  1.1712
 3310TIP3    H231346   3.418   3.786  15.378  0.6342  0.9482 -0.5313
 3311TIP3   OH231347   2.045   5.762   0.440  0.1438 -0.3132 -0.5968
 3311TIP3    H131348   2.123   5.816   0.450 -1.8015  2.4221  0.3420
 3311TIP3    H231349   1.979   5.821   0.403 -1.7749 -2.3167 -0.4881
 3312TIP3   OH231350   6.675   6.375  10.718 -0.3338 -0.1762  0.4490
 3312TIP3    H131351   6.619   6.392  10.643 -0.4761 -0.6171  0.4546
 3312TIP3    H231352   6.761   6.408  10.692 -0.5924  0.4894  0.4381
 3313TIP3   OH231353   1.815   5.320   3.597 -0.6577  0.1627 -0.3454
 3313TIP3    H131354   1.893   5.335   3.651  0.1712  2.0644 -2.0231
 3313TIP3    H231355   1.812   5.224   3.586  0.4248 -0.0643  1.1882
 3314TIP3   OH231356   6.640   3.457  13.452  0.0577 -0.1296 -0.5903
 3314TIP3    H131357   6.560   3.405  13.456 -1.3393  1.9450 -1.0372
 3314TIP3    H231358   6.641   3.495  13.364 -0.0510  2.2857  0.4070
 3315TIP3   OH231359   1.232   1.378  15.337 -0.3281  0.3705 -0.1546
 3315TIP3    H131360   1.318   1.366  15.376 -0.7759  1.6874  1.2681
 3315TIP3    H231361   1.247   1.437  15.264 -0.0138  0.5442  0.0504
 3316TIP3   OH231362   2.017   3.094  15.275  0.4685  0.6016 -0.1146
 3316TIP3    H131363   1.970   3.174  15.297  1.1031  1.2013 -0.9012
 3316TIP3    H231364   2.028   3.098  15.180  1.4302  0.1040 -0.0310
 3317TIP3   OH231365   1.368   3.921  11.907 -0.3720  0.2081 -0.0287
 3317TIP3    H131366   1.367   3.826  11.893 -0.9985  0.4790 -1.9881
 3317TIP3    H231367   1.357   3.958  11.819 -0.2891  2.0975  0.7378
 3318TIP3   OH231368   0.063   0.844  16.757  0.4398 -0.0071  0.2361
 3318TIP3    H131369   0.131   0.815  16.696  0.1922 -0.8480  0.3614
 3318TIP3    H231370  -0.019   0.831  16.709 -0.0012 -3.5033  1.8237
 3319TIP3   OH231371   3.695   2.314  14.109  0.0746 -0.0034 -0.2853
 3319TIP3    H131372   3.718   2.293  14.200 -0.7116 -0.6540 -0.2264
 3319TIP3    H231373   3.764   2.272  14.057  0.1413 -0.2275 -0.0200
 3320TIP3   OH231374   4.388   2.801  11.419 -0.0444 -0.6775  0.4702
 3320TIP3    H131375   4.376   2.723  11.364 -1.6802  0.1574 -0.3701
 3320TIP3    H231376   4.427   2.866  11.360  0.4530 -0.5529  0.9293
 3321TIP3   OH231377   2.642   5.622   1.163 -0.0976 -0.3093  0.4239
 3321TIP3    H131378   2.725   5.582   1.187 -0.4941 -2.3347 -1.3728
 3321TIP3    H231379   2.590   5.549   1.129 -1.5149  1.4410 -1.2664
 3322TIP3   OH231380   6.141   6.768   1.068  0.5379 -0.1479 -0.5381
 3322TIP3    H131381   6.123   6.835   1.001 -0.0226  0.6315  0.3798
 3322TIP3    H231382   6.076   6.700   1.052  0.7527 -0.2168 -1.1292
 3323TIP3   OH231383   6.732   2.683  14.238 -0.4470  0.0052 -0.1428
 3323TIP3    H131384   6.684   2.727  14.308 -0.0039 -1.6287  1.2149
 3323TIP3    H231385   6.816   2.660  14.277 -0.8619 -2.4980 -0.6406
 3324TIP3   OH231386   1.921   2.318   6.362  0.1959 -0.1748  0.0117
 3324TIP3    H131387   1.951   2.287   6.447  1.2727 -1.0807 -0.6992
 3324TIP3    H231388   1.934   2.244   6.302 -2.5507 -0.3082 -0.5296
 3325TIP3   OH231389   0.984   0.188  14.636  0.0683  0.1776 -0.1337
 3325TIP3    H131390   1.007   0.134  14.561 -0.3452  1.1505 -0.9794
 3325TIP3    H231391   1.031   0.270  14.621  0.5216  0.1303  1.0191
 3326TIP3   OH231392   2.480   4.726   5.468 -0.0443 -0.4114 -0.3296
 3326TIP3    H131393   2.458   4.782   5.394 -1.9821 -1.0180 -0.2524
 3326TIP3    H231394   2.490   4.639   5.429 -1.4444 -0.7994  0.1672
 3327TIP3   OH231395   1.488   2.217   5.135  0.1133  0.1929 -0.0324
 3327TIP3    H131396   1.524   2.257   5.213  0.2785 -0.4153  0.2058
 3327TIP3    H231397   1.393   2.229   5.143  0.2162  1.3387 -0.4107
 3328TIP3   OH231398   6.382   1.697  15.046  0.2231  0.2594  0.0940
 3328TIP3    H131399   6.358   1.628  14.983  2.5561  0.0645 -0.6285
 3328TIP3    H231400   6.456   1.660  15.093  0.3984  1.6269  0.8849
 3329TIP3   OH231401   4.494   1.719   3.876  0.2286  0.0979 -0.3284
 3329TIP3    H131402   4.502   1.798   3.929 -1.3182  0.3431 -0.4299
 3329TIP3    H231403   4.464   1.750   3.791  0.6974 -0.4955 -0.7140
 3330TIP3   OH231404   3.193   3.842   0.282 -0.2333 -0.3381 -0.6874
 3330TIP3    H131405   3.252   3.864   0.354 -1.2665  0.5537 -0.1019
 3330TIP3    H231406   3.110   3.821   0.324 -0.1079 -2.4778 -1.4497
 3331TIP3   OH231407   2.111   0.311   5.957  0.6954  0.3567 -0.0249
 3331TIP3    H131408   2.058   0.247   6.005  2.1504 -0.0304  1.1216
 3331TIP3    H231409   2.166   0.257   5.900  1.6325  0.5960  0.6398
 3332TIP3   OH231410   2.829   1.393   3.230  0.2282  0.3865  0.3768
 3332TIP3    H131411   2.824   1.390   3.325  2.2326  1.0514  0.5157
 3332TIP3    H231412   2.912   1.435   3.211 -1.6551  3.4326 -1.6515
 3333TIP3   OH231413   1.152   0.036  13.828  0.4313 -0.6368  0.3761
 3333TIP3    H131414   1.175  -0.005  13.744 -1.9516 -1.5790  0.1450
 3333TIP3    H231415   1.060   0.014  13.840 -0.2009  2.4816  1.5308
 3334TIP3   OH231416   2.699   1.819  12.372  0.0506  0.2330 -0.1672
 3334TIP3    H131417   2.698   1.732  12.411  0.0387  0.3051 -0.0036
 3334TIP3    H231418   2.654   1.809  12.288 -0.7266  0.2705  0.2499
 3335TIP3   OH231419   3.698   1.510   4.612 -0.0999  0.0360 -0.3464
 3335TIP3    H131420   3.697   1.421   4.646 -0.8813 -0.8019 -2.4444
 3335TIP3    H231421   3.627   1.554   4.658  0.0369 -0.5437  0.4240
 3336TIP3   OH231422   3.421   1.711   5.160  0.1793  0.8942 -0.0282
 3336TIP3    H131423   3.468   1.740   5.082 -1.1151  1.0972 -0.7532
 3336TIP3    H231424   3.430   1.615   5.160  0.0772  0.8861 -0.4894
 3337TIP3   OH231425   4.156   2.489   1.754  0.2956 -0.4265 -0.0602
 3337TIP3    H131426   4.183   2.531   1.673 -1.4746 -0.2628 -0.5690
 3337TIP3    H231427   4.189   2.547   1.823  1.5217 -0.4070 -0.6503
 3338TIP3   OH231428   2.041   4.147  12.461  0.2355 -0.0846  0.6483
 3338TIP3    H131429   2.075   4.226  12.418  0.3772 -1.0449 -1.0529
 3338TIP3    H231430   2.095   4.137  12.540  1.8198  0.1871 -0.3716
 3339TIP3   OH231431   0.139   1.792  14.875 -0.2319  0.0684  0.0157
 3339TIP3    H131432   0.062   1.746  14.908  0.5444 -2.5256 -1.5518
 3339TIP3    H231433   0.212   1.757  14.926  0.1265  1.2090  0.2994
 3340TIP3   OH231434   2.425   3.690   0.033  0.1528 -0.0486 -0.6950
 3340TIP3    H131435   2.426   3.618   0.098  0.3520 -0.4450 -1.1345
 3340TIP3    H231436   2.336   3.723   0.036  0.2020  0.0423 -0.0953
 3341TIP3   OH231437   3.330   6.595  16.391  0.0581  0.1188 -0.0976
 3341TIP3    H131438   3.409   6.646  16.371  0.6431  1.0758  4.2398
 3341TIP3    H231439   3.269   6.659  16.428 -1.1402 -1.4394  0.6730
 3342TIP3   OH231440   3.164   6.323   5.104 -0.2346 -0.2786  0.2739
 3342TIP3    H131441   3.082   6.275   5.093  0.3502 -1.0771 -0.6225
 3342TIP3    H231442   3.174   6.332   5.199 -1.1860 -0.4748  0.3941
 3343TIP3   OH231443   1.207   1.472   3.810  0.6136  0.3641  0.1454
 3343TIP3    H131444   1.195   1.530   3.886  0.4660 -2.2632  2.2098
 3343TIP3    H231445   1.276   1.411   3.838  0.2604 -0.8989 -1.6902
 3344TIP3   OH231446   2.251   2.632   1.221  0.6307  0.1164 -0.5594
 3344TIP3    H131447   2.228   2.724   1.235 -0.7216 -0.3245  0.1671
 3344TIP3    H231448   2.294   2.606   1.302 -0.8074 -0.4442  0.0428
 3345TIP3   OH231449   5.442   2.132   3.952  0.0017  0.2326  0.3849
 3345TIP3    H131450   5.358   2.087   3.948  0.2574 -0.2655  0.5856
 3345TIP3    H231451   5.501   2.070   3.995  1.5270 -1.0437 -3.3971
 3346TIP3   OH231452   1.485   5.699  12.392 -0.6932  0.0319 -0.0027
 3346TIP3    H131453   1.576   5.726  12.397  0.4823 -3.0921 -2.7716
 3346TIP3    H231454   1.437   5.780  12.373  1.5284  1.5964  0.8045
 3347TIP3   OH231455   5.823   0.972  11.444 -0.0330 -0.5005 -0.4123
 3347TIP3    H131456   5.754   0.966  11.378 -0.0956 -1.2628 -0.2815
 3347TIP3    H231457   5.877   0.895  11.429  0.6804 -0.0101 -0.3828
 3348TIP3   OH231458   1.660   1.534   4.116 -0.0823 -0.0032  0.0057
 3348TIP3    H131459   1.683   1.441   4.114 -1.0713 -0.2310 -0.8596
 3348TIP3    H231460   1.571   1.537   4.082  1.0001  1.5928 -2.8208
 3349TIP3   OH231461   5.047   2.709  13.386 -0.5284  0.1998  0.3541
 3349TIP3    H131462   5.110   2.640  13.404  0.8778  1.4361  0.2279
 3349TIP3    H231463   5.052   2.767  13.462 -1.8854  0.0441  0.5833
 3350TIP3   OH231464   6.049   0.452   3.920 -0.3860  0.1349 -0.4589
 3350TIP3    H131465   6.045   0.362   3.890  1.5739  0.0945 -0.6735
 3350TIP3    H231466   6.124   0.454   3.980 -2.1588  0.9639  1.7984
 3351TIP3   OH231467   0.438   6.177  16.536 -0.0032  0.3274  0.2262
 3351TIP3    H131468   0.353   6.199  16.500 -0.1079  0.8953  0.8000
 3351TIP3    H231469   0.500   6.231  16.486 -0.1103  0.8354  0.6340
 3352TIP3   OH231470   2.305   0.516   5.176 -0.4146  0.3789  0.5209
 3352TIP3    H131471   2.271   0.464   5.103  1.4088  0.4446 -0.4132
 3352TIP3    H231472   2.255   0.598   5.172 -0.6362  0.2135 -0.3827
 3353TIP3   OH231473   3.854   4.490   2.265  0.3841 -0.9691 -0.4534
 3353TIP3    H131474   3.856   4.522   2.174 -1.3940 -0.7821 -0.4560
 3353TIP3    H231475   3.889   4.402   2.260 -0.3233 -1.2112 -1.4494
 3354TIP3   OH231476   2.599   2.891   0.729  0.2311  0.2881 -0.4701
 3354TIP3    H131477   2.509   2.925   0.729  1.0172  2.4299 -0.6347
 3354TIP3    H231478   2.593   2.810   0.778 -2.0352 -0.2432 -1.5151
 3355TIP3   OH231479   5.652   5.265  13.314 -0.0108 -0.0989  0.1647
 3355TIP3    H131480   5.651   5.298  13.225 -0.2126  0.5372  0.4014
 3355TIP3    H231481   5.572   5.298  13.354  1.5141  2.1663  1.4756
 3356TIP3   OH231482   0.024   1.525   5.675  0.3801  0.4622  0.4222
 3356TIP3    H131483   0.074   1.559   5.601  0.8876  0.5308  0.7962
 3356TIP3    H231484   0.056   1.436   5.687 -1.5280 -0.4704 -1.0820
 3357TIP3   OH231485   3.532   1.593   0.735 -0.6691 -0.0416  0.3055
 3357TIP3    H131486   3.531   1.682   0.771 -1.6209  0.4199 -0.7960
 3357TIP3    H231487   3.615   1.587   0.687 -0.2118 -0.0445  1.0990
 3358TIP3   OH231488   1.637   4.928  15.153 -0.0985  0.1408 -0.6475
 3358TIP3    H131489   1.664   5.007  15.199 -2.0736  0.6835 -0.3653
 3358TIP3    H231490   1.550   4.950  15.118 -0.3907 -1.6900 -1.0900
 3359TIP3   OH231491   4.787   6.576   5.487 -0.1003  0.1400 -0.2795
 3359TIP3    H131492   4.700   6.611   5.503 -0.7087 -1.1820 -0.6439
 3359TIP3    H231493   4.830   6.578   5.573 -1.6532 -2.3252  0.6094
 3360TIP3   OH231494   4.956   1.170   6.011  0.6686  0.0348 -0.0731
 3360TIP3    H131495   4.943   1.076   6.020  0.4670 -0.0873 -1.6271
 3360TIP3    H231496   5.045   1.185   6.045  1.2059 -0.9021 -1.0624
 3361TIP3   OH231497   0.621   1.402   3.144 -0.0791  0.1481  0.2038
 3361TIP3    H131498   0.641   1.398   3.050  0.0153 -2.2760  0.2860
 3361TIP3    H231499   0.670   1.329   3.182  0.7073  1.7173  2.3294
 3362TIP3   OH231500   2.522   5.323  15.141 -0.2314  0.1250  0.1097
 3362TIP3    H131501   2.488   5.380  15.210 -0.8309  0.9379 -0.8434
 3362TIP3    H231502   2.617   5.323  15.155 -0.0972  2.3665 -0.6333
 3363TIP3   OH231503   0.365   4.172  14.987  0.4862  0.0503 -0.3816
 3363TIP3    H131504   0.285   4.125  15.009 -1.0574  1.9280 -1.7776
 3363TIP3    H231505   0.365   4.173  14.891  0.8313  2.2809 -0.3666
 3364TIP3   OH231506   2.483   4.171   3.568  0.0473 -0.1727 -0.5635
 3364TIP3    H131507   2.424   4.220   3.510 -0.4566 -1.3797 -1.0733
 3364TIP3    H231508   2.445   4.084   3.574  1.1941 -0.6490 -0.0145
 3365TIP3   OH231509   4.596   1.125  11.101  0.4163 -0.2990  0.1011
 3365TIP3    H131510   4.637   1.045  11.135 -0.0295  0.3456  2.2538
 3365TIP3    H231511   4.669   1.177  11.068  0.6862 -1.6740 -1.5660
 3366TIP3   OH231512   3.980   4.468  12.168 -0.0742 -0.2887 -0.4550
 3366TIP3    H131513   3.917   4.533  12.201 -0.9715 -0.4858 -1.7514
 3366TIP3    H231514   4.055   4.519  12.138  0.3948 -0.0494  1.0666
 3367TIP3   OH231515   0.297   5.738  12.920 -0.5192  0.1753 -0.5412
 3367TIP3    H131516   0.372   5.797  12.925 -0.2133 -0.0366 -2.3006
 3367TIP3    H231517   0.321   5.673  12.854 -0.3083 -2.7682  2.3279
 3368TIP3   OH231518   4.826   4.396   2.787 -0.1472 -0.7089  0.3799
 3368TIP3    H131519   4.913   4.361   2.766  0.6002  3.0531 -3.4227
 3368TIP3    H231520   4.767   4.348   2.730  0.2405  0.7461 -1.2772
 3369TIP3   OH231521   3.097   1.399  11.370  0.1573  0.2707  0.0471
 3369TIP3    H131522   3.014   1.424  11.329  0.5675  0.5464 -0.6287
 3369TIP3    H231523   3.077   1.393  11.463 -0.1636  2.3174  0.1404
 3370TIP3   OH231524   6.176   0.410  11.888 -0.4169  1.0334 -0.6915
 3370TIP3    H131525   6.252   0.457  11.921  0.4604 -0.5345 -0.3991
 3370TIP3    H231526   6.155   0.347  11.958 -1.5855  1.0163 -1.0416
 3371TIP3   OH231527   0.032   5.138  13.331 -0.2264 -0.4026 -0.4335
 3371TIP3    H131528  -0.001   5.224  13.302  1.0411 -0.0815 -0.9429
 3371TIP3    H231529   0.049   5.150  13.424 -0.9714 -0.3974 -0.2901
 3372TIP3   OH231530   4.396   5.268  15.986 -0.5341  0.5325 -0.6168
 3372TIP3    H131531   4.428   5.186  16.023  1.7749  1.2449 -0.9706
 3372TIP3    H231532   4.303   5.269  16.007 -0.0459 -0.8952  1.7582
 3373TIP3   OH231533   6.367   4.173   0.834 -0.2558 -0.7966 -0.4564
 3373TIP3    H131534   6.422   4.121   0.892 -0.1902  0.1189  0.3037
 3373TIP3    H231535   6.422   4.247   0.808 -0.7885 -0.4179 -0.5073
 3374TIP3   OH231536   2.019   1.433  12.285 -0.0958  0.6125 -0.1111
 3374TIP3    H131537   1.964   1.511  12.275 -0.6871  0.0878 -0.9961
 3374TIP3    H231538   2.018   1.415  12.379  0.9368  2.3086  0.2464
 3375TIP3   OH231539   0.182   2.922   5.772  0.3111  0.6292  0.0726
 3375TIP3    H131540   0.213   2.956   5.856 -1.1151  0.5192  0.6664
 3375TIP3    H231541   0.152   2.999   5.724 -0.5909  0.4959  0.4123
 3376TIP3   OH231542   6.478   2.835   0.724  0.2660 -0.2076 -0.0552
 3376TIP3    H131543   6.444   2.748   0.703 -1.1915  0.6445 -1.3864
 3376TIP3    H231544   6.456   2.848   0.816 -1.4371 -0.4379 -0.3948
 3377TIP3   OH231545   4.371   3.814  14.160  0.5392 -0.4504 -0.9694
 3377TIP3    H131546   4.354   3.906  14.142 -1.2727 -0.5754 -0.0016
 3377TIP3    H231547   4.374   3.773  14.073 -0.6182  0.2094 -1.3367
 3378TIP3   OH231548   6.332   4.111   6.116  0.1309  0.6370 -0.0896
 3378TIP3    H131549   6.387   4.065   6.179 -2.5052 -1.7231  0.5948
 3378TIP3    H231550   6.290   4.181   6.167 -0.2412  0.1939  0.2067
 3379TIP3   OH231551   5.874   3.660   5.142 -0.3413  0.4515  0.3765
 3379TIP3    H131552   5.840   3.577   5.177  0.5075 -0.5225 -1.0370
 3379TIP3    H231553   5.806   3.691   5.083  0.7410 -1.0051 -1.7089
 3380TIP3   OH231554   3.693   1.583  13.796 -0.0057  0.0860  1.0307
 3380TIP3    H131555   3.701   1.678  13.781 -0.7177 -0.0290 -0.1828
 3380TIP3    H231556   3.635   1.553  13.726  0.6423 -1.3466  1.1026
 3381TIP3   OH231557   4.558   5.305   5.389 -0.0828  0.6426  0.2036
 3381TIP3    H131558   4.496   5.335   5.456 -0.8441 -4.0733  1.7699
 3381TIP3    H231559   4.642   5.298   5.434 -0.4598 -1.9193  0.5704
 3382TIP3   OH231560   0.192   6.566  12.725  0.0980 -0.2403  0.1799
 3382TIP3    H131561   0.119   6.536  12.779 -0.1717 -0.5231 -0.3399
 3382TIP3    H231562   0.216   6.489  12.673 -0.6853  0.4793 -1.2521
 3383TIP3   OH231563   2.414   1.630   4.347 -0.0208  0.1386 -0.4138
 3383TIP3    H131564   2.328   1.644   4.307  0.8102  1.9148 -1.6452
 3383TIP3    H231565   2.416   1.691   4.421 -0.8217 -1.8063  1.2689
 3384TIP3   OH231566   2.217   3.218   1.671 -0.0016  0.5226  0.4929
 3384TIP3    H131567   2.270   3.217   1.592  1.1161 -1.9416  1.2145
 3384TIP3    H231568   2.270   3.171   1.736 -1.8370  0.5422  2.0568
 3385TIP3   OH231569   0.484   6.383  15.617 -0.1291 -0.3169  0.2639
 3385TIP3    H131570   0.497   6.453  15.681 -1.2127  0.9187 -0.8306
 3385TIP3    H231571   0.463   6.306  15.670  0.7512  0.2563  1.4670
 3386TIP3   OH231572   2.979   5.726  15.727 -0.6765 -0.0377  0.4406
 3386TIP3    H131573   3.009   5.816  15.712 -0.8660 -0.3627 -2.2423
 3386TIP3    H231574   3.050   5.684  15.774  0.2714  0.9821 -0.0595
 3387TIP3   OH231575   0.988   1.229  15.321  0.7447 -0.6083  0.0837
 3387TIP3    H131576   0.951   1.202  15.237  0.5439 -1.7921  0.5407
 3387TIP3    H231577   1.073   1.269  15.299  0.9716 -1.4773 -0.6192
 3388TIP3   OH231578   1.753   2.194   3.452 -0.4966  0.1157  0.2434
 3388TIP3    H131579   1.785   2.138   3.382  1.9373  2.0353 -0.2353
 3388TIP3    H231580   1.775   2.148   3.533 -0.1273 -0.4334 -0.1745
 3389TIP3   OH231581   6.302   4.792  16.508 -0.0555 -0.4113 -0.5672
 3389TIP3    H131582   6.254   4.759  16.432 -0.3196 -0.3880 -0.4111
 3389TIP3    H231583   6.251   4.868  16.537  1.3065  1.0132 -1.7958
 3390TIP3   OH231584   3.330   1.141  15.594 -0.1115  0.0283 -0.2029
 3390TIP3    H131585   3.347   1.121  15.686 -0.9905  1.6797  0.3261
 3390TIP3    H231586   3.298   1.058  15.558 -0.9662 -0.3240  1.2855
 3391TIP3   OH231587   0.258   6.778   2.101  0.5956 -0.0777  0.2978
 3391TIP3    H131588   0.193   6.717   2.135  0.5910  0.1203  0.6463
 3391TIP3    H231589   0.306   6.807   2.178  0.0666  0.9806  0.2302
 3392TIP3   OH231590   4.371   2.957  10.875 -0.4090 -0.0569  0.2912
 3392TIP3    H131591   4.301   2.988  10.817  0.4084  0.7005 -0.2849
 3392TIP3    H231592   4.395   3.033  10.927 -0.5687 -0.5273  1.0651
 3393TIP3   OH231593   3.146   6.433   3.196 -0.1526 -0.0914 -0.1696
 3393TIP3    H131594   3.074   6.496   3.193  0.7975  1.0919  1.4670
 3393TIP3    H231595   3.225   6.487   3.191  0.6499 -1.3128 -0.9583
 3394TIP3   OH231596   0.111   0.210  14.237  0.3941  0.3923  0.8411
 3394TIP3    H131597   0.037   0.247  14.188  0.4724 -1.1296 -0.4585
 3394TIP3    H231598   0.154   0.286  14.275  1.4020  1.8780 -2.9709
 3395TIP3   OH231599   3.278   3.544   2.610  0.1405  0.3714 -0.5283
 3395TIP3    H131600   3.225   3.601   2.666  2.4506  1.5761  0.4972
 3395TIP3    H231601   3.241   3.556   2.522 -2.4925 -0.3118  0.4213
 3396TIP3   OH231602   0.310   3.808  14.887 -0.2568  0.1927 -0.5692
 3396TIP3    H131603   0.310   3.775  14.798 -1.2155 -1.4643  0.0278
 3396TIP3    H231604   0.403   3.824  14.907 -0.1318  1.5764 -2.1995
 3397TIP3   OH231605   1.236   2.070   2.960  0.3908  0.4663  0.0886
 3397TIP3    H131606   1.199   2.158   2.964  2.6112  1.4687 -0.6048
 3397TIP3    H231607   1.164   2.013   2.987 -1.8372  2.2680 -1.7244
 3398TIP3   OH231608   0.598   0.602  11.188 -0.4616  0.1951 -0.3340
 3398TIP3    H131609   0.511   0.563  11.183 -0.0259 -0.9900  0.9628
 3398TIP3    H231610   0.594   0.662  11.262 -0.5809  1.2239 -1.1624
 3399TIP3   OH231611   4.981   0.241  15.675  0.0971 -0.4799 -1.0980
 3399TIP3    H131612   4.982   0.316  15.734  2.0453 -1.5569  0.2841
 3399TIP3    H231613   5.034   0.269  15.600 -1.2066  0.3802 -1.7116
 3400TIP3   OH231614   2.768   6.437   3.020  0.3280 -0.0108  0.0789
 3400TIP3    H131615   2.773   6.526   3.053  2.0024 -0.2132  0.4370
 3400TIP3    H231616   2.839   6.431   2.956  1.3537 -1.5764  1.3069
 3401TIP3   OH231617   2.971   2.186   5.636 -0.1312 -0.7109 -0.0273
 3401TIP3    H131618   2.897   2.187   5.576 -0.3819  1.2316  0.2812
 3401TIP3    H231619   2.937   2.147   5.717 -0.3858 -1.2203 -0.3749
 3402TIP3   OH231620   5.230   4.271   1.331  0.0871  0.0797 -0.3454
 3402TIP3    H131621   5.311   4.302   1.371 -0.9491 -0.1797  2.0541
 3402TIP3    H231622   5.217   4.183   1.368 -1.0793 -0.0393 -0.9954
 3403TIP3   OH231623   6.669   5.137  14.044  0.4008 -1.0722  0.4464
 3403TIP3    H131624   6.614   5.167  13.972  0.3488  3.5497  2.2587
 3403TIP3    H231625   6.758   5.139  14.010  0.2070 -0.7466 -0.0298
 3404TIP3   OH231626   4.669   6.141   3.912 -0.2174 -0.0292  0.7983
 3404TIP3    H131627   4.760   6.145   3.942  0.1693 -0.6769 -0.2452
 3404TIP3    H231628   4.676   6.127   3.818 -1.3855 -1.7730  0.9500
 3405TIP3   OH231629   0.649   5.473  12.378 -0.1228 -0.0677  0.0424
 3405TIP3    H131630   0.706   5.527  12.322  0.7077 -0.7915  0.1705
 3405TIP3    H231631   0.692   5.475  12.463 -0.5497 -0.2238  0.2593
 3406TIP3   OH231632   2.257   5.626  13.177  0.2442 -0.2760 -0.1425
 3406TIP3    H131633   2.169   5.588  13.177 -0.5451  1.5043  1.2599
 3406TIP3    H231634   2.313   5.556  13.143 -1.5277 -1.8305  0.0503
 3407TIP3   OH231635   1.725   1.112  16.445 -0.3088 -0.6274 -0.2028
 3407TIP3    H131636   1.792   1.061  16.491 -0.7254  0.4114  1.6095
 3407TIP3    H231637   1.648   1.106  16.501 -1.3921 -0.8321 -1.6873
 3408TIP3   OH231638   5.092   3.979   3.811  0.4914 -0.2387  0.3791
 3408TIP3    H131639   5.123   3.889   3.805  0.8409 -0.1999  1.4389
 3408TIP3    H231640   5.014   3.974   3.867 -0.2951 -0.0692 -0.6888
 3409TIP3   OH231641   2.316   5.244  14.333 -0.1148 -0.3674 -0.5053
 3409TIP3    H131642   2.285   5.298  14.406 -0.4529  0.0488 -0.9533
 3409TIP3    H231643   2.252   5.173  14.327 -0.8240  0.3430 -1.2594
 3410TIP3   OH231644   1.690   5.944  15.052 -0.1880 -0.3307 -0.3256
 3410TIP3    H131645   1.691   6.040  15.058  0.2092 -0.3292 -0.3884
 3410TIP3    H231646   1.597   5.921  15.045 -0.1854  0.1846 -2.3803
 3411TIP3   OH231647   3.472   1.511   1.023  0.1178 -0.1492  0.6020
 3411TIP3    H131648   3.512   1.567   0.957 -0.8661  1.0123  0.9811
 3411TIP3    H231649   3.459   1.568   1.099 -4.2598  0.1441 -0.2320
 3412TIP3   OH231650   1.551   0.861   0.821  0.3976 -0.3218 -0.0076
 3412TIP3    H131651   1.576   0.850   0.913  2.2156  0.6725 -0.3721
 3412TIP3    H231652   1.529   0.953   0.813 -1.3767 -0.7374 -0.2096
 3413TIP3   OH231653   2.051   3.688   2.645 -0.5844 -0.0595 -0.5663
 3413TIP3    H131654   1.990   3.679   2.573 -0.9327 -1.1922 -0.1395
 3413TIP3    H231655   1.996   3.689   2.724 -0.2440  1.5378 -0.3104
 3414TIP3   OH231656   6.233   1.971  11.354  0.3860  0.3681 -0.1740
 3414TIP3    H131657   6.213   2.022  11.432  1.8415  1.2191 -0.3264
 3414TIP3    H231658   6.234   1.880  11.384 -1.9393  0.4466  0.1591
 3415TIP3   OH231659   2.205   1.572  15.804  0.4244 -0.0780  0.4823
 3415TIP3    H131660   2.186   1.531  15.888 -0.8457  0.8190  0.6579
 3415TIP3    H231661   2.182   1.505  15.739 -0.6332 -0.0356  0.7993
 3416TIP3   OH231662   4.561   1.600   1.162 -0.1468 -0.9279 -0.4023
 3416TIP3    H131663   4.625   1.559   1.105  1.4010  0.1528  0.5268
 3416TIP3    H231664   4.560   1.692   1.135  0.6254 -0.3921  1.3174
 3417TIP3   OH231665   0.702   5.087  14.616 -0.3246  0.2013  0.0256
 3417TIP3    H131666   0.777   5.070  14.673 -0.9620  0.5488  0.9684
 3417TIP3    H231667   0.641   5.137  14.670 -1.6074 -0.8040 -0.4667
 3418TIP3   OH231668   5.758   6.242  11.903 -0.2762  0.6924 -0.0086
 3418TIP3    H131669   5.834   6.252  11.961 -0.3590 -0.3495  0.2917
 3418TIP3    H231670   5.683   6.245  11.962 -0.3889  0.1840 -0.1269
 3419TIP3   OH231671   6.627   3.878   1.217  0.0155  0.2605 -0.0549
 3419TIP3    H131672   6.645   3.811   1.283  2.4127  1.5382  0.6184
 3419TIP3    H231673   6.540   3.910   1.240  0.6817  0.4718  2.3188
 3420TIP3   OH231674   5.790   1.507   2.729  0.5343 -0.4056  0.2807
 3420TIP3    H131675   5.867   1.501   2.673  0.1888  0.7804 -0.3242
 3420TIP3    H231676   5.813   1.571   2.796 -0.3309  0.8065 -0.5646
 3421TIP3   OH231677   1.292   4.341  12.050  0.1077 -0.1345  0.8626
 3421TIP3    H131678   1.213   4.374  12.092  0.0591  1.5188 -0.4414
 3421TIP3    H231679   1.339   4.420  12.021  0.6776 -1.1620 -1.1509
 3422TIP3   OH231680   2.304   2.934   3.962  0.0327  0.0165  0.0034
 3422TIP3    H131681   2.228   2.888   3.999  0.2324 -0.1467  0.2113
 3422TIP3    H231682   2.373   2.867   3.958  1.0056  0.8409  2.3687
 3423TIP3   OH231683   2.685   6.346  16.096 -0.1454  0.1496  0.5865
 3423TIP3    H131684   2.759   6.335  16.155  0.6221  1.8664 -0.0341
 3423TIP3    H231685   2.663   6.439  16.102 -0.2769  0.2813 -1.5409
 3424TIP3   OH231686   3.663   2.044   0.845  0.2047 -0.1047 -0.0314
 3424TIP3    H131687   3.757   2.044   0.826  0.0560  1.8329 -0.7641
 3424TIP3    H231688   3.656   2.086   0.931  0.0855 -1.2678  0.5480
 3425TIP3   OH231689   0.448   1.440   0.618  0.9254  0.0436 -0.6979
 3425TIP3    H131690   0.522   1.444   0.557  0.5959 -2.5913 -1.3296
 3425TIP3    H231691   0.384   1.385   0.573 -0.2816  0.0045  1.0378
 3426TIP3   OH231692   5.381   6.761  12.524  0.2119  0.3736  0.4035
 3426TIP3    H131693   5.384   6.748  12.429 -1.1542 -0.8638  0.5069
 3426TIP3    H231694   5.332   6.843  12.534 -0.7335 -0.1329  0.0599
 3427TIP3   OH231695   6.317   4.990  15.624  0.7277  0.4766  0.7356
 3427TIP3    H131696   6.329   5.018  15.715 -0.8481  5.2028 -0.3531
 3427TIP3    H231697   6.224   4.968  15.618  0.8600  0.0360  0.2802
 3428TIP3   OH231698   1.588   0.283   3.452 -0.2075 -0.9498  0.0372
 3428TIP3    H131699   1.585   0.335   3.533  0.9355 -1.3549  0.3609
 3428TIP3    H231700   1.500   0.246   3.444 -0.9599  0.7773 -0.0458
 3429TIP3   OH231701   5.565   3.499   1.761 -0.5660  0.3474 -0.1508
 3429TIP3    H131702   5.538   3.479   1.671  2.7636  2.6022 -1.7516
 3429TIP3    H231703   5.520   3.582   1.781  0.3413  0.9384 -0.5404
 3430TIP3   OH231704   3.766   1.645  14.717  0.7549 -0.6741 -0.0134
 3430TIP3    H131705   3.740   1.560  14.752  1.8715 -0.3865  1.5868
 3430TIP3    H231706   3.861   1.638  14.703  0.6647 -0.0777 -0.9777
 3431TIP3   OH231707   3.998   2.980  11.095 -0.2002 -0.6905 -0.8241
 3431TIP3    H131708   3.921   2.994  11.150 -0.3954 -0.4772 -1.1476
 3431TIP3    H231709   3.970   3.009  11.008  0.8855  1.3360 -0.5345
 3432TIP3   OH231710   1.945   5.750  13.923 -0.3219  0.1469 -0.2224
 3432TIP3    H131711   1.946   5.669  13.872  1.6693  0.3038 -0.4717
 3432TIP3    H231712   1.920   5.722  14.011 -1.0030 -0.5388 -0.6265
 3433TIP3   OH231713   2.532   0.520   4.051 -0.2638 -0.2500  0.3428
 3433TIP3    H131714   2.441   0.508   4.022 -0.1866  1.5687 -0.7050
 3433TIP3    H231715   2.543   0.614   4.057  1.8032 -0.4324 -0.2768
 3434TIP3   OH231716   6.253   1.485   4.138  0.1824  0.2482 -0.8640
 3434TIP3    H131717   6.190   1.504   4.069 -0.7561 -2.0675 -0.6933
 3434TIP3    H231718   6.203   1.489   4.219  1.2682  2.8920 -0.2689
 3435TIP3   OH231719   0.657   1.475  11.088 -0.4548  0.3281 -0.1486
 3435TIP3    H131720   0.704   1.393  11.106 -1.6432 -0.2131  0.5529
 3435TIP3    H231721   0.714   1.522  11.027  1.0530 -0.2649  0.7500
 3436TIP3   OH231722   5.206   5.470  15.875 -0.0140  0.3693 -0.1778
 3436TIP3    H131723   5.202   5.380  15.845 -0.2288  0.7140 -1.1865
 3436TIP3    H231724   5.262   5.467  15.953 -1.6167 -0.9325  0.9284
 3437TIP3   OH231725   4.011   3.499   0.779 -0.2653 -0.0752  0.1587
 3437TIP3    H131726   4.012   3.542   0.693  0.0524  0.4104  0.4020
 3437TIP3    H231727   4.098   3.515   0.815  0.1059 -1.5671 -0.0414
 3438TIP3   OH231728   4.977   6.325   5.555  0.6640  0.3834 -0.4043
 3438TIP3    H131729   4.969   6.409   5.601  1.3805  0.0365  0.3877
 3438TIP3    H231730   5.015   6.347   5.470 -0.8238  1.0539 -0.9040
 3439TIP3   OH231731   0.402   3.753  16.515 -0.3982 -0.4105 -0.1212
 3439TIP3    H131732   0.448   3.836  16.507  0.2683 -0.7633  0.0818
 3439TIP3    H231733   0.403   3.716  16.427 -0.7585 -0.1695 -0.2262
 3440TIP3   OH231734   0.483   0.665  14.951 -0.8620  1.6025 -0.2904
 3440TIP3    H131735   0.481   0.627  15.038  1.8488 -1.0229 -1.2969
 3440TIP3    H231736   0.482   0.760  14.965  2.6330  1.2579  2.7106
 3441TIP3   OH231737   0.053   5.888   5.031  0.3979 -0.0089 -0.6238
 3441TIP3    H131738   0.134   5.840   5.019  0.5658 -0.2489  1.3030
 3441TIP3    H231739  -0.002   5.863   4.957  1.5771 -0.8833 -1.2060
 3442TIP3   OH231740   4.668   6.658   2.360  0.2667 -0.7315 -0.3829
 3442TIP3    H131741   4.620   6.724   2.310  0.8043 -0.7260 -0.8928
 3442TIP3    H231742   4.738   6.629   2.302  2.5524  1.2114  1.3162
 3443TIP3   OH231743   1.678   5.222  11.774 -0.7548 -0.2916  1.0774
 3443TIP3    H131744   1.627   5.160  11.721 -0.4181  0.6714 -0.4074
 3443TIP3    H231745   1.625   5.236  11.852 -2.0448 -0.5295  0.2646
 3444TIP3   OH231746   4.416   3.664   0.177  0.8289  0.8862 -0.2804
 3444TIP3    H131747   4.410   3.719   0.098  1.8247 -0.9480 -1.6780
 3444TIP3    H231748   4.477   3.595   0.152  0.6049 -0.1119  1.9046
 3445TIP3   OH231749   3.553   0.961   3.588 -0.0621 -0.1746 -0.0810
 3445TIP3    H131750   3.500   1.017   3.644 -1.9241 -1.6863 -0.2609
 3445TIP3    H231751   3.640   0.999   3.590 -0.7984  1.4634  1.4940
 3446TIP3   OH231752   2.775   2.925   1.180 -0.4172 -0.2341  0.0362
 3446TIP3    H131753   2.833   2.861   1.220 -0.9428  1.1707  3.1857
 3446TIP3    H231754   2.706   2.872   1.138  0.8739 -1.7752 -0.1759
 3447TIP3   OH231755   2.190   1.513  12.053 -0.5216 -0.2113  0.2121
 3447TIP3    H131756   2.125   1.531  12.120 -0.0620 -0.7839  0.8178
 3447TIP3    H231757   2.229   1.429  12.079 -0.9460 -0.8821 -1.2290
 3448TIP3   OH231758   4.145   5.450  12.470  0.2827 -0.1618  0.3899
 3448TIP3    H131759   4.103   5.537  12.471  0.3792 -0.0904  2.6239
 3448TIP3    H231760   4.091   5.398  12.529  1.5607 -0.9536  0.8682
 3449TIP3   OH231761   6.491   4.805  11.011 -0.0167  0.1711 -0.4526
 3449TIP3    H131762   6.432   4.848  10.949 -1.3368  1.0371  1.3487
 3449TIP3    H231763   6.487   4.859  11.090  0.5544 -1.6469  0.8646
 3450TIP3   OH231764   0.003   1.383   1.882 -0.0168 -0.2235 -0.4678
 3450TIP3    H131765  -0.038   1.366   1.966  0.2836  0.7678 -0.1116
 3450TIP3    H231766  -0.059   1.440   1.836 -0.2477 -0.8809 -0.9803
 3451TIP3   OH231767   2.069   6.428  16.472 -0.2134  0.3446 -0.0927
 3451TIP3    H131768   2.054   6.384  16.556  1.5142  2.1438  1.2125
 3451TIP3    H231769   2.163   6.416  16.456 -0.4136  0.5626 -1.4664
 3452TIP3   OH231770   3.277   4.567  15.374  0.6383  0.5548  0.0243
 3452TIP3    H131771   3.261   4.488  15.427 -0.4332  0.6771 -0.1034
 3452TIP3    H231772   3.204   4.569  15.313  1.4001  0.9160 -0.8752
 3453TIP3   OH231773   3.915   3.368   4.330 -0.0216 -0.3584  0.1058
 3453TIP3    H131774   3.897   3.427   4.256 -1.2061  0.5002  1.0673
 3453TIP3    H231775   3.829   3.347   4.366  0.5367 -0.9619  1.1121
 3454TIP3   OH231776   5.082   2.092   5.149 -0.0447 -0.3587 -0.2922
 3454TIP3    H131777   5.032   2.166   5.114  0.0704 -0.7736 -1.3712
 3454TIP3    H231778   5.016   2.036   5.189 -0.4956 -0.9728 -1.8361
 3455TIP3   OH231779   2.851   1.343  13.459  0.1776 -1.0085 -0.1852
 3455TIP3    H131780   2.875   1.265  13.510  0.4116 -0.4757  0.5239
 3455TIP3    H231781   2.756   1.345  13.461  0.2075 -0.2030  1.4503
 3456TIP3   OH231782   0.927   4.912   0.452 -0.0675 -0.5508  0.0214
 3456TIP3    H131783   0.994   4.919   0.384 -0.6757 -1.3945 -0.6806
 3456TIP3    H231784   0.936   4.822   0.484 -1.7233 -1.1206 -1.0154
 3457TIP3   OH231785   5.583   3.125   3.503 -0.0935  0.0378  0.2848
 3457TIP3    H131786   5.535   3.202   3.472  1.9694  1.5226  0.6241
 3457TIP3    H231787   5.588   3.137   3.598  0.7056 -0.2101  0.2806
 3458TIP3   OH231788   3.920   5.102   3.551  0.1674  0.1418 -0.7074
 3458TIP3    H131789   3.902   5.143   3.635  1.4512 -1.3992  0.3407
 3458TIP3    H231790   3.858   5.143   3.490 -0.5110  1.5284  0.8998
 3459TIP3   OH231791   4.825   5.770  15.144 -0.0019  0.3545 -0.5021
 3459TIP3    H131792   4.741   5.732  15.170 -0.5957  1.1480 -1.2157
 3459TIP3    H231793   4.807   5.864  15.137  0.8574  0.4820 -1.0254
 3460TIP3   OH231794   4.410   6.595   4.666  0.2498 -0.1562  0.1979
 3460TIP3    H131795   4.488   6.571   4.716  0.0181  0.4162  0.8361
 3460TIP3    H231796   4.401   6.525   4.601  0.5082 -0.9461  1.0009
 3461TIP3   OH231797   6.767   5.304   1.398  0.1726  0.2952  0.1874
 3461TIP3    H131798   6.741   5.300   1.306 -0.5573 -1.4377  0.4425
 3461TIP3    H231799   6.855   5.342   1.397  0.2880  0.0139 -1.2506
 3462TIP3   OH231800   0.965   0.334   5.608 -0.3556  0.3140 -0.3982
 3462TIP3    H131801   1.049   0.294   5.635 -0.1958  1.1396  0.3771
 3462TIP3    H231802   0.951   0.403   5.673 -1.0126  1.0049 -1.2785
 3463TIP3   OH231803   5.428   0.482  15.378  0.8359 -0.5042 -0.7530
 3463TIP3    H131804   5.350   0.535  15.393  0.5348 -1.4879  1.3336
 3463TIP3    H231805   5.490   0.541  15.335 -0.4107  0.7965 -0.7795
 3464TIP3   OH231806   2.041   5.122  13.297  0.3093  0.2000  0.0625
 3464TIP3    H131807   2.072   5.204  13.334  0.2162 -0.1960  1.0244
 3464TIP3    H231808   2.102   5.103  13.226  0.1542  1.2515 -0.3620
 3465TIP3   OH231809   4.898   4.798   1.683  0.4118 -0.3910 -0.0311
 3465TIP3    H131810   4.967   4.799   1.750  0.8547  2.4191 -0.4566
 3465TIP3    H231811   4.944   4.780   1.601  1.0590  3.6416 -0.6449
 3466TIP3   OH231812   0.485   0.137   3.173  0.2098 -0.2859 -0.0348
 3466TIP3    H131813   0.393   0.117   3.161  0.3826 -1.3294  0.3154
 3466TIP3    H231814   0.528   0.101   3.096  0.3796 -0.2357  0.0360
 3467TIP3   OH231815   2.553   3.231   4.763 -0.9269  0.3909 -0.2824
 3467TIP3    H131816   2.541   3.243   4.669 -1.6764  2.4403  0.0394
 3467TIP3    H231817   2.636   3.274   4.782  0.6217 -2.4342 -0.4146
 3468TIP3   OH231818   5.041   2.195  15.991 -0.5854 -0.5255 -0.3096
 3468TIP3    H131819   5.109   2.193  15.923  1.1736 -0.6697  1.3905
 3468TIP3    H231820   5.078   2.252  16.059 -1.7523 -1.4092  1.0878
 3469TIP3   OH231821   1.004   2.362   4.323  0.5258  0.0250 -0.1109
 3469TIP3    H131822   0.919   2.359   4.279 -0.2342 -0.1404  1.3349
 3469TIP3    H231823   1.037   2.272   4.316  1.7423  0.6610 -2.8693
 3470TIP3   OH231824   0.016   4.751  16.014  0.5451  0.1843 -0.5314
 3470TIP3    H131825   0.050   4.777  15.928  0.0814  1.7167 -0.2717
 3470TIP3    H231826  -0.044   4.822  16.038  0.8737 -0.0910  1.1690
 3471TIP3   OH231827   1.778   2.649  14.015 -0.2818 -0.0570  0.5991
 3471TIP3    H131828   1.692   2.623  13.981  0.6442 -0.6960 -1.3672
 3471TIP3    H231829   1.785   2.742  13.994  0.2062 -0.4037 -0.8811
 3472TIP3   OH231830   0.917   5.362  15.558 -0.2895 -0.0974 -0.3255
 3472TIP3    H131831   0.861   5.356  15.635 -1.8586 -0.1865 -1.4280
 3472TIP3    H231832   0.984   5.426  15.581 -1.0853  0.3175  0.8954
 3473TIP3   OH231833   4.218   5.696   0.471  0.1114  0.0334 -0.3655
 3473TIP3    H131834   4.216   5.640   0.548 -0.4983  0.2079 -0.2534
 3473TIP3    H231835   4.172   5.776   0.497  1.3473  0.7716 -0.3878
 3474TIP3   OH231836   2.680   2.491  11.776  0.3383 -0.2076 -0.9120
 3474TIP3    H131837   2.664   2.542  11.696  1.5800  2.0497  0.2329
 3474TIP3    H231838   2.592   2.472  11.810 -0.1562  0.3628 -1.8495
 3475TIP3   OH231839   0.950   3.213   3.366  0.2821  0.3833 -0.4379
 3475TIP3    H131840   1.036   3.223   3.324  0.2917  0.6281 -0.3608
 3475TIP3    H231841   0.958   3.134   3.419  0.4341  0.3594 -0.4965
 3476TIP3   OH231842   3.809   3.470   0.101 -0.2277 -0.2651 -0.0065
 3476TIP3    H131843   3.828   3.476   0.195  0.5545 -0.2805 -0.1634
 3476TIP3    H231844   3.731   3.525   0.089 -1.0279 -1.1699  0.8413
 3477TIP3   OH231845   6.499   3.644  13.688 -0.0551 -0.2690 -0.3336
 3477TIP3    H131846   6.587   3.621  13.719 -0.0530 -1.0167 -0.8792
 3477TIP3    H231847   6.443   3.634  13.765  0.1536 -0.8986 -0.2599
 3478TIP3   OH231848   1.559   4.148  12.023 -0.4181  0.2232  0.0207
 3478TIP3    H131849   1.484   4.172  12.077 -1.8308 -1.0468 -1.3148
 3478TIP3    H231850   1.578   4.057  12.047  0.3578  0.3750 -0.0154
 3479TIP3   OH231851   4.247   3.001   4.246  0.9792  0.2548  0.3868
 3479TIP3    H131852   4.275   2.933   4.185 -1.6634 -0.3837 -0.1872
 3479TIP3    H231853   4.329   3.039   4.280  2.4918  0.0991 -2.9443
 3480TIP3   OH231854   2.582   0.917   3.525 -0.2599  0.0486  0.0299
 3480TIP3    H131855   2.571   0.931   3.431 -0.7262 -2.7606 -0.3776
 3480TIP3    H231856   2.522   0.845   3.546  1.3626 -0.7732  2.0503
 3481TIP3   OH231857   2.153   5.048   2.705  0.2133 -1.0030  0.0617
 3481TIP3    H131858   2.232   5.078   2.751 -0.5585 -1.6673  1.8736
 3481TIP3    H231859   2.187   5.002   2.628  1.4960  1.1313 -0.6742
 3482TIP3   OH231860   4.018   2.770  12.296  0.3395  0.5507 -0.2213
 3482TIP3    H131861   3.965   2.734  12.367  0.0342  0.0152 -0.7168
 3482TIP3    H231862   4.001   2.712  12.222  1.1890  0.7102 -0.5391
 3483TIP3   OH231863   2.849   6.069   4.888  0.3620  0.2155  0.1291
 3483TIP3    H131864   2.850   5.974   4.899 -1.2274  0.2458  0.6321
 3483TIP3    H231865   2.890   6.083   4.803 -2.5003 -1.1916 -1.5827
 3484TIP3   OH231866   0.538   0.476   5.165  1.0361  0.0239 -0.5107
 3484TIP3    H131867   0.561   0.540   5.097  0.2259  1.2581  0.3608
 3484TIP3    H231868   0.611   0.481   5.227  0.1811  1.3267  0.4091
 3485TIP3   OH231869   6.050   4.517   3.446 -0.6658 -0.1960  0.0817
 3485TIP3    H131870   6.117   4.527   3.514 -0.4413 -0.0979 -0.1512
 3485TIP3    H231871   5.975   4.567   3.478 -1.2782 -1.7589  1.1816
 3486TIP3   OH231872   2.192   1.849  10.967 -0.1119  0.0543 -0.2837
 3486TIP3    H131873   2.107   1.815  10.996 -0.8981  1.8953 -0.4024
 3486TIP3    H231874   2.211   1.800  10.887 -1.0094 -0.4393 -0.2065
 3487TIP3   OH231875   5.466   4.994  17.058 -0.1131  0.3377  0.5566
 3487TIP3    H131876   5.428   4.915  17.021  1.6103 -0.3390  0.1890
 3487TIP3    H231877   5.442   5.063  16.996  1.1591 -0.4735 -0.8786
 3488TIP3   OH231878   6.355   6.538   0.525  0.0097  0.3497 -0.2183
 3488TIP3    H131879   6.413   6.576   0.592  1.9613  2.7554 -3.1125
 3488TIP3    H231880   6.310   6.614   0.487 -1.5178 -1.0347 -1.2326
 3489TIP3   OH231881   0.595   2.700  14.219  0.4201  0.4807 -0.0555
 3489TIP3    H131882   0.563   2.614  14.243 -0.0383  0.8345  0.5947
 3489TIP3    H231883   0.690   2.694  14.227  0.3916  0.0128 -0.0975
 3490TIP3   OH231884   1.996   4.998  12.626 -0.0771 -0.7418 -0.3708
 3490TIP3    H131885   1.909   5.007  12.665 -0.5008 -0.4277 -1.3653
 3490TIP3    H231886   1.985   4.929  12.560  0.1487  0.0852 -1.2746
 3491TIP3   OH231887   6.097   1.992   2.310 -0.0065  0.1033  0.7202
 3491TIP3    H131888   6.009   1.988   2.272  0.5130  0.0814 -0.4798
 3491TIP3    H231889   6.083   2.026   2.398 -1.0976  1.1461  0.1557
 3492TIP3   OH231890   1.540   4.111  15.709 -0.3864 -0.1780  0.5840
 3492TIP3    H131891   1.603   4.148  15.647 -0.6356 -2.7372 -1.2974
 3492TIP3    H231892   1.592   4.056  15.767 -0.4301  0.5745  1.3463
 3493TIP3   OH231893   1.431   1.651  14.736 -0.3642  0.3149  0.0094
 3493TIP3    H131894   1.394   1.593  14.669 -1.2014  0.0332  0.7089
 3493TIP3    H231895   1.454   1.592  14.808  0.2977  0.6482  0.0728
 3494TIP3   OH231896   6.751   2.552   1.653  0.4683  0.8386  0.0722
 3494TIP3    H131897   6.806   2.602   1.715 -0.1104 -0.3952  1.6176
 3494TIP3    H231898   6.774   2.588   1.567  1.5652  2.3480  0.9564
 3495TIP3   OH231899   3.485   4.326  13.865  0.1363  0.2439  0.1164
 3495TIP3    H131900   3.439   4.305  13.784  0.5291  0.8654 -0.2768
 3495TIP3    H231901   3.475   4.248  13.919 -2.4395  0.8315  0.5364
 3496TIP3   OH231902   5.532   2.979   5.809  0.6042 -0.2154  0.2106
 3496TIP3    H131903   5.496   2.989   5.721 -0.4701 -0.4070  0.6198
 3496TIP3    H231904   5.466   2.929   5.856  1.5376 -0.7984  0.9105
 3497TIP3   OH231905   4.158   2.910   0.336 -0.1999  0.1957 -0.3644
 3497TIP3    H131906   4.230   2.906   0.272  0.4412  0.8559  0.3107
 3497TIP3    H231907   4.084   2.945   0.287 -0.1867 -0.8884 -1.1754
 3498TIP3   OH231908   6.777   0.484   2.073 -0.7347  0.4773  0.7468
 3498TIP3    H131909   6.804   0.442   2.155  2.4905  0.2545 -0.3663
 3498TIP3    H231910   6.851   0.471   2.014 -1.2821  4.1980 -0.9209
 3499TIP3   OH231911   1.336   0.702   1.231  0.0911 -0.0501  0.0825
 3499TIP3    H131912   1.318   0.735   1.319 -0.0669 -0.4322  0.1954
 3499TIP3    H231913   1.359   0.610   1.245  1.8033  0.3269 -0.0927
 3500TIP3   OH231914   6.656   1.185  17.197  0.1551 -0.4236 -0.3105
 3500TIP3    H131915   6.663   1.276  17.167  1.6713 -0.4182  0.0120
 3500TIP3    H231916   6.635   1.192  17.290 -0.3820 -0.4144 -0.4295
 3501TIP3   OH231917   5.427   2.534  12.029 -0.0275  0.1300  0.3519
 3501TIP3    H131918   5.463   2.447  12.043  0.3508  0.1208 -0.6254
 3501TIP3    H231919   5.338   2.529  12.064  0.2518 -0.4186  0.9978
 3502TIP3   OH231920   1.746   0.146   1.848 -0.0335 -0.3933  0.2385
 3502TIP3    H131921   1.714   0.065   1.807  2.5153 -1.5443  0.4251
 3502TIP3    H231922   1.838   0.128   1.868 -0.2343  1.4877  3.0853
 3503TIP3   OH231923   0.913   1.308   5.949 -0.3321 -0.2319 -0.0195
 3503TIP3    H131924   0.975   1.237   5.933 -2.1894 -1.7122 -0.8205
 3503TIP3    H231925   0.866   1.281   6.029 -2.0548 -0.6570 -1.1478
 3504TIP3   OH231926   4.644   1.933   2.967 -0.4729  0.6279 -0.0273
 3504TIP3    H131927   4.715   1.886   2.924  0.5083  1.9347  0.1410
 3504TIP3    H231928   4.624   2.006   2.908 -1.7711  0.2178 -0.1304
 3505TIP3   OH231929   0.667   0.373   3.460 -0.0560  0.0436 -0.0776
 3505TIP3    H131930   0.611   0.332   3.394  1.7516 -0.6921 -1.1945
 3505TIP3    H231931   0.736   0.308   3.477  0.6196  1.0364  1.0579
 3506TIP3   OH231932   1.388   0.460  14.005 -0.0168  0.5065 -0.0546
 3506TIP3    H131933   1.469   0.428  14.043 -0.2037 -0.3379 -0.3658
 3506TIP3    H231934   1.321   0.399  14.035 -0.3237  0.4187 -0.9084
 3507TIP3   OH231935   3.003   0.807  14.797 -0.6035  0.1162 -0.0264
 3507TIP3    H131936   3.041   0.734  14.846  0.3483 -0.3980 -1.4960
 3507TIP3    H231937   3.059   0.881  14.817  0.3757 -0.3191 -1.0731
 3508TIP3   OH231938   4.608   3.275   0.987 -0.0848 -0.3607 -0.7238
 3508TIP3    H131939   4.568   3.338   0.927  0.4357  1.2626  0.5843
 3508TIP3    H231940   4.697   3.309   1.001 -0.3294 -0.4650  1.2643
 3509TIP3   OH231941   4.590   1.346  12.196  0.1355  0.0008 -0.3517
 3509TIP3    H131942   4.519   1.365  12.257  0.4494  0.2832 -0.0678
 3509TIP3    H231943   4.569   1.260  12.159 -1.0875  0.7039 -1.3318
 3510TIP3   OH231944   5.414   6.646  11.275  0.5193  0.7096  0.0043
 3510TIP3    H131945   5.418   6.551  11.283 -2.6748  0.6458  1.9312
 3510TIP3    H231946   5.364   6.660  11.194  2.4658  0.8274 -1.2156
 3511TIP3   OH231947   4.010   4.023   1.551  0.5215 -0.4387  0.4347
 3511TIP3    H131948   3.967   4.086   1.493  1.8228  0.9128  0.9366
 3511TIP3    H231949   3.940   3.993   1.609 -0.5078 -0.8518 -0.9792
 3512TIP3   OH231950   1.976   1.428   4.869  0.4493  0.4690 -0.6260
 3512TIP3    H131951   2.045   1.418   4.935  0.1397  0.5106 -0.2971
 3512TIP3    H231952   1.895   1.432   4.919  0.0203 -1.4745 -1.1250
 3513TIP3   OH231953   2.314   4.037  13.204 -0.1082  0.1369  0.2869
 3513TIP3    H131954   2.390   3.984  13.179  0.8318  2.4258 -1.9865
 3513TIP3    H231955   2.260   3.978  13.257  1.4307 -2.7073 -1.1649
 3514TIP3   OH231956   0.032   2.084  16.673 -0.2576 -0.5074 -0.2229
 3514TIP3    H131957   0.076   2.076  16.758 -0.9360 -1.2998  0.0632
 3514TIP3    H231958   0.062   2.168  16.639  2.7871 -1.7598 -0.8043
 3515TIP3   OH231959   0.107   5.289   1.753  0.4847 -0.0934 -0.8709
 3515TIP3    H131960   0.131   5.382   1.745 -0.3242  0.0231 -2.0361
 3515TIP3    H231961   0.034   5.289   1.815  1.1319 -0.0612 -0.1040
 3516TIP3   OH231962   3.557   4.039   1.410  0.1325 -0.1009  0.1239
 3516TIP3    H131963   3.570   4.129   1.437 -0.6149  0.0648 -0.0617
 3516TIP3    H231964   3.462   4.029   1.404  0.1793 -1.1224  0.9069
 3517TIP3   OH231965   2.583   3.476   1.960  0.1037  0.4941 -0.5335
 3517TIP3    H131966   2.508   3.499   2.016  1.2644  0.7019  0.9587
 3517TIP3    H231967   2.631   3.411   2.010  0.8188  0.2009 -1.5876
 3518TIP3   OH231968   3.399   6.051  12.653  0.4942  0.2593 -0.4539
 3518TIP3    H131969   3.337   5.979  12.638 -0.8443  1.0652  0.9925
 3518TIP3    H231970   3.387   6.073  12.746  1.1566  2.0945 -0.7936
 3519TIP3   OH231971   1.028   5.141   4.952  0.0830  0.2862  0.1531
 3519TIP3    H131972   1.042   5.208   5.019  0.1496 -0.0036  0.4291
 3519TIP3    H231973   0.958   5.086   4.988 -2.4239  2.2279 -1.5741
 3520TIP3   OH231974   1.929   4.282  14.073  0.2107  0.2338 -0.9150
 3520TIP3    H131975   1.972   4.317  13.995 -0.5032 -0.3686 -1.5862
 3520TIP3    H231976   1.892   4.360  14.116  0.8993  0.6066 -0.9880
 3521TIP3   OH231977   5.575   4.645   5.519  0.4022  0.3949  0.8308
 3521TIP3    H131978   5.493   4.694   5.523 -0.6947 -1.4391  1.1695
 3521TIP3    H231979   5.585   4.607   5.606  0.6614 -0.8683  0.2680
 3522TIP3   OH231980   5.809   1.748  12.945 -0.1953 -0.2618 -0.1314
 3522TIP3    H131981   5.738   1.740  13.009 -1.3461 -2.2885 -1.5960
 3522TIP3    H231982   5.768   1.790  12.869  0.9800  1.4616  0.1572
 3523TIP3   OH231983   1.048   5.004   0.862 -0.3127  0.2433 -0.0740
 3523TIP3    H131984   1.131   4.999   0.909 -0.5002  0.0207  0.2354
 3523TIP3    H231985   1.055   4.939   0.793 -0.9883 -1.1550  1.1558
 3524TIP3   OH231986   1.915   0.164   2.680 -0.2313  0.2031 -0.5658
 3524TIP3    H131987   1.932   0.258   2.691 -1.1301  0.2419  0.5934
 3524TIP3    H231988   1.977   0.122   2.740 -2.0662  0.2188  1.4034
 3525TIP3   OH231989   0.260   1.271   3.081 -0.0610  0.1706  0.1164
 3525TIP3    H131990   0.173   1.232   3.075 -0.1644  0.5517 -0.9358
 3525TIP3    H231991   0.252   1.336   3.151  0.2955 -2.1133  2.3874
 3526TIP3   OH231992   2.687   0.857  13.453 -0.2354 -0.5836  0.0870
 3526TIP3    H131993   2.648   0.897  13.375  0.0541 -0.1330  0.1701
 3526TIP3    H231994   2.744   0.788  13.419  0.3762  0.0261 -0.1363
 3527TIP3   OH231995   6.537   4.609   3.812  0.0793 -0.3288  0.0911
 3527TIP3    H131996   6.619   4.652   3.838  1.1097 -2.1244 -0.0794
 3527TIP3    H231997   6.473   4.636   3.877  0.0985  3.3317 -1.3313
 3528TIP3   OH231998   5.862   0.360   2.720  0.0945  0.6336  0.9704
 3528TIP3    H131999   5.823   0.421   2.657 -1.6113 -0.0814  1.3017
 3528TIP3    H232000   5.855   0.404   2.804 -1.3898 -0.0962  1.2519
 3529TIP3   OH232001   4.841   0.947   0.366  0.0825  0.2847 -0.1847
 3529TIP3    H132002   4.819   1.040   0.352 -0.4522  0.6700  2.8491
 3529TIP3    H232003   4.919   0.933   0.313 -1.0348  1.8866 -2.3607
 3530TIP3   OH232004   5.812   1.535   5.336 -0.7122  0.0582 -0.4847
 3530TIP3    H132005   5.878   1.529   5.405 -1.2798  1.1795  0.1786
 3530TIP3    H232006   5.861   1.559   5.258 -0.4486  1.9925  0.2388
 3531TIP3   OH232007   3.885   5.949   6.206 -0.1830 -0.4824  0.0578
 3531TIP3    H132008   3.824   5.940   6.279 -1.5227 -0.6242 -1.0696
 3531TIP3    H232009   3.847   6.017   6.151  0.8554 -0.3338 -0.4911
 3532TIP3   OH232010   0.440   3.880   2.325  0.5909  0.0374 -0.0890
 3532TIP3    H132011   0.350   3.849   2.321  0.1034  1.4268 -0.2552
 3532TIP3    H232012   0.444   3.949   2.259  1.0781  1.7312  1.6838
 3533TIP3   OH232013   3.285   5.094   2.332  0.3130 -0.6735 -0.4455
 3533TIP3    H132014   3.306   5.000   2.333 -0.5675 -0.8689  0.0422
 3533TIP3    H232015   3.341   5.131   2.401 -2.2199 -1.4977  2.1407
 3534TIP3   OH232016   6.060   2.214  11.490 -0.4386  0.1872 -0.3441
 3534TIP3    H132017   6.055   2.210  11.585 -0.9746 -2.1403 -0.4478
 3534TIP3    H232018   5.970   2.234  11.462 -0.2590  0.9839 -0.3728
 3535TIP3   OH232019   6.006   0.974  12.397 -0.3856  0.2107  0.4939
 3535TIP3    H132020   5.993   1.018  12.481  3.6474 -0.3005  1.5049
 3535TIP3    H232021   6.062   1.034  12.347 -1.1255 -0.3842 -1.0756
 3536TIP3   OH232022   0.944   2.220   5.533 -0.1673  0.0394 -0.1674
 3536TIP3    H132023   0.893   2.301   5.543 -0.5610 -0.0053 -1.6462
 3536TIP3    H232024   1.029   2.240   5.572 -0.8720  0.5553  1.1375
 3537TIP3   OH232025   4.910   4.880   1.281 -0.2901 -0.0542 -0.0670
 3537TIP3    H132026   4.895   4.845   1.193  1.3949  1.2733 -0.9058
 3537TIP3    H232027   4.970   4.818   1.321  0.5641  0.4033 -0.6055
 3538TIP3   OH232028   0.250   3.081   1.529  0.0659  0.6165  0.2564
 3538TIP3    H132029   0.254   3.136   1.450 -1.4435  0.6388  0.1801
 3538TIP3    H232030   0.257   2.992   1.496 -1.4018  0.5792 -0.0089
 3539TIP3   OH232031   3.073   0.579  11.517  0.2626 -0.0003 -0.0040
 3539TIP3    H132032   3.064   0.533  11.433 -0.5526  0.4899 -0.1790
 3539TIP3    H232033   3.106   0.665  11.494  0.9596 -0.1869  0.2645
 3540TIP3   OH232034   2.935   4.974   1.875  0.5028  0.0523  0.0669
 3540TIP3    H132035   2.887   5.052   1.844  1.6015  0.7792  0.1727
 3540TIP3    H232036   2.872   4.902   1.864  0.7485  0.2743 -3.7613
 3541TIP3   OH232037   3.710   2.866   5.279 -0.2932 -0.3526 -0.0056
 3541TIP3    H132038   3.725   2.899   5.368 -0.0272 -0.7089  0.0826
 3541TIP3    H232039   3.694   2.945   5.227 -0.4085 -0.1383  0.3472
 3542TIP3   OH232040   5.286   4.756   0.506 -0.3585  0.5514  0.1060
 3542TIP3    H132041   5.277   4.665   0.535  0.5672  0.8968  1.5563
 3542TIP3    H232042   5.296   4.750   0.411 -1.6343 -0.7555  0.0282
 3543TIP3   OH232043   4.531   1.334  16.201  0.3924  0.2762  0.1283
 3543TIP3    H132044   4.445   1.364  16.231 -0.2409 -0.7144 -0.6836
 3543TIP3    H232045   4.592   1.370  16.266 -0.8436 -0.9330  2.0232
 3544TIP3   OH232046   3.530   4.567  16.052 -0.1687 -0.3561 -0.2859
 3544TIP3    H132047   3.543   4.572  15.958  0.0085  0.6497 -0.2081
 3544TIP3    H232048   3.592   4.629  16.089  0.4221 -1.4256  0.5572
 3545TIP3   OH232049   6.546   1.879  16.859 -0.1212  0.6207 -0.0783
 3545TIP3    H132050   6.504   1.864  16.774 -0.3592 -1.0390  0.3142
 3545TIP3    H232051   6.636   1.847  16.847 -0.3142 -0.1237  0.4555
 3546TIP3   OH232052   2.490   2.150  13.005 -0.0866  0.6143 -0.4292
 3546TIP3    H132053   2.553   2.199  13.057  0.0272  0.9772 -0.9017
 3546TIP3    H232054   2.407   2.195  13.019 -0.0516  0.7249 -0.5807
 3547TIP3   OH232055   3.603   3.689   0.128 -0.0818 -0.4542  0.2934
 3547TIP3    H132056   3.643   3.775   0.118  0.9724 -0.8406  1.0450
 3547TIP3    H232057   3.516   3.698   0.089  0.1436  0.8481  0.0626
 3548TIP3   OH232058   1.731   3.945   3.645  0.5554 -0.1633  0.6300
 3548TIP3    H132059   1.794   3.896   3.593  1.6107  1.4020  0.3891
 3548TIP3    H232060   1.749   3.920   3.735 -0.4749 -1.9619  0.3645
 3549TIP3   OH232061   0.353   1.299   1.104 -0.3634 -0.2057 -0.5844
 3549TIP3    H132062   0.318   1.353   1.033  1.3833  0.9544 -0.5907
 3549TIP3    H232063   0.424   1.351   1.141 -2.1050 -0.1506  2.9516
 3550TIP3   OH232064   3.540   0.718   4.174 -0.4180  0.2385  0.2095
 3550TIP3    H132065   3.564   0.684   4.088  0.2203  1.1945  0.0061
 3550TIP3    H232066   3.510   0.807   4.158  1.3004  1.0133  1.1883
 3551TIP3   OH232067   3.805   1.990   5.901  0.2639 -0.0730 -0.3476
 3551TIP3    H132068   3.800   1.961   5.992  2.5473 -0.9707 -0.4656
 3551TIP3    H232069   3.857   2.071   5.904 -0.5754  0.4890 -0.7382
 3552TIP3   OH232070   5.809   1.726   2.439 -0.3215 -0.0754  0.1777
 3552TIP3    H132071   5.848   1.780   2.371  1.6332 -0.8658  0.6328
 3552TIP3    H232072   5.812   1.637   2.403 -0.5104 -0.3102  0.7428
 3553TIP3   OH232073   5.853   0.012  17.190 -0.7606 -0.0764  0.3352
 3553TIP3    H132074   5.782  -0.014  17.249 -0.3833  1.1059  1.3526
 3553TIP3    H232075   5.810   0.035  17.108 -1.5109  0.2271  0.8115
 3554TIP3   OH232076   1.131   4.603   1.497  0.0055  0.1445  1.0702
 3554TIP3    H132077   1.046   4.601   1.455  0.6940  2.6638 -0.4940
 3554TIP3    H232078   1.143   4.693   1.525  2.5368  0.0436  0.4775
 3555TIP3   OH232079   5.940   3.148   5.329 -0.5367 -0.2276 -0.0192
 3555TIP3    H132080   5.889   3.158   5.409  0.7213 -0.9362  0.8916
 3555TIP3    H232081   5.933   3.055   5.307  1.7202 -0.6724  1.0585
 3556TIP3   OH232082   5.536   0.019  14.293  0.2091 -0.2970 -0.3010
 3556TIP3    H132083   5.609  -0.043  14.284 -0.8920 -1.6150 -0.2731
 3556TIP3    H232084   5.487   0.010  14.212  1.1139  1.9892 -1.1545
 3557TIP3   OH232085   2.924   3.190   5.873  0.3703 -0.2608 -0.2821
 3557TIP3    H132086   3.015   3.160   5.873  0.2719 -0.5474  0.7881
 3557TIP3    H232087   2.886   3.151   5.793  0.8815 -1.0507 -0.1435
 3558TIP3   OH232088   2.752   1.224   2.128  0.2048 -0.0428 -1.0266
 3558TIP3    H132089   2.742   1.271   2.045 -1.2795  0.8498 -0.3706
 3558TIP3    H232090   2.662   1.214   2.160  0.8547  0.8578  1.1497
 3559TIP3   OH232091   6.677   6.320   0.551  0.8653 -0.1890 -0.6980
 3559TIP3    H132092   6.746   6.254   0.561  0.0242 -1.0706 -0.6814
 3559TIP3    H232093   6.692   6.382   0.623  0.7632 -1.1568  0.1557
 3560TIP3   OH232094   0.705   1.758  10.438 -0.2514  0.2186 -0.3607
 3560TIP3    H132095   0.693   1.673  10.481  3.9889  0.7626  2.2487
 3560TIP3    H232096   0.644   1.816  10.483 -1.9796 -1.0452 -1.0191
 3561TIP3   OH232097   4.402   3.568  14.317  0.4230 -0.2626 -0.2456
 3561TIP3    H132098   4.487   3.558  14.274 -0.1204 -0.6224 -1.2707
 3561TIP3    H232099   4.377   3.659  14.299  0.7930 -0.0237  0.4407
 3562TIP3   OH232100   2.167   2.754  15.147  0.5903 -0.5361  0.2591
 3562TIP3    H132101   2.074   2.774  15.133  0.6656 -0.2706  0.1299
 3562TIP3    H232102   2.207   2.769  15.062  1.1697  1.7416  0.9013
 3563TIP3   OH232103   6.290   3.649  15.272  0.0132 -0.3517  0.4077
 3563TIP3    H132104   6.355   3.676  15.206  0.7644  1.0340  1.6652
 3563TIP3    H232105   6.336   3.661  15.355 -0.7722 -2.5046  1.1733
 3564TIP3   OH232106   6.674   1.035  11.640 -0.3445  0.4572 -0.1020
 3564TIP3    H132107   6.655   1.023  11.547  1.6912  0.6777 -0.5757
 3564TIP3    H232108   6.767   1.060  11.643 -0.8655  2.3502  1.8461
 3565TIP3   OH232109   4.047   6.484   0.530 -0.0162  0.0589  0.0314
 3565TIP3    H132110   4.040   6.450   0.620 -0.5129 -1.1940 -0.4624
 3565TIP3    H232111   3.960   6.467   0.492  1.1729 -2.4362 -1.7041
 3566TIP3   OH232112   0.004   2.688  11.652  0.1738  0.5293 -0.0081
 3566TIP3    H132113   0.023   2.705  11.745  1.3315  0.7229 -0.2824
 3566TIP3    H232114  -0.046   2.606  11.653 -0.4385  0.9001  0.8481
 3567TIP3   OH232115   0.736   5.408  14.258 -0.1606  0.3596 -0.2574
 3567TIP3    H132116   0.696   5.494  14.244 -0.4312  0.0627 -1.3256
 3567TIP3    H232117   0.826   5.419  14.228  0.2138  0.6656  0.9474
 3568TIP3   OH232118   6.019   3.911   6.195 -0.0604  0.5007  0.6616
 3568TIP3    H132119   5.945   3.967   6.172  1.2571  1.6240 -1.0329
 3568TIP3    H232120   6.068   3.960   6.261  1.3283  1.6085 -1.1323
 3569TIP3   OH232121   4.656   6.435   1.838 -0.1133  0.2901  0.4116
 3569TIP3    H132122   4.625   6.518   1.874 -2.9502 -0.5888  0.1126
 3569TIP3    H232123   4.635   6.440   1.745  0.1258 -0.5786  0.3045
 3570TIP3   OH232124   5.153   6.385   1.347  0.7846 -0.1654  0.8178
 3570TIP3    H132125   5.180   6.381   1.255  0.8424  1.0214  0.7756
 3570TIP3    H232126   5.235   6.376   1.395  1.0761  1.5544  0.7068
 3571TIP3   OH232127   1.202   6.737  13.560 -0.2362  0.0245  0.0343
 3571TIP3    H132128   1.185   6.802  13.491  3.3248  1.0871  0.0795
 3571TIP3    H232129   1.188   6.653  13.518  2.8283  0.6288 -2.3308
 3572TIP3   OH232130   1.358   5.555   1.223  0.2850 -0.6686 -0.4706
 3572TIP3    H132131   1.302   5.567   1.300 -0.8216  0.4178 -1.4344
 3572TIP3    H232132   1.391   5.643   1.204  0.0611 -0.8279 -1.6105
 3573TIP3   OH232133   0.093   0.941   3.698 -0.2391 -0.2259 -0.3197
 3573TIP3    H132134   0.179   0.944   3.739 -0.6157  0.2363  0.4537
 3573TIP3    H232135   0.106   0.982   3.612  0.4397 -0.7316 -0.4676
 3574TIP3   OH232136   1.210   6.250   1.936  0.0745  0.5428  0.8965
 3574TIP3    H132137   1.120   6.267   1.906  0.6631  0.4652 -0.9670
 3574TIP3    H232138   1.225   6.158   1.917  0.3540  0.4055  1.7637
 3575TIP3   OH232139   1.617   0.337  12.727  0.1745 -0.0783  0.9812
 3575TIP3    H132140   1.540   0.296  12.767 -0.5411  1.3419  1.0648
 3575TIP3    H232141   1.680   0.346  12.798  0.3867 -1.1208  0.9410
 3576TIP3   OH232142   0.078   0.186   2.169  0.3709 -0.2854 -0.4599
 3576TIP3    H132143   0.065   0.203   2.076  0.5115 -2.0848 -0.8113
 3576TIP3    H232144   0.122   0.102   2.173 -0.4011 -0.6390  1.2672
 3577TIP3   OH232145   2.562   5.903   3.587 -0.0034 -0.0284  0.0961
 3577TIP3    H132146   2.474   5.936   3.601 -0.4053 -1.4305  0.9699
 3577TIP3    H232147   2.569   5.893   3.493 -0.6114  0.5154 -0.0135
 3578TIP3   OH232148   4.253   5.364   5.323  0.0079  0.3184  0.8355
 3578TIP3    H132149   4.334   5.343   5.277 -0.1144  3.0278 -0.7217
 3578TIP3    H232150   4.195   5.397   5.254 -1.4132  1.1008  2.3731
 3579TIP3   OH232151   3.446   0.109  11.329  0.1606 -0.5448 -0.2576
 3579TIP3    H132152   3.477   0.184  11.278  1.2251 -0.0222  1.1344
 3579TIP3    H232153   3.376   0.072  11.276 -0.6132  1.6352 -0.8266
 3580TIP3   OH232154   4.952   2.031  11.569  0.0254  0.1796 -0.1142
 3580TIP3    H132155   4.923   1.941  11.556  1.9714 -0.4630 -0.1210
 3580TIP3    H232156   4.925   2.076  11.488  0.2165 -0.6885 -0.6620
 3581TIP3   OH232157   5.909   4.001  16.950 -0.5081  0.0879 -0.2307
 3581TIP3    H132158   6.004   3.994  16.939 -0.5038  0.7166 -0.6291
 3581TIP3    H232159   5.882   3.914  16.978  0.0565 -0.3898 -1.1281
 3582TIP3   OH232160   2.660   5.437  13.791 -0.0657 -0.3660 -0.2304
 3582TIP3    H132161   2.659   5.508  13.855 -0.8207  0.5911 -1.2833
 3582TIP3    H232162   2.630   5.360  13.839  1.6442 -0.2066  1.1565
 3583TIP3   OH232163   5.074   5.707  11.995  0.6743  0.5642  0.1799
 3583TIP3    H132164   5.041   5.618  12.010  3.5070 -0.6939 -0.5386
 3583TIP3    H232165   5.138   5.720  12.064 -0.4538  2.4819  0.8819
 3584TIP3   OH232166   3.654   1.127  13.624  0.0369  0.3089  0.2881
 3584TIP3    H132167   3.638   1.149  13.532  2.2078  2.5114  0.3887
 3584TIP3    H232168   3.652   1.031  13.625  2.2130  0.1501 -2.5309
 3585TIP3   OH232169   5.060   6.598  13.157 -0.5232  0.1267  0.2711
 3585TIP3    H132170   5.105   6.681  13.144  1.8492 -1.0046  0.9377
 3585TIP3    H232171   5.056   6.586  13.252  0.9977 -1.4665  0.1561
 3586TIP3   OH232172   1.445   2.670  12.495  0.1736 -0.4740 -0.2313
 3586TIP3    H132173   1.405   2.623  12.422 -0.1135 -0.4772 -0.0740
 3586TIP3    H232174   1.535   2.687  12.466  0.1579 -0.7592 -0.4535
 3587TIP3   OH232175   1.988   4.533  12.447 -0.3334  0.5384  0.1809
 3587TIP3    H132176   2.066   4.480  12.431 -0.3627  0.5982 -0.1634
 3587TIP3    H232177   1.939   4.484  12.513  0.0470  0.5565  0.4805
 3588TIP3   OH232178   4.177   1.851  12.861 -0.7605  0.0957 -0.4028
 3588TIP3    H132179   4.178   1.763  12.821  1.0932 -0.3139  0.5300
 3588TIP3    H232180   4.171   1.834  12.955  0.2032  0.9669 -0.1902
 3589TIP3   OH232181   1.108   2.764   5.123  0.2957  0.3037 -0.3194
 3589TIP3    H132182   1.079   2.856   5.128 -0.5426  0.1707 -2.3066
 3589TIP3    H232183   1.053   2.726   5.054  0.3647 -1.8024  0.7574
 3590TIP3   OH232184   3.980   3.465   1.189 -0.2889  0.7932  0.2597
 3590TIP3    H132185   3.986   3.490   1.281  0.1511  0.7346  0.2502
 3590TIP3    H232186   3.913   3.522   1.153 -0.4021  0.8773  0.5977
 3591TIP3   OH232187   0.909   2.851  15.624  0.1842 -0.7891 -0.4724
 3591TIP3    H132188   0.855   2.911  15.676 -0.3122 -1.5644 -0.0965
 3591TIP3    H232189   0.970   2.909  15.577  0.2050 -0.0367  0.4686
 3592TIP3   OH232190   1.329   1.416  14.576  0.0038 -0.1365  0.0465
 3592TIP3    H132191   1.305   1.459  14.494 -2.1934 -1.1047  0.1428
 3592TIP3    H232192   1.411   1.372  14.556  0.0826  0.5870 -1.3081
 3593TIP3   OH232193   3.262   6.530   6.468 -0.1566 -0.6216 -0.5725
 3593TIP3    H132194   3.271   6.608   6.523 -1.4280  0.1373 -1.4236
 3593TIP3    H232195   3.182   6.487   6.501 -0.3544 -0.7096 -1.1692
 3594TIP3   OH232196   6.488   5.466  16.729 -0.0331  0.6761  0.1915
 3594TIP3    H132197   6.497   5.422  16.644  0.2923 -2.1019  1.6016
 3594TIP3    H232198   6.400   5.501  16.729 -0.4392 -0.2973 -0.8650
 3595TIP3   OH232199   4.276   1.629   0.975 -0.1362 -0.1266  0.0886
 3595TIP3    H132200   4.279   1.588   1.061  1.6505  0.0184  0.1024
 3595TIP3    H232201   4.248   1.559   0.916 -1.0160 -0.3163  0.7230
 3596TIP3   OH232202   0.799   6.617  15.576 -0.5593 -0.2075 -0.4833
 3596TIP3    H132203   0.705   6.632  15.591 -0.9019 -2.7399  0.0506
 3596TIP3    H232204   0.838   6.622  15.663 -0.4118 -0.5655 -0.5299
 3597TIP3   OH232205   3.967   3.203  12.358  0.4113 -0.3419  0.7002
 3597TIP3    H132206   4.052   3.160  12.368  0.7448 -0.1255 -1.0059
 3597TIP3    H232207   3.979   3.263  12.285 -1.2425 -0.3886  0.3632
 3598TIP3   OH232208   2.854   2.140   6.097  0.3213 -0.1932 -0.0849
 3598TIP3    H132209   2.862   2.072   6.164  0.5380  0.3719  0.4672
 3598TIP3    H232210   2.854   2.222   6.146 -1.8579  0.1406 -0.6175
 3599TIP3   OH232211   0.908   5.142  16.229  0.3698  0.1749  0.4523
 3599TIP3    H132212   0.890   5.060  16.184 -1.3813  1.1255 -0.6370
 3599TIP3    H232213   0.977   5.120  16.292  1.6924 -1.5486 -1.5216
 3600TIP3   OH232214   4.018   3.659  15.205 -0.2588  0.2497 -0.0252
 3600TIP3    H132215   3.964   3.633  15.280 -0.4257 -0.4488 -0.3940
 3600TIP3    H232216   3.958   3.660  15.131 -0.1925  1.3875 -0.0741
 3601TIP3   OH232217   4.586   0.587  13.370  1.1927 -0.1998 -0.1499
 3601TIP3    H132218   4.570   0.610  13.462  0.3351 -0.3051 -0.2688
 3601TIP3    H232219   4.659   0.525  13.373 -1.1425 -3.0390  0.8020
 3602TIP3   OH232220   6.297   6.306   5.896  0.0184  0.4109  0.1992
 3602TIP3    H132221   6.240   6.379   5.874 -2.4516 -1.6480 -0.5191
 3602TIP3    H232222   6.373   6.346   5.938  0.1141  3.6057 -2.7871
 3603TIP3   OH232223   1.764   5.041  12.788  0.3746 -0.2638 -0.2289
 3603TIP3    H132224   1.685   5.091  12.808 -0.3990 -0.4804 -2.5525
 3603TIP3    H232225   1.735   4.975  12.725  2.7973  1.1370 -2.9929
 3604TIP3   OH232226   5.775   1.062   0.860  0.6762 -0.0309 -0.5126
 3604TIP3    H132227   5.717   1.127   0.821 -0.6009 -0.8239  0.0228
 3604TIP3    H232228   5.775   0.990   0.798  1.9016  0.3704 -0.9913
 3605TIP3   OH232229   1.022   2.399   2.899  0.1526 -0.5703 -0.3240
 3605TIP3    H132230   1.073   2.379   2.977  0.4703  1.0863 -0.0690
 3605TIP3    H232231   1.087   2.409   2.829 -0.0094 -0.6621 -0.4884
 3606TIP3   OH232232   3.093   3.577  11.698  0.2012 -0.2734  0.1282
 3606TIP3    H132233   3.129   3.650  11.748 -2.4033  1.3032 -0.1793
 3606TIP3    H232234   3.084   3.612  11.609  1.9174 -2.0408 -0.7599
 3607TIP3   OH232235   5.241   5.579   3.525 -0.2257  0.5514 -0.0721
 3607TIP3    H132236   5.246   5.484   3.514 -0.2868  0.7121 -1.7208
 3607TIP3    H232237   5.217   5.611   3.438  1.2249  2.1892  0.1013
 3608TIP3   OH232238   4.806   1.076   0.693  0.3301 -0.2655  0.2316
 3608TIP3    H132239   4.833   1.166   0.713  0.1745 -0.0739 -0.4099
 3608TIP3    H232240   4.840   1.060   0.605 -2.2881  0.2386 -0.8936
 3609TIP3   OH232241   4.290   0.956  11.013 -0.0561  0.1108  0.0129
 3609TIP3    H132242   4.215   1.001  10.974 -0.9189 -0.6782  0.7583
 3609TIP3    H232243   4.253   0.907  11.086  1.1811 -0.3286  0.3430
 3610TIP3   OH232244   0.711   5.363  11.245  0.1318 -0.2837  0.1396
 3610TIP3    H132245   0.698   5.357  11.151  2.4659  3.3807 -0.5087
 3610TIP3    H232246   0.789   5.311  11.263  0.0458 -0.4670 -0.0179
 3611TIP3   OH232247   6.210   3.724  13.649  0.5179  0.1887 -0.0522
 3611TIP3    H132248   6.252   3.675  13.720 -1.4321  0.2475  1.1707
 3611TIP3    H232249   6.133   3.763  13.689 -0.7330  0.0445 -2.2666
 3612TIP3   OH232250   1.808   6.462   3.700 -0.4107 -0.0451 -0.2584
 3612TIP3    H132251   1.841   6.550   3.717 -1.7839  0.2734  0.8460
 3612TIP3    H232252   1.843   6.440   3.614 -0.2827  1.6916 -0.6683
 3613TIP3   OH232253   2.276   6.223  11.502  0.6194 -0.3269  0.0953
 3613TIP3    H132254   2.339   6.260  11.563  0.7693  0.3502 -0.4546
 3613TIP3    H232255   2.265   6.132  11.529  1.6330 -0.3737  0.3568
 3614TIP3   OH232256   1.712   1.978  12.769 -0.1114 -0.2751 -0.7415
 3614TIP3    H132257   1.697   2.024  12.852  0.6386 -0.4881 -0.4856
 3614TIP3    H232258   1.758   1.898  12.794 -0.5238 -0.6808 -1.2939
 3615TIP3   OH232259   4.428   6.043   2.129 -0.3521  0.3631  0.1837
 3615TIP3    H132260   4.391   5.985   2.062 -0.6314 -0.6811  1.2191
 3615TIP3    H232261   4.513   6.070   2.094  0.6769 -2.2809  0.5712
 3616TIP3   OH232262   5.060   1.776  16.446  0.1527 -0.2755  0.3991
 3616TIP3    H132263   4.985   1.770  16.387  0.6857 -0.4864 -0.2639
 3616TIP3    H232264   5.074   1.870  16.457 -0.8019 -0.2328  1.2917
 3617TIP3   OH232265   2.223   2.465  15.264 -0.7772 -0.2367  0.4272
 3617TIP3    H132266   2.290   2.434  15.204  1.2585 -0.1061  2.5854
 3617TIP3    H232267   2.204   2.555  15.236  0.0608 -0.2210 -0.0792
 3618TIP3   OH232268   0.907   5.228   2.756  0.4759  0.1812 -0.3113
 3618TIP3    H132269   0.829   5.173   2.744  0.0059  0.9570 -0.9014
 3618TIP3    H232270   0.903   5.254   2.848 -1.2237  2.0242 -0.8509
 3619TIP3   OH232271   3.428   3.464   0.823  0.4057 -0.1031 -0.0967
 3619TIP3    H132272   3.422   3.433   0.733  0.4411 -1.5856  0.4009
 3619TIP3    H232273   3.514   3.436   0.853 -1.1338 -3.2269  1.6775
 3620TIP3   OH232274   2.193   6.613   3.591  0.1236 -0.0799  0.2483
 3620TIP3    H132275   2.158   6.531   3.625  0.3775  0.1293  1.0464
 3620TIP3    H232276   2.168   6.614   3.499 -0.4968 -0.7148  0.4046
 3621TIP3   OH232277   4.980   0.023   1.755  0.0573  0.2048 -0.0963
 3621TIP3    H132278   4.935   0.057   1.678  0.4747  2.1309  0.4930
 3621TIP3    H232279   5.057  -0.022   1.720 -0.0848  0.5420 -0.8415
 3622TIP3   OH232280   6.266   1.216  16.771 -0.4346 -0.1084 -0.4294
 3622TIP3    H132281   6.312   1.278  16.828  0.5725  0.1328 -1.5034
 3622TIP3    H232282   6.284   1.130  16.810 -1.2137  0.1912  0.6244
 3623TIP3   OH232283   5.764   6.247   2.707 -0.7002  0.2613 -0.3354
 3623TIP3    H132284   5.784   6.341   2.704 -1.0355  0.3699  0.5106
 3623TIP3    H232285   5.678   6.239   2.667 -2.2067  0.7926  2.6753
 3624TIP3   OH232286   6.707   2.133  13.070  0.1830  0.2618  0.4639
 3624TIP3    H132287   6.787   2.152  13.021  0.4200 -0.2855  0.6295
 3624TIP3    H232288   6.735   2.130  13.162  0.1879 -1.0050  0.4329
 3625TIP3   OH232289   2.387   1.061  16.909 -0.2296  0.9100  0.0740
 3625TIP3    H132290   2.431   1.145  16.893 -0.2348  0.6445 -1.3954
 3625TIP3    H232291   2.451   0.995  16.881 -0.9681  0.4791 -0.6129
 3626TIP3   OH232292   3.073   0.107   5.123 -0.4218  0.1767  0.2905
 3626TIP3    H132293   3.082   0.044   5.194 -0.0126  0.5473  0.5670
 3626TIP3    H232294   3.063   0.191   5.167  0.2829  0.4639 -0.0990
 3627TIP3   OH232295   5.900   5.992   3.393 -0.1619  0.0481  0.0144
 3627TIP3    H132296   5.987   5.959   3.371 -0.0699  1.2102 -1.4048
 3627TIP3    H232297   5.906   6.087   3.379 -1.8891  0.0353 -0.9561
 3628TIP3   OH232298   6.459   3.678   2.839  0.1905  1.0437 -0.0255
 3628TIP3    H132299   6.456   3.727   2.757 -0.3419  1.5779  0.3035
 3628TIP3    H232300   6.547   3.641   2.842 -0.4262 -0.6096 -1.7701
 3629TIP3   OH232301   2.113   5.966   3.872 -0.4970 -0.6554 -0.7826
 3629TIP3    H132302   2.158   6.026   3.931 -0.3541  0.1223 -1.6744
 3629TIP3    H232303   2.056   5.915   3.929 -1.0751  0.7412 -0.0874
 3630TIP3   OH232304   4.295   2.752   4.038  0.1131  0.1845  0.0325
 3630TIP3    H132305   4.364   2.782   4.097  0.0672  1.8202 -0.7278
 3630TIP3    H232306   4.333   2.759   3.950  0.3967 -2.8043 -0.1532
 3631TIP3   OH232307   2.557   4.678   5.718  0.0637  0.9056  0.4685
 3631TIP3    H132308   2.531   4.709   5.632 -1.1313 -2.5936 -0.5289
 3631TIP3    H232309   2.491   4.713   5.778 -0.4213  1.4316 -0.3663
 3632TIP3   OH232310   4.961   1.292  16.577  0.1066 -0.4091  0.0582
 3632TIP3    H132311   4.897   1.363  16.569  1.3577  0.7417  0.1164
 3632TIP3    H232312   4.952   1.260  16.667  0.6819  0.7875  0.5454
 3633TIP3   OH232313   4.432   3.578   5.955  0.1659 -0.0902 -0.2012
 3633TIP3    H132314   4.371   3.506   5.936  0.3354 -0.3613  0.2553
 3633TIP3    H232315   4.464   3.558   6.043 -0.0660  0.7487  0.0736
 3634TIP3   OH232316   1.285   0.310   2.472 -0.2219  0.0244 -0.0844
 3634TIP3    H132317   1.240   0.347   2.396  1.4522  0.2701 -0.9894
 3634TIP3    H232318   1.243   0.226   2.486 -0.8945  0.1999 -0.9695
 3635TIP3   OH232319   4.875   4.159   2.324  0.3617 -0.5887  0.0568
 3635TIP3    H132320   4.929   4.126   2.396  0.0612 -1.5158 -0.1454
 3635TIP3    H232321   4.786   4.137   2.349  0.1751 -0.0764 -0.1551
 3636TIP3   OH232322   4.390   4.424  12.926  0.1724 -0.5300  0.0834
 3636TIP3    H132323   4.476   4.383  12.937  1.1703  1.8806  1.5257
 3636TIP3    H232324   4.364   4.450  13.014 -1.6808 -0.4873 -0.4505
 3637TIP3   OH232325   3.408   2.808  16.540 -0.2615 -0.1723  0.4270
 3637TIP3    H132326   3.358   2.786  16.619  0.0874 -0.1904  0.6430
 3637TIP3    H232327   3.483   2.859  16.572  1.3921 -2.5123  0.4243
 3638TIP3   OH232328   0.175   1.662   2.433  0.2046  0.2130 -0.4944
 3638TIP3    H132329   0.150   1.570   2.446  0.3309  0.4236  1.4809
 3638TIP3    H232330   0.270   1.660   2.423  0.2614  0.1507  0.0118
 3639TIP3   OH232331   6.311   0.598  11.148  0.1042 -0.3229 -0.4196
 3639TIP3    H132332   6.243   0.581  11.083  0.4831 -0.8019 -0.6938
 3639TIP3    H232333   6.362   0.517  11.150  0.6967  0.0577 -0.2622
 3640TIP3   OH232334   4.312   2.388   4.004 -0.4873  0.3805 -0.0323
 3640TIP3    H132335   4.267   2.463   3.966  1.2293  0.4747 -1.9605
 3640TIP3    H232336   4.263   2.312   3.972  0.8795  0.4621 -2.4543
 3641TIP3   OH232337   2.993   1.708  10.016  0.2280  0.1088  0.2846
 3641TIP3    H132338   3.045   1.658   9.953 -0.7292  0.0409 -0.4618
 3641TIP3    H232339   3.039   1.792  10.022  1.0595 -0.3543  0.4908
 3642TIP3   OH232340   4.019   2.039   0.486 -0.1869  0.2514  0.0147
 3642TIP3    H132341   4.057   1.983   0.553 -1.4009 -1.0126 -0.3402
 3642TIP3    H232342   3.968   2.104   0.534  0.1604  0.2567  0.3735
 3643TIP3   OH232343   5.412   2.360  14.775 -0.4738  0.1932  0.3593
 3643TIP3    H132344   5.329   2.406  14.764 -1.0782 -0.5958  1.5493
 3643TIP3    H232345   5.422   2.351  14.870  0.3783 -0.7752  0.1816
 3644TIP3   OH232346   1.969   0.928   0.886 -0.6023 -0.0210 -0.3295
 3644TIP3    H132347   2.055   0.969   0.876 -1.3306  1.9352  1.0307
 3644TIP3    H232348   1.910   0.983   0.835 -1.4713  0.1954  0.8735
 3645TIP3   OH232349   3.469   5.908  17.221 -0.0405 -0.1716  0.3466
 3645TIP3    H132350   3.548   5.955  17.247 -1.2724  1.0515  1.9684
 3645TIP3    H232351   3.432   5.960  17.150  0.0449 -0.1548  0.3162
 3646TIP3   OH232352   4.462   2.449  11.741  0.1415 -0.3082 -0.7029
 3646TIP3    H132353   4.435   2.482  11.827  0.3835 -0.6959 -0.4807
 3646TIP3    H232354   4.408   2.498  11.679 -1.8864 -1.8498 -0.2102
 3647TIP3   OH232355   3.823   4.341   5.892 -0.1218 -0.0551 -0.0931
 3647TIP3    H132356   3.856   4.307   5.809  1.1825  0.2572  0.2821
 3647TIP3    H232357   3.828   4.437   5.883  0.5828 -0.0249  0.5545
 3648TIP3   OH232358   5.739   2.455   2.975  0.2171  0.5479  0.0330
 3648TIP3    H132359   5.817   2.501   2.944  0.7609 -0.2177  0.2639
 3648TIP3    H232360   5.677   2.525   2.995  0.9805  1.1797  0.2124
 3649TIP3   OH232361   3.183   4.747   4.817 -0.0598 -0.3881 -0.1528
 3649TIP3    H132362   3.172   4.738   4.722  0.2296 -2.2718 -0.0216
 3649TIP3    H232363   3.249   4.816   4.827  0.2091 -0.4682 -1.3345
 3650TIP3   OH232364   2.611   6.702  14.023  0.6674 -0.4167 -0.1792
 3650TIP3    H132365   2.685   6.744  14.068  0.1334 -1.3975  1.6954
 3650TIP3    H232366   2.648   6.671  13.940  1.6499  1.5978 -0.5226
 3651TIP3   OH232367   5.704   1.101   4.909 -0.0690 -0.0047 -0.2456
 3651TIP3    H132368   5.748   1.090   4.993 -0.4926  0.7043  0.0780
 3651TIP3    H232369   5.612   1.082   4.927 -0.0288 -0.6964 -0.7404
 3652TIP3   OH232370   0.310   3.229   3.155 -0.0539  0.5195 -0.2556
 3652TIP3    H132371   0.317   3.167   3.228  3.1118  1.0909 -0.0076
 3652TIP3    H232372   0.283   3.311   3.195 -0.7189  0.2323 -0.0991
 3653TIP3   OH232373   0.321   6.103   2.004 -0.2878  0.0698  0.6960
 3653TIP3    H132374   0.249   6.054   1.964  0.2739 -1.3026  1.3380
 3653TIP3    H232375   0.290   6.124   2.092 -1.4118  2.8442 -0.3152
 3654TIP3   OH232376   0.653   4.214  16.417  0.0293 -0.4053 -0.5710
 3654TIP3    H132377   0.589   4.279  16.387 -0.3797  0.5370  2.1789
 3654TIP3    H232378   0.734   4.264  16.427  0.2234 -0.7709 -0.3337
 3655TIP3   OH232379   3.372   3.880  14.187 -0.1105 -0.3443  0.6107
 3655TIP3    H132380   3.428   3.917  14.255 -0.5095  0.7967  0.3344
 3655TIP3    H232381   3.291   3.856  14.232 -0.1581 -0.1162  0.6466
 3656TIP3   OH232382   2.135   3.820   3.991  0.5045  0.0898 -0.2673
 3656TIP3    H132383   2.141   3.776   4.076  1.1753  3.9878  1.7935
 3656TIP3    H232384   2.222   3.856   3.975 -0.1797  1.2435 -1.5789
 3657TIP3   OH232385   6.274   0.461  13.198 -0.9504 -0.8027 -0.2799
 3657TIP3    H132386   6.259   0.536  13.140 -1.6112 -0.7415 -0.0332
 3657TIP3    H232387   6.259   0.495  13.286 -0.8983 -1.1377 -0.1403
 3658TIP3   OH232388   3.024   5.463  15.309 -0.3723 -0.2951 -0.6957
 3658TIP3    H132389   3.079   5.385  15.302  0.9165  0.2489  2.6762
 3658TIP3    H232390   3.075   5.524  15.362 -1.9614  2.3257 -2.0924
 3659TIP3   OH232391   2.509   6.489   0.728 -0.6588 -0.3141 -1.0082
 3659TIP3    H132392   2.513   6.429   0.803 -0.3040  1.5430  0.4901
 3659TIP3    H232393   2.442   6.553   0.753 -0.7932  0.1084 -2.4545
 3660TIP3   OH232394   2.431   0.159   3.466 -0.1742  0.0912  0.0206
 3660TIP3    H132395   2.469   0.107   3.537  1.0520 -0.0871 -0.7451
 3660TIP3    H232396   2.401   0.094   3.403 -0.9518  0.2584  0.2175
 3661TIP3   OH232397   0.229   3.269   1.313 -0.0833 -0.0242  0.9669
 3661TIP3    H132398   0.213   3.357   1.348 -2.1274  0.0574 -0.1305
 3661TIP3    H232399   0.166   3.259   1.242  0.2926 -2.2980  0.9154
 3662TIP3   OH232400   3.073   3.814   1.407 -0.2594  0.0299 -0.2295
 3662TIP3    H132401   3.077   3.788   1.499  1.5459 -0.3529 -0.3919
 3662TIP3    H232402   3.096   3.735   1.359 -0.8968  0.3098 -0.9910
 3663TIP3   OH232403   5.083   4.733  15.342 -0.0479 -0.0906  0.0788
 3663TIP3    H132404   5.156   4.693  15.295 -0.1503 -0.7386  0.4559
 3663TIP3    H232405   5.076   4.821  15.306  1.7767  0.4477  0.9593
 3664TIP3   OH232406   6.521   6.772   6.177  0.1563  0.1290 -0.3560
 3664TIP3    H132407   6.524   6.724   6.095  0.1749  2.1368 -1.5622
 3664TIP3    H232408   6.428   6.773   6.201  0.2509 -1.1990  0.1220
 3665TIP3   OH232409   2.881   1.556  11.777 -0.0210 -0.3519 -0.1592
 3665TIP3    H132410   2.946   1.506  11.728 -0.1740 -0.1695 -0.5555
 3665TIP3    H232411   2.847   1.620  11.714  0.2842  0.3576  0.3823
 3666TIP3   OH232412   5.417   5.591   0.432  0.0353  0.1449 -0.0844
 3666TIP3    H132413   5.359   5.584   0.356 -0.8624  0.5891  0.5433
 3666TIP3    H232414   5.492   5.536   0.410 -0.4345 -0.1082 -1.0927
 3667TIP3   OH232415   2.318   1.749   1.803  0.8443  0.1891 -0.0786
 3667TIP3    H132416   2.393   1.803   1.828  1.9586 -0.8406 -1.1181
 3667TIP3    H232417   2.327   1.737   1.708  1.5400 -3.0915  0.3295
 3668TIP3   OH232418   5.811   0.736   2.119  0.1411 -0.6572 -0.2386
 3668TIP3    H132419   5.835   0.738   2.212 -0.2624 -0.1419 -0.1379
 3668TIP3    H232420   5.820   0.645   2.094 -2.0100 -1.2413  0.9371
 3669TIP3   OH232421   1.215   1.523   2.487  0.3231 -0.1693 -0.5894
 3669TIP3    H132422   1.213   1.619   2.488 -1.2364 -0.2019  0.1749
 3669TIP3    H232423   1.257   1.501   2.403 -2.1088  1.1565 -2.2115
 3670TIP3   OH232424   5.807   5.127  12.147  0.1912  0.2716  0.5928
 3670TIP3    H132425   5.872   5.193  12.172  1.5386 -1.6191  2.1630
 3670TIP3    H232426   5.852   5.071  12.084 -0.2569 -0.4758  0.9371
 3671TIP3   OH232427   0.763   1.416  11.408  0.1142 -0.0267 -0.1027
 3671TIP3    H132428   0.757   1.511  11.412 -0.0051 -0.0941  1.4564
 3671TIP3    H232429   0.700   1.391  11.340 -1.6739  0.8182  1.2073
 3672TIP3   OH232430   6.117   1.003   2.157  0.3457  0.1616 -0.1071
 3672TIP3    H132431   6.150   0.950   2.085 -0.4177 -0.9224  0.3270
 3672TIP3    H232432   6.155   0.962   2.235 -2.0374 -1.1305  0.4050
 3673TIP3   OH232433   6.573   0.210  12.949 -0.1257 -0.2358 -0.3522
 3673TIP3    H132434   6.646   0.271  12.956 -0.0496 -0.2904 -0.6612
 3673TIP3    H232435   6.551   0.208  12.856 -1.4858  0.9220 -0.0744
 3674TIP3   OH232436   6.010   6.660  12.114 -0.1404  0.3282 -0.3316
 3674TIP3    H132437   5.938   6.598  12.099  0.4402 -0.6401  0.7570
 3674TIP3    H232438   6.080   6.630  12.056  0.2208 -0.2036  0.3595
 3675TIP3   OH232439   5.251   3.993  16.610 -0.4764 -0.3166 -0.2040
 3675TIP3    H132440   5.174   3.998  16.552  1.0530  1.4735 -2.1980
 3675TIP3    H232441   5.270   4.085  16.631 -0.2968 -0.8890  2.2573
 3676TIP3   OH232442   6.704   4.641  11.525  0.4107  0.1784 -0.7884
 3676TIP3    H132443   6.772   4.606  11.467 -0.0505 -0.1473 -1.1473
 3676TIP3    H232444   6.624   4.634  11.473 -0.1482 -0.8962  0.1999
 3677TIP3   OH232445   5.374   3.849  16.782  1.1705 -0.5723 -0.3483
 3677TIP3    H132446   5.464   3.852  16.749  1.7643  1.2344  1.3493
 3677TIP3    H232447   5.323   3.898  16.718  1.5222 -0.9285 -0.9037
 3678TIP3   OH232448   4.473   0.406  13.715  0.3584  0.6664  0.2457
 3678TIP3    H132449   4.495   0.490  13.674 -0.3721  0.5081 -0.5051
 3678TIP3    H232450   4.508   0.412  13.804  2.2086  0.9143 -0.4778
 3679TIP3   OH232451   6.052   1.913  16.312 -0.1154  0.3220  0.5014
 3679TIP3    H132452   6.036   1.819  16.303  1.0165  0.2473 -0.8085
 3679TIP3    H232453   6.092   1.921  16.398 -0.2201 -0.3876  0.6275
 3680TIP3   OH232454   0.112   2.248   5.382 -0.1149 -0.1704  0.3090
 3680TIP3    H132455   0.073   2.243   5.295  1.5114  2.2828 -0.6092
 3680TIP3    H232456   0.071   2.324   5.423  1.1602  0.3699  0.6179
 3681TIP3   OH232457   0.267   3.587   4.774 -0.2272 -0.0275  0.1721
 3681TIP3    H132458   0.280   3.499   4.740 -0.8561 -0.2927  0.6206
 3681TIP3    H232459   0.251   3.641   4.696  0.2406 -0.2941 -0.1068
 3682TIP3   OH232460   0.611   1.923   5.975  0.5356 -0.4455  0.3624
 3682TIP3    H132461   0.669   2.000   5.980  3.0612 -2.2786  0.1201
 3682TIP3    H232462   0.598   1.896   6.066 -1.4684  1.0076  0.5552
 3683TIP3   OH232463   0.574   4.045   3.967 -0.3154  0.0574 -0.0578
 3683TIP3    H132464   0.619   4.052   4.051 -1.7822  1.6298  0.6274
 3683TIP3    H232465   0.608   4.118   3.915 -0.3619 -0.1422 -0.3717
 3684TIP3   OH232466   1.509   3.623   3.275 -0.1773 -0.0892 -0.0381
 3684TIP3    H132467   1.540   3.674   3.201  0.3657  0.4935  0.5800
 3684TIP3    H232468   1.524   3.679   3.351 -1.4331 -0.3734  0.4312
 3685TIP3   OH232469   2.182   6.030   6.497  0.0934 -0.3182 -0.0647
 3685TIP3    H132470   2.092   6.014   6.525  0.2387 -1.4607 -0.2138
 3685TIP3    H232471   2.225   5.944   6.505  0.9263  0.0145 -0.8642
 3686TIP3   OH232472   6.511   6.265  12.362 -0.1022  0.0632  0.0490
 3686TIP3    H132473   6.438   6.222  12.406 -0.2874  1.2065  0.8541
 3686TIP3    H232474   6.548   6.324  12.428  1.9998 -1.0323 -0.1063
 3687TIP3   OH232475   3.574   5.189  16.125 -0.0743  0.2630 -0.4388
 3687TIP3    H132476   3.516   5.253  16.167  0.2596  0.6853 -0.6134
 3687TIP3    H232477   3.622   5.149  16.198 -0.6865 -0.1948 -0.2797
 3688TIP3   OH232478   2.751   5.676  16.390  0.1527 -0.1326 -0.3027
 3688TIP3    H132479   2.695   5.752  16.402 -0.7936 -1.0252  1.1318
 3688TIP3    H232480   2.692   5.607  16.360  0.9203 -0.4301 -1.1685
 3689TIP3   OH232481   1.169   0.886   3.337 -0.2928 -0.0577  0.2801
 3689TIP3    H132482   1.142   0.892   3.246 -0.5361  0.0906  0.3597
 3689TIP3    H232483   1.133   0.802   3.367  0.8650 -0.6999 -0.1075
 3690TIP3   OH232484   5.338   5.228  14.000 -0.6503  0.5450  0.5462
 3690TIP3    H132485   5.278   5.260  13.933  0.1299  1.4975  0.2896
 3690TIP3    H232486   5.282   5.184  14.064 -1.4482  0.0346 -0.4945
 3691TIP3   OH232487   4.454   2.086   0.927 -0.0508  0.3744 -0.0605
 3691TIP3    H132488   4.498   2.010   0.966  1.4712  0.7579 -0.9877
 3691TIP3    H232489   4.447   2.065   0.834 -1.7892  0.3648  0.0491
 3692TIP3   OH232490   6.395   2.609  15.556  0.3670 -0.4000  0.0161
 3692TIP3    H132491   6.413   2.538  15.495  0.6298  0.3163 -0.7525
 3692TIP3    H232492   6.470   2.610  15.615  2.0906  1.4385 -2.0892
 3693TIP3   OH232493   3.035   2.554  16.954 -0.3792  0.0944 -0.4186
 3693TIP3    H132494   3.104   2.505  16.908 -0.8129 -0.8265 -0.0907
 3693TIP3    H232495   2.979   2.587  16.884  0.1526  0.4888 -0.6630
 3694TIP3   OH232496   4.880   2.120  12.104 -0.4110 -0.0930  0.5912
 3694TIP3    H132497   4.931   2.159  12.033 -0.3110  0.4027  0.9275
 3694TIP3    H232498   4.945   2.072  12.156 -0.6961 -1.6009 -0.4076
 3695TIP3   OH232499   2.326   5.997   3.681 -0.8736  0.4797  0.3433
 3695TIP3    H132500   2.287   6.085   3.674 -2.1308 -0.0483  0.5564
 3695TIP3    H232501   2.260   5.946   3.728 -0.4078 -0.7376 -0.3261
 3696TIP3   OH232502   3.637   3.123  15.878 -0.2039 -0.1587  0.4240
 3696TIP3    H132503   3.557   3.112  15.825 -0.3387 -0.8982  0.7784
 3696TIP3    H232504   3.621   3.070  15.956 -0.8949  2.5912  2.2245
 3697TIP3   OH232505   2.651   3.408  12.559  0.2158  0.2789 -0.1625
 3697TIP3    H132506   2.685   3.489  12.596 -0.7388  1.5543 -2.0094
 3697TIP3    H232507   2.631   3.353  12.635 -2.5080  3.1521  1.3343
 3698TIP3   OH232508   4.472   0.091  16.571 -0.4968 -0.0411  0.2088
 3698TIP3    H132509   4.553   0.047  16.545 -2.3113 -2.6315 -1.2740
 3698TIP3    H232510   4.446   0.140  16.493 -0.1287  1.1577  0.8330
 3699TIP3   OH232511   0.899   1.837  10.598 -0.2571  0.1079  0.4649
 3699TIP3    H132512   0.846   1.790  10.534 -0.6131  2.8397 -1.3200
 3699TIP3    H232513   0.900   1.928  10.567  3.0266  0.7023  2.0802
 3700TIP3   OH232514   5.834   4.919  17.005  0.0441  0.5470 -0.1884
 3700TIP3    H132515   5.779   4.928  17.083 -1.3580  0.6508 -1.1653
 3700TIP3    H232516   5.880   5.002  16.998 -0.0191  0.6306  0.3805
 3701TIP3   OH232517   1.235   6.412  12.265 -0.4811  0.0563  0.5488
 3701TIP3    H132518   1.323   6.389  12.295  0.6009  1.5094 -1.3404
 3701TIP3    H232519   1.241   6.505  12.244 -2.3189  0.0360 -0.1678
 3702TIP3   OH232520   6.345   0.585  14.308 -0.0679 -0.0899 -0.3850
 3702TIP3    H132521   6.288   0.644  14.258  0.2078  0.0060 -0.5842
 3702TIP3    H232522   6.417   0.565  14.248  0.6750  0.6505  0.2426
 3703TIP3   OH232523   5.479   3.730  12.699 -0.7840 -0.5902  0.1953
 3703TIP3    H132524   5.402   3.708  12.646 -1.3148  1.1506  0.2077
 3703TIP3    H232525   5.482   3.826  12.698  1.6443 -0.6413 -0.1672
 3704TIP3   OH232526   0.304   4.287  12.781 -0.1463  0.1705  0.2296
 3704TIP3    H132527   0.259   4.251  12.705 -1.0237  0.3896  0.6400
 3704TIP3    H232528   0.270   4.376  12.788  1.2830  0.7765 -0.1971
 3705TIP3   OH232529   1.493   4.728   5.276 -0.3279  0.3841 -0.6902
 3705TIP3    H132530   1.445   4.648   5.295  0.9458 -0.3720 -0.5719
 3705TIP3    H232531   1.539   4.749   5.358 -0.1022  0.8383 -0.9278
 3706TIP3   OH232532   6.690   2.738   5.417 -0.6932 -0.3941  0.3215
 3706TIP3    H132533   6.644   2.812   5.378 -0.6494 -1.2087 -1.3574
 3706TIP3    H232534   6.772   2.775   5.450 -0.4165  0.2417 -1.0182
 3707TIP3   OH232535   5.015   0.817   2.852  0.4315 -0.5400 -0.1685
 3707TIP3    H132536   5.009   0.903   2.894 -0.3326 -0.3551 -0.6444
 3707TIP3    H232537   4.953   0.762   2.900  0.8961 -0.8152  0.1141
 3708TIP3   OH232538   4.772   6.329  12.355 -0.6437 -0.0564 -0.0591
 3708TIP3    H132539   4.737   6.306  12.269  1.3137  2.1345 -1.5074
 3708TIP3    H232540   4.709   6.392  12.390 -2.0554 -1.8312  0.6478
 3709TIP3   OH232541   2.884   6.628  12.881 -1.1728  0.2188 -0.3260
 3709TIP3    H132542   2.817   6.569  12.845 -0.6952 -1.0088  0.7577
 3709TIP3    H232543   2.867   6.628  12.975 -1.4038  2.1449 -0.3581
 3710TIP3   OH232544   5.144   6.437  13.712 -0.7649  0.2870 -0.3680
 3710TIP3    H132545   5.075   6.494  13.747 -0.1255  0.3376  0.8384
 3710TIP3    H232546   5.218   6.495  13.697 -1.7883  0.7502 -4.2597
 3711TIP3   OH232547   1.852   0.043  11.985  0.1802  0.0818  0.1670
 3711TIP3    H132548   1.785   0.069  12.048 -0.7573  1.0762 -1.2213
 3711TIP3    H232549   1.805   0.036  11.902  1.5915 -0.3088 -0.6101
 3712TIP3   OH232550   5.426   5.295   4.557  0.4350 -0.5499 -0.0274
 3712TIP3    H132551   5.427   5.391   4.563 -1.0256 -0.5620  0.5350
 3712TIP3    H232552   5.492   5.266   4.620 -0.7548  0.0059  1.4932
 3713TIP3   OH232553   3.550   0.870  13.425  0.0154  0.2653 -0.1391
 3713TIP3    H132554   3.466   0.824  13.417  0.6141 -1.1340  1.3575
 3713TIP3    H232555   3.602   0.815  13.483  0.8462  2.7502  1.5624
 3714TIP3   OH232556   4.221   0.452  16.408 -0.1493  0.2006  0.1172
 3714TIP3    H132557   4.142   0.399  16.392 -0.2331 -0.0696  1.3453
 3714TIP3    H232558   4.262   0.411  16.485  0.8844  0.6853 -0.1711
 3715TIP3   OH232559   1.359   1.696  13.186  0.1487  0.8298 -0.2521
 3715TIP3    H132560   1.425   1.715  13.253 -0.1351 -0.8239  0.5143
 3715TIP3    H232561   1.276   1.710  13.231 -0.0496 -1.0684 -0.0130
 3716TIP3   OH232562   3.862   3.269  11.181  0.0864  0.1156 -0.5745
 3716TIP3    H132563   3.888   3.330  11.112  0.8854 -0.8166 -1.1236
 3716TIP3    H232564   3.805   3.206  11.137 -1.7388  1.1698  0.2600
 3717TIP3   OH232565   4.430   5.419   0.452  0.0436  0.1642  0.6497
 3717TIP3    H132566   4.345   5.378   0.471  0.1884 -0.1231  0.6768
 3717TIP3    H232567   4.491   5.378   0.513  0.8817 -2.1153 -1.6388
 3718TIP3   OH232568   1.797   0.707   2.647  0.0522  0.1771 -0.0985
 3718TIP3    H132569   1.794   0.633   2.585 -1.6571  1.5193 -1.6691
 3718TIP3    H232570   1.836   0.670   2.726  0.8914 -1.9684 -1.4672
 3719TIP3   OH232571   2.955   4.844  14.288  0.2988 -0.5877 -0.6029
 3719TIP3    H132572   2.931   4.829  14.197 -0.9898  1.0747 -0.5602
 3719TIP3    H232573   2.884   4.804  14.338  0.4815 -0.5849 -0.3426
 3720TIP3   OH232574   5.603   5.891  12.970  0.0289  0.0866  0.1376
 3720TIP3    H132575   5.668   5.856  12.909  0.3935 -1.2513  1.2619
 3720TIP3    H232576   5.646   5.966  13.011  0.3114  0.1152 -0.2111
 3721TIP3   OH232577   5.910   1.799  15.659 -0.0675 -0.3492  0.4489
 3721TIP3    H132578   5.986   1.767  15.609 -0.6019  0.9276 -1.2258
 3721TIP3    H232579   5.945   1.872  15.711 -0.0637 -0.0354  0.0029
 3722TIP3   OH232580   0.535   0.372  15.434 -0.7341 -0.5183 -0.0076
 3722TIP3    H132581   0.457   0.360  15.488  0.6629 -1.7773  1.7641
 3722TIP3    H232582   0.600   0.410  15.493  0.4415 -0.7910 -1.1042
 3723TIP3   OH232583   0.690   5.020  17.201  0.2100 -0.3949  0.9537
 3723TIP3    H132584   0.635   4.946  17.227 -0.5214 -0.6528 -1.1900
 3723TIP3    H232585   0.730   4.992  17.119  1.2791  0.9310  1.0064
 3724TIP3   OH232586   3.297   0.028   3.628  0.8095 -0.0754 -0.1979
 3724TIP3    H132587   3.294  -0.067   3.630 -0.2562 -0.0921 -1.6563
 3724TIP3    H232588   3.356   0.049   3.555 -0.5817  0.3745 -1.2075
 3725TIP3   OH232589   4.441   4.679  11.967 -0.3870 -0.0853  0.8967
 3725TIP3    H132590   4.477   4.746  12.025 -0.0390 -1.3656  2.1909
 3725TIP3    H232591   4.517   4.630  11.938 -0.3501  1.7138 -2.1954
 3726TIP3   OH232592   2.802   5.537  12.114  0.4152 -0.2650 -0.1483
 3726TIP3    H132593   2.737   5.533  12.184  1.1022  1.0358  0.5780
 3726TIP3    H232594   2.753   5.511  12.035 -0.6508 -0.5810  0.5983
 3727TIP3   OH232595   4.929   4.500   1.011  0.5501 -0.1801 -0.3676
 3727TIP3    H132596   4.902   4.499   1.103  0.1954  0.5277 -0.4584
 3727TIP3    H232597   4.967   4.414   0.996 -2.5695 -1.6282 -0.4883
 3728TIP3   OH232598   3.003   0.729  10.941  0.2905 -0.4710 -0.4447
 3728TIP3    H132599   3.058   0.681  10.880 -0.8827 -1.2561 -0.8990
 3728TIP3    H232600   2.919   0.739  10.896  0.1495  0.9827  0.1063
 3729TIP3   OH232601   3.487   1.416  15.733  0.0730  0.2395  0.0709
 3729TIP3    H132602   3.516   1.483  15.795  2.2350  1.0686 -1.7496
 3729TIP3    H232603   3.433   1.356  15.785  1.7940  0.9165  2.7286
 3730TIP3   OH232604   6.325   1.823   5.197  0.6070  0.0919 -0.3895
 3730TIP3    H132605   6.408   1.871   5.193  0.6727 -0.0248 -0.4047
 3730TIP3    H232606   6.342   1.750   5.256  0.5549 -0.0123 -0.5032
 3731TIP3   OH232607   3.994   0.713  13.112 -0.8544  0.7538 -0.0489
 3731TIP3    H132608   4.039   0.733  13.193 -0.7550  1.2168 -0.2178
 3731TIP3    H232609   4.059   0.669  13.058 -0.8445  0.6853  0.0187
 3732TIP3   OH232610   0.975   2.338  12.991 -0.0895 -0.7306  0.5042
 3732TIP3    H132611   0.943   2.313  13.078 -1.3755  0.1499  0.3003
 3732TIP3    H232612   0.990   2.432  12.997  2.6978 -1.1371  0.6302
 3733TIP3   OH232613   4.886   3.275   0.013 -0.1186  0.3875 -0.1226
 3733TIP3    H132614   4.815   3.260  -0.050  0.2562  1.2933 -0.7753
 3733TIP3    H232615   4.898   3.370   0.012  1.9940  0.1388 -0.9899
 3734TIP3   OH232616   2.347   1.653   3.965 -0.0288 -0.1505 -0.1151
 3734TIP3    H132617   2.281   1.707   4.008 -0.8883 -0.7299 -0.6879
 3734TIP3    H232618   2.430   1.681   4.004 -0.3588  2.2063 -1.0269
 3735TIP3   OH232619   0.196   3.020  13.395  0.1077  0.2582 -0.4701
 3735TIP3    H132620   0.246   2.981  13.467  1.4969  1.2401 -0.8533
 3735TIP3    H232621   0.143   3.088  13.437 -1.3968 -1.2048  0.0281
 3736TIP3   OH232622   6.093   0.944  13.280  0.4375  0.0819  0.6831
 3736TIP3    H132623   6.177   0.917  13.316  0.7620  0.5610  0.2833
 3736TIP3    H232624   6.048   0.989  13.352 -0.3245 -1.9640  1.5264
 3737TIP3   OH232625   0.835   6.758   1.189  0.5958 -0.1021  0.5232
 3737TIP3    H132626   0.912   6.783   1.240  0.4485 -0.0511  0.7246
 3737TIP3    H232627   0.799   6.842   1.159  1.2239 -0.1804 -0.4748
 3738TIP3   OH232628   5.782   2.101  14.243  0.4075 -0.7385 -0.2458
 3738TIP3    H132629   5.693   2.135  14.243  0.6771 -0.0164 -0.0780
 3738TIP3    H232630   5.798   2.073  14.153  1.2407  2.4369 -1.1634
 3739TIP3   OH232631   3.237   2.264   1.729  0.7615  0.2071  0.0990
 3739TIP3    H132632   3.168   2.202   1.704  0.9801  0.6687 -1.7677
 3739TIP3    H232633   3.295   2.267   1.652  1.2164  2.0782  0.4843
 3740TIP3   OH232634   0.555   3.869  15.770  0.5046  0.4922 -0.2842
 3740TIP3    H132635   0.556   3.773  15.770  1.8396  0.4986  0.9326
 3740TIP3    H232636   0.529   3.892  15.681 -1.9871 -1.0115 -0.0086
 3741TIP3   OH232637   6.137   0.327   2.592 -0.3344 -0.4236 -0.4252
 3741TIP3    H132638   6.092   0.315   2.676 -1.3125  1.6873 -0.6004
 3741TIP3    H232639   6.193   0.404   2.606  0.5340 -0.8793 -1.3132
 3742TIP3   OH232640   4.742   6.242   6.585 -0.0766 -0.0984 -0.3769
 3742TIP3    H132641   4.778   6.189   6.514 -0.2987  0.2638 -0.7643
 3742TIP3    H232642   4.818   6.270   6.636  0.2134  0.7654 -1.2560
 3743TIP3   OH232643   3.207   1.455  10.365 -0.0843  0.1881 -0.1393
 3743TIP3    H132644   3.131   1.453  10.424  0.2632 -3.2941  0.3458
 3743TIP3    H232645   3.275   1.498  10.416 -0.1446 -1.7206  1.6597
 3744TIP3   OH232646   6.163   0.281   3.189  0.9285 -0.1192  0.1640
 3744TIP3    H132647   6.123   0.257   3.106  0.2126 -1.1461  0.7904
 3744TIP3    H232648   6.236   0.221   3.199  0.9861 -0.0263  0.3078
 3745TIP3   OH232649   1.667   4.888  14.667  0.3192 -0.3961  0.1709
 3745TIP3    H132650   1.640   4.839  14.590  1.9452  0.2735 -0.8618
 3745TIP3    H232651   1.658   4.980  14.641 -0.4050 -0.1513  1.2497
 3746TIP3   OH232652   5.349   4.044  14.877 -0.2724  0.5623 -0.2987
 3746TIP3    H132653   5.264   4.022  14.915 -0.5149  1.6015 -0.2252
 3746TIP3    H232654   5.388   4.106  14.939  1.1170 -0.8980  0.3488
 3747TIP3   OH232655   6.322   3.027   1.997  0.1168  0.4272 -0.0907
 3747TIP3    H132656   6.374   3.084   1.941  0.3864  3.0806  2.7766
 3747TIP3    H232657   6.360   3.037   2.084 -1.7014 -1.8857  1.0105
 3748TIP3   OH232658   5.770   1.762  16.333 -0.8422 -0.0313 -0.0017
 3748TIP3    H132659   5.824   1.731  16.261  0.4062 -0.7181  1.1870
 3748TIP3    H232660   5.749   1.682  16.383  0.6196  0.7040  1.8930
 3749TIP3   OH232661   4.826   1.560  15.284  0.3701  0.3211 -0.4982
 3749TIP3    H132662   4.741   1.549  15.240 -0.2089 -1.8439  1.0844
 3749TIP3    H232663   4.881   1.490  15.247 -0.2250 -1.7408  2.3602
 3750TIP3   OH232664   3.240   1.525  14.926  0.1896  0.2362  0.3951
 3750TIP3    H132665   3.213   1.434  14.914  0.1180  0.0407  1.8835
 3750TIP3    H232666   3.302   1.542  14.855  1.7043 -1.5824  1.2387
 3751TIP3   OH232667   4.245   0.704  11.269 -0.2883  0.1817  0.2644
 3751TIP3    H132668   4.225   0.620  11.311  3.1166  0.3610  2.4486
 3751TIP3    H232669   4.243   0.768  11.340  0.8943  1.3113 -0.7008
 3752TIP3   OH232670   3.743   0.611  12.113 -0.2657  0.3714  0.0501
 3752TIP3    H132671   3.783   0.575  12.193  0.5023  0.4974 -0.2713
 3752TIP3    H232672   3.791   0.569  12.042 -1.1653  0.0205 -0.3469
 3753TIP3   OH232673   4.221   6.365  13.615  0.2970  0.4824 -0.2365
 3753TIP3    H132674   4.165   6.382  13.539  1.6243  1.1077 -1.0788
 3753TIP3    H232675   4.175   6.407  13.688 -0.3644  0.9511 -0.9158
 3754TIP3   OH232676   6.676   0.712   0.799 -0.6703  0.5161 -0.4486
 3754TIP3    H132677   6.664   0.804   0.823  1.0752  0.7381 -0.3085
 3754TIP3    H232678   6.757   0.712   0.747 -1.9366 -0.6136 -2.4509
 3755TIP3   OH232679   0.834   1.175  12.402 -0.2220 -0.5863  0.2013
 3755TIP3    H132680   0.808   1.187  12.311  0.3392  0.7535  0.2143
 3755TIP3    H232681   0.783   1.240  12.451 -1.1944 -1.9032  0.9670
 3756TIP3   OH232682   4.089   0.434   2.777 -0.3706 -0.2239 -0.4769
 3756TIP3    H132683   4.172   0.457   2.736 -0.4356 -1.2624 -1.2243
 3756TIP3    H232684   4.025   0.441   2.707 -1.1692  1.9864  0.4433
 3757TIP3   OH232685   0.513   6.651   3.219  0.9466  0.2886 -0.0823
 3757TIP3    H132686   0.500   6.673   3.127  3.2939 -1.5450 -0.8783
 3757TIP3    H232687   0.564   6.571   3.218 -0.9057 -1.0259  2.8207
 3758TIP3   OH232688   0.353   6.469  14.388 -0.0210 -0.7184  0.2615
 3758TIP3    H132689   0.325   6.497  14.475 -1.4383 -1.0835 -0.0621
 3758TIP3    H232690   0.421   6.532  14.364 -0.7508  0.3661  0.9725
 3759TIP3   OH232691   3.143   3.005  16.485 -0.1042 -0.0075 -0.1155
 3759TIP3    H132692   3.141   2.952  16.405 -1.5715 -2.3272  1.4078
 3759TIP3    H232693   3.236   3.023  16.499  0.3965 -1.7812 -0.9668
 3760TIP3   OH232694   2.874   2.279  11.591  0.4812 -0.2348 -0.2198
 3760TIP3    H132695   2.914   2.365  11.579 -0.9628  0.3926 -0.5571
 3760TIP3    H232696   2.784   2.297  11.617  0.5759 -1.6447  1.2033
 3761TIP3   OH232697   5.842   5.257   5.693  0.4717 -0.5078  0.0145
 3761TIP3    H132698   5.781   5.217   5.755 -0.2112  0.2949 -0.1337
 3761TIP3    H232699   5.841   5.200   5.617 -1.9079  0.7665 -0.9405
 3762TIP3   OH232700   0.202   5.845  16.185 -0.0266  0.4178  0.5197
 3762TIP3    H132701   0.223   5.826  16.094  0.1618  1.4071  0.3483
 3762TIP3    H232702   0.283   5.828  16.233 -0.7584 -2.3612  0.8700
 3763TIP3   OH232703   5.492   4.167   1.538 -0.1387  0.0572 -0.5643
 3763TIP3    H132704   5.534   4.233   1.594 -0.0628 -0.7329  0.3194
 3763TIP3    H232705   5.402   4.162   1.570 -0.0229 -0.5857 -0.3259
 3764TIP3   OH232706   3.397   4.786   5.496 -0.2391 -0.4147 -0.6009
 3764TIP3    H132707   3.419   4.715   5.434 -0.4081 -0.2658 -0.8324
 3764TIP3    H232708   3.361   4.855   5.441 -1.6564 -0.8021 -0.1817
 3765TIP3   OH232709   6.261   0.030  10.898 -0.8796 -0.0782  0.0363
 3765TIP3    H132710   6.236  -0.061  10.887 -2.4745  0.5275 -1.4304
 3765TIP3    H232711   6.184   0.073  10.935  0.2353  0.4641  1.8076
 3766TIP3   OH232712   3.702   3.191   0.294  0.3104  0.6024 -0.3912
 3766TIP3    H132713   3.766   3.263   0.289  2.9039 -1.5934 -0.3281
 3766TIP3    H232714   3.738   3.133   0.361 -0.8476 -1.5559 -1.6141
 3767TIP3   OH232715   3.168   4.091   5.223 -0.3803  0.5143  0.0750
 3767TIP3    H132716   3.177   4.046   5.139 -1.7778 -0.4823  0.4381
 3767TIP3    H232717   3.089   4.144   5.214  0.1178  1.3042  0.3593
 3768TIP3   OH232718   1.197   0.447   5.289 -0.4777  0.5546 -0.1551
 3768TIP3    H132719   1.146   0.527   5.273 -0.9842  0.4058  0.7019
 3768TIP3    H232720   1.284   0.479   5.315 -0.1495  0.8088 -1.5155
 3769TIP3   OH232721   6.560   0.851   4.798 -0.3239  0.4807 -0.1296
 3769TIP3    H132722   6.487   0.878   4.854 -1.7173 -2.0091 -0.6344
 3769TIP3    H232723   6.636   0.849   4.855 -1.3249 -0.0505  1.2110
 3770TIP3   OH232724   5.396   1.615   5.439 -0.1333 -0.2793  0.7438
 3770TIP3    H132725   5.456   1.545   5.464  0.0631 -1.5767 -3.0283
 3770TIP3    H232726   5.309   1.577   5.449 -0.1072 -0.2976  0.8943
 3771TIP3   OH232727   6.606   4.763   4.089  0.3088 -0.7110 -0.9780
 3771TIP3    H132728   6.519   4.723   4.084  0.4804 -1.2830  0.4464
 3771TIP3    H232729   6.598   4.832   4.154  0.7076 -0.1874 -1.4729
 3772TIP3   OH232730   0.234   4.215   5.426 -0.1523 -0.0224 -0.5055
 3772TIP3    H132731   0.197   4.304   5.420  0.2250  0.2370  0.7260
 3772TIP3    H232732   0.169   4.166   5.476 -0.8125 -0.7087 -2.0162
 3773TIP3   OH232733   5.318   1.940  11.249 -0.4544 -0.3606 -0.3805
 3773TIP3    H132734   5.410   1.925  11.227  0.3568  0.2984  2.4450
 3773TIP3    H232735   5.307   2.035  11.244 -0.1262 -0.1467  2.4180
 3774TIP3   OH232736   6.438   2.923   5.021  0.0144  0.1067  0.5027
 3774TIP3    H132737   6.405   2.887   4.939 -0.5477  0.0832  0.7422
 3774TIP3    H232738   6.519   2.969   4.995 -0.2469  0.2408 -0.0896
 3775TIP3   OH232739   1.781   6.356  12.808  0.0097 -0.1649  0.0201
 3775TIP3    H132740   1.726   6.387  12.881 -0.9234  1.0943 -1.1864
 3775TIP3    H232741   1.719   6.330  12.741  0.8748  0.2553 -0.9536
 3776TIP3   OH232742   5.253   6.095   1.354  0.0184  0.2699  0.6594
 3776TIP3    H132743   5.212   6.162   1.299 -0.0965  0.9665  1.5912
 3776TIP3    H232744   5.343   6.125   1.366  0.2083 -0.1821  0.3687
 3777TIP3   OH232745   4.167   1.349   0.058 -0.4177  0.2321 -0.1606
 3777TIP3    H132746   4.192   1.262   0.091 -0.1543  1.2628  2.5581
 3777TIP3    H232747   4.093   1.375   0.113 -1.0409  1.3788 -1.5132
 3778TIP3   OH232748   6.635   5.582   2.318  0.5181 -0.1044  0.1725
 3778TIP3    H132749   6.630   5.488   2.299  0.0291 -0.1544  0.5463
 3778TIP3    H232750   6.622   5.624   2.233  1.0302 -0.3793 -0.0443
 3779TIP3   OH232751   6.329   6.044   6.000  0.0961  0.2419  0.0781
 3779TIP3    H132752   6.421   6.046   6.025 -0.4115  0.3897  2.0181
 3779TIP3    H232753   6.305   6.137   5.992  0.0577  0.2091 -0.1791
 3780TIP3   OH232754   0.563   0.728  10.450 -0.1335  0.1867  0.2071
 3780TIP3    H132755   0.656   0.733  10.474  0.3642  0.8205 -1.7232
 3780TIP3    H232756   0.536   0.820  10.440 -1.7063  0.1079  3.3469
 3781TIP3   OH232757   4.892   5.303   4.856  0.3600  0.1121  0.0374
 3781TIP3    H132758   4.804   5.311   4.819  0.2788 -0.0176  0.1997
 3781TIP3    H232759   4.951   5.329   4.785  0.2743 -1.4077 -0.6169
 3782TIP3   OH232760   4.359   5.210  11.277 -0.6995 -0.0363 -0.0588
 3782TIP3    H132761   4.360   5.128  11.227  0.8273  0.2699 -0.5337
 3782TIP3    H232762   4.277   5.252  11.251 -0.8112 -0.7576 -0.8943
 3783TIP3   OH232763   4.218   5.260  15.270  0.2059  0.4565  0.2413
 3783TIP3    H132764   4.133   5.245  15.311  0.7461 -2.5184  0.3398
 3783TIP3    H232765   4.200   5.326  15.203 -1.9509  0.6697  0.9815
 3784TIP3   OH232766   4.451   3.781   5.552 -0.4186 -0.7534 -0.0810
 3784TIP3    H132767   4.376   3.834   5.526  0.0421 -1.0267 -1.9942
 3784TIP3    H232768   4.524   3.817   5.503  0.4281 -1.4086  0.6939
 3785TIP3   OH232769   6.636   0.872   5.335  0.5405  0.2623  0.3986
 3785TIP3    H132770   6.720   0.894   5.374  1.3199 -1.9753  0.0310
 3785TIP3    H232771   6.621   0.780   5.359 -1.4106  0.3871 -0.2123
 3786TIP3   OH232772   5.450   1.181  15.208  0.1778  0.0453  0.4917
 3786TIP3    H132773   5.543   1.161  15.210 -0.6314 -4.3664 -0.9988
 3786TIP3    H232774   5.412   1.129  15.278 -1.3169  1.0285  0.4469
 3787TIP3   OH232775   4.282   5.432   3.324 -0.4064 -0.2441 -0.1738
 3787TIP3    H132776   4.372   5.402   3.335 -0.3761 -0.5900 -1.3104
 3787TIP3    H232777   4.229   5.358   3.352 -0.3286 -1.0454 -2.0500
 3788TIP3   OH232778   1.901   0.500   3.609 -0.5238 -0.4507 -0.1858
 3788TIP3    H132779   1.861   0.586   3.600 -0.9911 -0.8302 -1.7792
 3788TIP3    H232780   1.921   0.493   3.703 -1.3613  0.9842  0.1148
 3789TIP3   OH232781   2.682   1.493  14.028 -0.2770  0.4985  0.4115
 3789TIP3    H132782   2.683   1.443  13.947 -0.4635 -0.9866  1.3068
 3789TIP3    H232783   2.613   1.558  14.016 -0.0590  0.5178 -0.7442
 3790TIP3   OH232784   3.139   5.659   6.132  1.5634  0.2376 -0.4924
 3790TIP3    H132785   3.206   5.726   6.147  1.6050  0.0067  0.3424
 3790TIP3    H232786   3.156   5.592   6.198  0.6702  0.0496 -0.4524
 3791TIP3   OH232787   5.551   0.686  13.425  0.0736 -0.5698  0.3413
 3791TIP3    H132788   5.457   0.705  13.431 -0.1610 -0.6622 -2.5035
 3791TIP3    H232789   5.591   0.770  13.404  0.5883 -0.6110  1.1507
 3792TIP3   OH232790   3.973   5.248   6.489 -0.1006 -0.2627 -0.2853
 3792TIP3    H132791   4.063   5.243   6.457 -0.8059 -2.8659 -2.0254
 3792TIP3    H232792   3.927   5.301   6.423 -0.2950 -0.7350 -0.5317
 3793TIP3   OH232793   0.650   1.636  14.873 -0.2195 -0.3472 -0.0826
 3793TIP3    H132794   0.669   1.662  14.964 -1.0072  0.6968 -0.2133
 3793TIP3    H232795   0.664   1.541  14.873  1.9362 -0.0734  0.5878
 3794TIP3   OH232796   2.578   5.647  14.619  0.1381 -0.3357  0.6418
 3794TIP3    H132797   2.494   5.630  14.578  1.2630 -0.9409 -1.4811
 3794TIP3    H232798   2.609   5.561  14.648  0.1162 -0.1465  1.2267
 3795TIP3   OH232799   4.930   1.471   4.805  0.1997 -0.6718  0.1603
 3795TIP3    H132800   4.869   1.418   4.856 -1.3717  1.1591  0.2260
 3795TIP3    H232801   4.906   1.454   4.714 -0.6242  0.2777  0.1941
 3796TIP3   OH232802   0.666   1.227  15.356 -0.2316  0.3648  0.2112
 3796TIP3    H132803   0.731   1.246  15.289 -0.8427  0.9566 -0.2194
 3796TIP3    H232804   0.716   1.192  15.430  0.4128 -0.6407 -0.6859
 3797TIP3   OH232805   5.440   3.553   3.851  0.0524  0.0575  0.3269
 3797TIP3    H132806   5.403   3.533   3.937  0.6925 -0.4792  0.4717
 3797TIP3    H232807   5.389   3.629   3.821 -0.9502 -0.4680  0.6714
 3798TIP3   OH232808   0.951   5.734   0.818 -0.4364 -0.4234 -0.0070
 3798TIP3    H132809   0.957   5.821   0.858 -1.0224  0.2823 -1.4134
 3798TIP3    H232810   1.010   5.679   0.870  0.7487  1.0634  0.2447
 3799TIP3   OH232811   2.438   5.168   2.509 -0.0018  0.0372 -0.0397
 3799TIP3    H132812   2.385   5.203   2.581  0.8454 -0.9702  1.1087
 3799TIP3    H232813   2.524   5.206   2.522 -0.2942  1.2546 -1.5911
 3800TIP3   OH232814   1.897   6.198  16.361  0.0022  0.7045 -0.5610
 3800TIP3    H132815   1.932   6.138  16.295  0.0827  1.3920 -1.1543
 3800TIP3    H232816   1.968   6.258  16.379  0.1625  0.1898  0.5756
 3801TIP3   OH232817   3.170   5.649   3.057  0.5839  0.0492 -0.1894
 3801TIP3    H132818   3.121   5.574   3.024  1.5702 -0.2458 -1.0090
 3801TIP3    H232819   3.198   5.697   2.979  1.2140  0.4560  0.2720
 3802TIP3   OH232820   5.397   3.864   2.923  0.8423 -0.2540 -0.1885
 3802TIP3    H132821   5.389   3.903   3.011 -0.3674 -0.2218 -0.3096
 3802TIP3    H232822   5.314   3.884   2.881  1.3454 -0.4637 -1.2765
 3803TIP3   OH232823   0.533   3.033  14.307 -0.5309  0.8603 -0.1689
 3803TIP3    H132824   0.557   2.991  14.390 -0.4570 -0.1306 -0.6803
 3803TIP3    H232825   0.617   3.048  14.264 -0.6359  0.3555 -0.5488
 3804TIP3   OH232826   3.409   0.805  12.165  0.0855 -0.6029  0.2957
 3804TIP3    H132827   3.452   0.807  12.251 -0.2002  0.3448  0.4327
 3804TIP3    H232828   3.400   0.897  12.141 -0.3199 -0.8476 -0.5093
 3805TIP3   OH232829   3.027   1.145  14.544  0.0772 -0.6072 -0.1513
 3805TIP3    H132830   3.096   1.100  14.494 -0.2258  0.7382 -1.8425
 3805TIP3    H232831   2.977   1.074  14.585  0.7442 -1.7284 -1.2297
 3806TIP3   OH232832   3.404   3.113  14.144 -0.1325 -0.6275  0.1363
 3806TIP3    H132833   3.494   3.136  14.119  0.8034 -2.9810  1.1816
 3806TIP3    H232834   3.354   3.118  14.063  1.2239 -0.5586 -0.7109
 3807TIP3   OH232835   5.007   0.924  13.986  0.2199 -0.2208 -0.2605
 3807TIP3    H132836   5.046   0.985  14.048  0.0921  0.0897 -0.4862
 3807TIP3    H232837   4.990   0.845  14.038  0.3259 -0.0448  0.0460
 3808TIP3   OH232838   2.833   0.010   1.179 -0.2208  1.1031  0.2026
 3808TIP3    H132839   2.743  -0.010   1.205 -0.9066  0.8535 -2.1674
 3808TIP3    H232840   2.858  -0.063   1.123  0.5392  2.4007 -1.1909
 3809TIP3   OH232841   0.013   5.217   3.972 -0.5051 -0.5141 -0.1905
 3809TIP3    H132842   0.017   5.246   3.881 -1.5284 -1.7751 -0.6620
 3809TIP3    H232843   0.072   5.141   3.974  0.6897  0.4175  0.5710
 3810TIP3   OH232844   1.809   0.499  15.486  0.3839  0.3956 -0.3179
 3810TIP3    H132845   1.880   0.452  15.444 -0.4342  0.9218 -2.3451
 3810TIP3    H232846   1.732   0.479  15.434 -1.0980 -0.5937  2.1501
 3811TIP3   OH232847   0.764   3.126  13.384  0.0264 -0.4670 -0.4168
 3811TIP3    H132848   0.787   3.219  13.386  3.0564 -1.1507 -0.3557
 3811TIP3    H232849   0.669   3.124  13.372  0.0600  2.6274 -1.4727
 3812TIP3   OH232850   1.850   1.845  16.478 -0.3618  0.1012  0.0793
 3812TIP3    H132851   1.822   1.892  16.399 -0.7668 -2.1458 -1.1484
 3812TIP3    H232852   1.910   1.778  16.446  1.5886  0.8474  2.0124
 3813TIP3   OH232853   5.002   2.139  16.932 -0.4958 -0.3782  0.2016
 3813TIP3    H132854   4.960   2.220  16.902 -0.1285  0.6307  2.3349
 3813TIP3    H232855   5.064   2.167  16.999  2.3676 -2.0220 -1.6215
 3814TIP3   OH232856   4.736   0.625   3.497 -0.0029 -0.3732 -0.4911
 3814TIP3    H132857   4.814   0.678   3.517  0.0734 -0.8263  0.4116
 3814TIP3    H232858   4.706   0.659   3.412  0.1628  0.9761 -0.0253
 3815TIP3   OH232859   1.409   6.635   1.136 -0.4945  0.1957 -0.1487
 3815TIP3    H132860   1.435   6.570   1.071  0.1870  1.6589 -1.3481
 3815TIP3    H232861   1.328   6.673   1.102 -1.1293 -0.3078  0.7643
 3816TIP3   OH232862   5.586   3.414   5.362 -0.2294  0.5102  0.4339
 3816TIP3    H132863   5.549   3.348   5.303 -0.3697  0.9666  0.0094
 3816TIP3    H232864   5.541   3.495   5.338  0.6344  0.9560  0.3085
 3817TIP3   OH232865   2.591   0.210  16.710  0.9798  0.3397 -0.2028
 3817TIP3    H132866   2.550   0.251  16.634  1.7141  0.0794 -0.7385
 3817TIP3    H232867   2.655   0.148  16.674 -0.7072 -1.9354  0.5833
 3818TIP3   OH232868   5.071   5.060   3.972 -0.8595  0.1583 -0.5403
 3818TIP3    H132869   5.001   5.036   3.911 -3.2121  1.2003  1.6248
 3818TIP3    H232870   5.053   5.006   4.050 -0.6287  2.1066  0.8858
 3819TIP3   OH232871   6.466   4.104  14.647 -0.0201  0.5771  0.1030
 3819TIP3    H132872   6.377   4.076  14.626  0.5970 -0.9163 -0.6126
 3819TIP3    H232873   6.465   4.199  14.636 -1.5291  0.5648  0.1297
 3820TIP3   OH232874   1.750   0.801  14.989 -0.2062 -0.6416 -0.0888
 3820TIP3    H132875   1.734   0.890  15.020  0.1475 -0.8057  0.5628
 3820TIP3    H232876   1.836   0.778  15.024 -0.3099 -1.2539 -0.2269
 3821TIP3   OH232877   3.936   0.342   5.563 -0.6608 -0.1883 -0.0335
 3821TIP3    H132878   3.992   0.286   5.510 -1.2379 -2.8307  2.0841
 3821TIP3    H232879   3.849   0.329   5.527 -0.7226 -0.2563  0.1430
 3822TIP3   OH232880   1.148   6.088  16.795 -0.6051 -0.6970  0.0595
 3822TIP3    H132881   1.205   6.018  16.762 -1.7576 -0.9385 -1.4888
 3822TIP3    H232882   1.205   6.140  16.852  0.4205 -2.5331  0.7565
 3823TIP3   OH232883   6.398   4.901  11.238 -0.6651 -0.4870  0.0892
 3823TIP3    H132884   6.403   4.996  11.230 -0.6288 -0.5406 -0.4953
 3823TIP3    H232885   6.304   4.882  11.234 -0.6486 -0.5115 -0.2113
 3824TIP3   OH232886   6.168   4.464   1.225 -0.2818  0.1087 -0.2460
 3824TIP3    H132887   6.174   4.381   1.178  0.5013  0.2509 -0.4021
 3824TIP3    H232888   6.253   4.475   1.266  0.3811  1.8693 -1.9909
 3825TIP3   OH232889   4.916   3.272  15.383 -0.2512 -0.1719 -0.0714
 3825TIP3    H132890   4.868   3.193  15.410 -0.2779 -0.1691 -0.1129
 3825TIP3    H232891   4.875   3.298  15.301 -0.6836  0.2670  0.2802
 3826TIP3   OH232892   2.770   6.658   5.198 -0.2717 -0.2163 -0.1320
 3826TIP3    H132893   2.706   6.687   5.133  0.0421  0.8924  0.0461
 3826TIP3    H232894   2.736   6.574   5.229 -1.2008 -0.0388 -0.6444
 3827TIP3   OH232895   5.946   3.082  16.432  0.3238  0.0970 -0.3977
 3827TIP3    H132896   6.027   3.128  16.410  0.9772 -1.1257 -0.6173
 3827TIP3    H232897   5.962   3.045  16.519  0.6637 -1.5691 -1.1354
 3828TIP3   OH232898   0.949   1.255  12.746  0.7779 -0.3015 -0.4731
 3828TIP3    H132899   0.991   1.317  12.806 -1.5787 -1.0811  2.0863
 3828TIP3    H232900   0.880   1.306  12.705 -0.6868 -0.9832  1.0865
 3829TIP3   OH232901   1.665   6.235   1.200 -0.4004 -0.2182 -0.4719
 3829TIP3    H132902   1.623   6.290   1.266  0.0401 -2.0483  1.3750
 3829TIP3    H232903   1.746   6.282   1.178 -1.5314  1.4192 -1.2485
 3830TIP3   OH232904   4.874   4.492  13.180  0.4350 -0.2994  0.2155
 3830TIP3    H132905   4.854   4.415  13.234  0.6076 -0.3851  0.1594
 3830TIP3    H232906   4.908   4.557  13.241  2.2199 -0.9846 -0.0175
 3831TIP3   OH232907   5.652   3.714  16.858  0.5081  0.2103 -0.4009
 3831TIP3    H132908   5.652   3.703  16.953 -0.0467  1.5150 -0.2274
 3831TIP3    H232909   5.564   3.690  16.831  0.4492  0.5218 -0.4898
 3832TIP3   OH232910   0.763   3.519  11.323 -0.2415  0.1357 -0.2597
 3832TIP3    H132911   0.853   3.496  11.297 -0.5886 -0.4609 -0.9475
 3832TIP3    H232912   0.734   3.581  11.256  0.1943  1.5106  0.8191
 3833TIP3   OH232913   1.155   0.863  13.913  0.1436 -0.0556  0.0466
 3833TIP3    H132914   1.204   0.801  13.968 -0.0667  0.0432  0.3495
 3833TIP3    H232915   1.107   0.807  13.852  1.1939 -0.1193 -0.7292
 3834TIP3   OH232916   5.059   0.685   4.312  0.2237 -0.4324 -0.3647
 3834TIP3    H132917   5.014   0.618   4.363 -1.8353  0.5657 -0.8292
 3834TIP3    H232918   5.099   0.742   4.378 -1.2508  0.0574  0.1209
 3835TIP3   OH232919   2.233   1.763  16.160  0.3205 -0.8456  0.5030
 3835TIP3    H132920   2.239   1.693  16.094  0.8221 -0.3944  0.0646
 3835TIP3    H232921   2.264   1.841  16.114 -3.0538  0.3094  0.0828
 3836TIP3   OH232922   6.735   5.688   1.508  0.0485 -0.5176  0.0334
 3836TIP3    H132923   6.769   5.692   1.418 -1.2030  3.4335 -0.3499
 3836TIP3    H232924   6.716   5.595   1.522  1.7809 -1.4376 -3.2005
 3837TIP3   OH232925   2.806   2.509   5.066  0.3696 -0.3758 -0.4538
 3837TIP3    H132926   2.766   2.470   5.144  1.1632 -0.0051  0.1514
 3837TIP3    H232927   2.890   2.544   5.097 -0.2168  1.6345 -1.0010
 3838TIP3   OH232928   2.876   4.940   5.902 -0.2896 -0.1532  0.1734
 3838TIP3    H132929   2.797   4.974   5.943 -0.5424 -2.4531  1.6993
 3838TIP3    H232930   2.860   4.846   5.893  2.1164 -0.6048  0.2039
 3839TIP3   OH232931   6.443   1.832   1.136  0.0634  0.0360 -0.0446
 3839TIP3    H132932   6.532   1.801   1.152  0.3529  1.3902  1.0774
 3839TIP3    H232933   6.424   1.805   1.046  1.0231 -1.6208  0.2416
 3840TIP3   OH232934   3.687   3.808  14.161 -0.2681  0.6139  0.0639
 3840TIP3    H132935   3.592   3.816  14.154 -0.2324  0.7290 -0.3296
 3840TIP3    H232936   3.705   3.715  14.143 -0.4119  0.3038  1.4353
 3841TIP3   OH232937   5.555   1.465   2.584 -0.4409 -0.1310  0.2573
 3841TIP3    H132938   5.570   1.406   2.511  0.5670  0.8486 -0.3338
 3841TIP3    H232939   5.632   1.456   2.640  0.8789  2.4408 -1.0952
 3842TIP3   OH232940   6.041   0.611   3.440 -0.1414  0.0211 -0.1287
 3842TIP3    H132941   6.070   0.606   3.531  0.8037  1.0351 -0.3703
 3842TIP3    H232942   6.035   0.704   3.421  0.2168 -0.1813 -1.2784
 3843TIP3   OH232943   4.829   0.592  11.230 -0.1810 -0.4909 -0.3343
 3843TIP3    H132944   4.829   0.600  11.135 -1.0758 -0.0364 -0.3040
 3843TIP3    H232945   4.886   0.663  11.260  1.0361 -1.3494 -0.5733
 3844TIP3   OH232946   4.494   0.630   0.597 -0.3382 -1.1113  0.3532
 3844TIP3    H132947   4.539   0.712   0.578 -2.4764  0.0439  0.0513
 3844TIP3    H232948   4.460   0.601   0.512 -1.1657 -1.3424  0.7550
 3845TIP3   OH232949   2.049   5.751   1.725 -0.6790 -0.0846  0.2223
 3845TIP3    H132950   1.963   5.765   1.764 -0.4273  1.0070  0.3785
 3845TIP3    H232951   2.105   5.817   1.764  0.8279 -2.2859  1.9332
 3846TIP3   OH232952   6.179   1.482  12.854  0.6171  0.5072  0.1532
 3846TIP3    H132953   6.217   1.567  12.878  0.2661  1.2351 -1.7623
 3846TIP3    H232954   6.250   1.436  12.811  0.5088  0.2171  0.2840
 3847TIP3   OH232955   2.023   0.124  13.591  0.6540  0.3347  0.0536
 3847TIP3    H132956   1.947   0.171  13.558  1.0760  0.5962 -0.5405
 3847TIP3    H232957   2.052   0.069  13.518  0.3780 -0.5878  0.6252
 3848TIP3   OH232958   2.055   6.585   0.261  0.2342  0.4091 -0.7254
 3848TIP3    H132959   2.059   6.523   0.188  0.8736  0.6424 -0.8882
 3848TIP3    H232960   2.121   6.651   0.241  2.0147 -0.7425  1.1696
 3849TIP3   OH232961   6.189   4.955   5.842 -0.8358  0.3505  0.2483
 3849TIP3    H132962   6.164   4.998   5.924 -1.9235  0.9645 -0.3995
 3849TIP3    H232963   6.254   5.013   5.803  0.1151 -0.2254  0.9333
 3850TIP3   OH232964   2.623   3.417  15.389  0.0108 -0.7803 -0.3539
 3850TIP3    H132965   2.575   3.418  15.472  0.8041 -1.5318  0.1139
 3850TIP3    H232966   2.593   3.337  15.345  0.9758 -1.3496  0.0217
 3851TIP3   OH232967   2.645   4.537  17.108 -0.1535 -0.3146 -0.3580
 3851TIP3    H132968   2.626   4.631  17.106  2.3479  0.3241  2.3003
 3851TIP3    H232969   2.581   4.502  17.170  0.3889  0.0411  0.4127
 3852TIP3   OH232970   1.858   5.807  13.376  0.2617  0.0099 -0.0425
 3852TIP3    H132971   1.846   5.717  13.345 -1.0377 -0.3932  1.5513
 3852TIP3    H232972   1.801   5.813  13.453 -0.3181  2.4584 -0.6255
 3853TIP3   OH232973   6.197   4.750  15.332  0.1007 -0.3140 -0.1144
 3853TIP3    H132974   6.264   4.818  15.319  0.8470 -0.7839  1.1822
 3853TIP3    H232975   6.220   4.682  15.269 -0.0283  0.1680 -0.6933
 3854TIP3   OH232976   2.762   2.053  13.715  0.2991 -0.3767  0.1847
 3854TIP3    H132977   2.762   1.982  13.651 -2.1717 -0.7415  0.5501
 3854TIP3    H232978   2.804   2.015  13.792  0.5497 -0.8891 -0.2030
 3855TIP3   OH232979   0.140   0.089   3.926 -0.4561 -0.5542  0.0842
 3855TIP3    H132980   0.196   0.026   3.882 -1.0083 -0.5348 -0.6608
 3855TIP3    H232981   0.106   0.042   4.002 -0.9253 -1.1891 -0.5079
 3856TIP3   OH232982   5.902   6.363  12.293  0.1965 -1.3755 -0.0591
 3856TIP3    H132983   5.900   6.459  12.289  1.6696 -1.3665 -1.2837
 3856TIP3    H232984   5.841   6.340  12.363 -1.2216  0.3852 -0.7085
 3857TIP3   OH232985   4.630   5.598  12.548  0.1570 -0.2804 -0.4159
 3857TIP3    H132986   4.586   5.680  12.569  0.5370 -0.2107  0.1024
 3857TIP3    H232987   4.598   5.536  12.614  0.9248 -0.2010  0.0320
 3858TIP3   OH232988   5.015   0.595   3.292 -0.6052  0.4638 -0.7261
 3858TIP3    H132989   5.089   0.624   3.346 -1.9747 -1.1518  2.1649
 3858TIP3    H232990   4.940   0.644   3.327 -1.5145 -0.6267 -1.1174
 3859TIP3   OH232991   2.978   1.100  12.387 -0.5298  1.0115 -0.3846
 3859TIP3    H132992   2.918   1.049  12.333  0.2075  1.8972 -2.0887
 3859TIP3    H232993   2.994   1.180  12.336  0.4695  1.7023  0.9797
 3860TIP3   OH232994   2.433   1.230   2.024 -0.0638  0.5574 -0.1686
 3860TIP3    H132995   2.363   1.216   1.961 -0.5010 -0.0323  0.4445
 3860TIP3    H232996   2.491   1.293   1.982 -0.6250  0.5589 -0.9425
 3861TIP3   OH232997   3.645   3.674  11.859  0.1668  0.2853 -0.1416
 3861TIP3    H132998   3.710   3.615  11.822 -1.5868 -1.7299 -0.0778
 3861TIP3    H232999   3.609   3.627  11.934 -1.8624  1.0650 -0.5746
 3862TIP3   OH233000   5.606   3.457   1.180  0.5397  0.3797 -0.5480
 3862TIP3    H133001   5.636   3.369   1.201  0.4360  0.6026  0.5428
 3862TIP3    H233002   5.524   3.444   1.132 -0.3121 -0.0707  1.0050
 3863TIP3   OH233003   3.554   4.609  15.777 -0.0529  0.6207  0.2034
 3863TIP3    H133004   3.628   4.608  15.716  0.1345  0.2021  0.4362
 3863TIP3    H233005   3.479   4.635  15.724 -0.2708 -1.5891 -0.6458
 3864TIP3   OH233006   4.779   0.424  16.934  0.4446  0.7351 -0.2634
 3864TIP3    H133007   4.827   0.501  16.965  0.8079 -0.2996  1.8383
 3864TIP3    H233008   4.843   0.353  16.940 -0.5996 -0.1841  0.1191
 3865TIP3   OH233009   2.987   0.054   4.458 -0.2414  0.2426 -0.0784
 3865TIP3    H133010   2.898   0.074   4.430 -0.3103  0.5307  0.3333
 3865TIP3    H233011   3.042   0.079   4.383 -0.4388  0.8187 -0.0327
 3866TIP3   OH233012   0.255   4.332  11.658  0.0738 -0.5321 -0.1512
 3866TIP3    H133013   0.210   4.265  11.608  0.6140 -0.4384 -0.7682
 3866TIP3    H233014   0.185   4.391  11.687 -0.0765  0.4764 -2.4002
 3867TIP3   OH233015   3.417   0.757  11.509  0.0977 -0.2414 -0.6172
 3867TIP3    H133016   3.445   0.773  11.599 -0.0722 -2.1541 -0.1960
 3867TIP3    H233017   3.322   0.771  11.511  0.0692 -0.4476 -0.4487
 3868TIP3   OH233018   5.458   4.312  11.905  0.2213 -0.1213  0.5443
 3868TIP3    H133019   5.534   4.327  11.849 -0.0044 -1.7255 -0.2215
 3868TIP3    H233020   5.475   4.227  11.946  0.4909  1.1172  3.1131
 3869TIP3   OH233021   0.552   3.018  12.207  0.3354 -0.2422 -0.2141
 3869TIP3    H133022   0.595   3.091  12.162 -2.5472  3.1876  2.3393
 3869TIP3    H233023   0.591   3.019  12.295  0.2354 -1.7417 -0.1548
 3870TIP3   OH233024   3.069   5.196   4.766 -0.0671 -0.2635  0.6028
 3870TIP3    H133025   3.041   5.139   4.837  0.2258 -1.1779 -0.0055
 3870TIP3    H233026   3.024   5.279   4.782 -2.3938 -1.4062  0.1706
 3871TIP3   OH233027   4.653   3.763  11.172 -0.0801  0.4656  0.9828
 3871TIP3    H133028   4.572   3.715  11.155  1.2438 -1.7670  0.7746
 3871TIP3    H233029   4.704   3.704  11.228  1.6607  1.5613  0.5850
 3872TIP3   OH233030   0.674   0.227   1.718  0.0455 -0.2290 -0.2530
 3872TIP3    H133031   0.588   0.205   1.682  0.1345 -1.5478  0.3409
 3872TIP3    H233032   0.706   0.297   1.661 -1.2563  0.0065 -0.7111
 3873TIP3   OH233033   5.119   1.009  16.411  0.7183 -0.4425 -0.3457
 3873TIP3    H133034   5.190   0.949  16.430  1.5142  0.0484 -1.7077
 3873TIP3    H233035   5.050   0.986  16.474  1.5454 -1.8304  0.0649
 3874TIP3   OH233036   2.611   1.574   4.619  0.0391  0.0824  0.5350
 3874TIP3    H133037   2.633   1.656   4.664 -0.4778  0.0080  0.9248
 3874TIP3    H233038   2.685   1.559   4.559  0.3198  0.6285  0.7413
 3875TIP3   OH233039   0.037   2.207  12.434  0.6238 -0.3068 -0.1611
 3875TIP3    H133040  -0.039   2.255  12.401  0.9264  0.3375  0.0841
 3875TIP3    H233041   0.099   2.209  12.361  1.0754  0.6396  0.2490
 3876TIP3   OH233042   2.172   3.799   0.056  0.3356  0.0813  0.3520
 3876TIP3    H133043   2.079   3.782   0.070  0.2577  0.7850  0.7083
 3876TIP3    H233044   2.174   3.874  -0.002  0.6785  1.5520  2.2173
 3877TIP3   OH233045   3.720   6.092  12.874  0.4434 -0.1409 -0.4432
 3877TIP3    H133046   3.783   6.060  12.809 -0.9550 -1.6424 -1.0897
 3877TIP3    H233047   3.665   6.016  12.893 -0.9809  1.0668  0.3334
 3878TIP3   OH233048   6.091   0.552   5.580  0.2175 -0.1111  0.0574
 3878TIP3    H133049   6.023   0.596   5.529 -1.2575 -2.1905  0.1544
 3878TIP3    H233050   6.172   0.597   5.555 -0.7076  0.1121 -2.7701
 3879TIP3   OH233051   1.663   5.144  15.306 -0.2583 -0.2428 -0.2248
 3879TIP3    H133052   1.749   5.161  15.344  0.7399 -3.4245 -0.8720
 3879TIP3    H233053   1.602   5.196  15.358  1.5461 -1.3108  3.0646
 3880TIP3   OH233054   2.744   1.889  14.271 -0.1914  0.4156  0.5304
 3880TIP3    H133055   2.775   1.974  14.239  0.4791  0.1338  0.4440
 3880TIP3    H233056   2.728   1.903  14.364 -0.5735  0.7778  0.4164
 3881TIP3   OH233057   4.181   0.979  14.930  0.6316 -0.2784  0.2300
 3881TIP3    H133058   4.255   0.927  14.897  1.2704  0.6717  0.1335
 3881TIP3    H233059   4.112   0.914  14.948  0.7036 -0.9453 -1.7816
 3882TIP3   OH233060   6.138   0.785  12.176 -0.6541  0.2743 -0.0109
 3882TIP3    H133061   6.084   0.846  12.225  0.5242  0.1895  1.4394
 3882TIP3    H233062   6.116   0.802  12.084 -1.7875  1.4872  0.4653
 3883TIP3   OH233063   5.915   5.867   1.356 -0.5756  0.3064  0.2020
 3883TIP3    H133064   6.010   5.857   1.346 -0.3248  0.8492  1.8622
 3883TIP3    H233065   5.902   5.961   1.365 -1.3931  0.3206 -1.0402
 3884TIP3   OH233066   6.379   3.586   1.919 -0.5977 -0.2903  0.4805
 3884TIP3    H133067   6.293   3.564   1.884 -1.0368 -0.2691  1.5153
 3884TIP3    H233068   6.364   3.595   2.013 -0.3370  4.0397  0.1698
 3885TIP3   OH233069   4.990   3.209  11.501  0.3428  0.4015 -0.2054
 3885TIP3    H133070   5.077   3.234  11.470  0.0653  0.9253 -0.5810
 3885TIP3    H233071   4.982   3.251  11.587  0.3438  0.6094 -0.3071
 3886TIP3   OH233072   4.030   4.345   1.784 -0.1791  0.1180  0.4173
 3886TIP3    H133073   4.090   4.349   1.710 -0.7921 -0.9753 -0.1447
 3886TIP3    H233074   4.086   4.362   1.860  0.7259 -0.2298 -0.1587
 3887TIP3   OH233075   5.180   2.052   3.114 -0.1529  0.0741 -0.1732
 3887TIP3    H133076   5.183   2.144   3.137  1.8247  0.3779 -1.5024
 3887TIP3    H233077   5.091   2.037   3.082  0.0643  1.9897 -1.7397
 3888TIP3   OH233078   2.348   4.650   2.516 -0.3639 -0.0880  0.0765
 3888TIP3    H133079   2.302   4.645   2.600  1.0674 -1.5628  0.7903
 3888TIP3    H233080   2.293   4.600   2.455 -1.4197  1.0094  0.1123
 3889TIP3   OH233081   5.769   0.502   4.035 -0.2018 -0.1413 -0.5428
 3889TIP3    H133082   5.745   0.411   4.052  0.1531 -0.2129 -0.4038
 3889TIP3    H233083   5.851   0.496   3.985 -0.2916  0.0971 -0.7175
 3890TIP3   OH233084   4.041   3.400   4.809 -0.0082 -0.3160  0.5856
 3890TIP3    H133085   4.025   3.307   4.795  0.9608 -0.3743 -0.1219
 3890TIP3    H233086   4.062   3.407   4.902  2.3191 -1.1492  0.1382
 3891TIP3   OH233087   2.787   3.269  14.329  0.6167 -0.1757 -0.0692
 3891TIP3    H133088   2.856   3.335  14.322 -1.1438  1.7350  0.0471
 3891TIP3    H233089   2.710   3.311  14.290 -1.0743 -1.3715  1.8925
 3892TIP3   OH233090   6.372   3.169   3.412 -0.1021  0.0688  0.4266
 3892TIP3    H133091   6.419   3.090   3.384  1.3927  1.1485 -0.1960
 3892TIP3    H233092   6.282   3.153   3.385  0.0875 -1.6068  0.6939
 3893TIP3   OH233093   3.805   2.025  13.332  0.0474  0.5276  0.1430
 3893TIP3    H133094   3.739   1.970  13.374 -0.3538 -0.2814 -1.5009
 3893TIP3    H233095   3.769   2.113  13.335 -1.1440  0.0782 -0.8011
 3894TIP3   OH233096   0.869   4.566   1.727  0.2147 -0.1691  0.3760
 3894TIP3    H133097   0.872   4.606   1.640 -0.4697 -0.2133  0.3363
 3894TIP3    H233098   0.879   4.472   1.711  0.3521 -0.1538  0.3674
 3895TIP3   OH233099   2.591   0.653   5.469  0.0201  0.2644  0.1256
 3895TIP3    H133100   2.610   0.727   5.527 -0.5723  0.7391 -0.2810
 3895TIP3    H233101   2.676   0.611   5.456  0.7637  2.0604 -1.2452
 3896TIP3   OH233102   6.525   0.675  16.034  0.0762 -0.2120 -0.4821
 3896TIP3    H133103   6.540   0.742  15.967  2.4383  0.3813  0.5957
 3896TIP3    H233104   6.438   0.696  16.069  0.3401  1.6520 -0.8970
 3897TIP3   OH233105   1.933   1.289  17.218 -0.1660  0.2197 -0.0408
 3897TIP3    H133106   1.899   1.204  17.247 -2.1717  0.5949 -1.2439
 3897TIP3    H233107   1.858   1.334  17.179  1.4325  1.5555 -1.6970
 3898TIP3   OH233108   2.238   1.107   4.465 -0.7250 -0.3011 -0.6531
 3898TIP3    H133109   2.299   1.179   4.449  1.4149 -1.9078  0.0156
 3898TIP3    H233110   2.233   1.060   4.381 -2.1194  0.5911 -1.0893
 3899TIP3   OH233111   6.334   4.043  17.208 -0.1064 -0.2853 -0.1436
 3899TIP3    H133112   6.404   3.995  17.165 -0.3987 -0.7559 -0.0889
 3899TIP3    H233113   6.374   4.077  17.288  0.2678  0.0865 -0.4813
 3900TIP3   OH233114   3.795   5.544   5.589  0.1625 -0.3106  0.0014
 3900TIP3    H133115   3.713   5.567   5.634 -0.8284  0.9766 -2.3234
 3900TIP3    H233116   3.814   5.621   5.534  1.3317 -1.7677 -1.7123
 3901TIP3   OH233117   2.559   1.354   0.746 -0.0832 -0.1451 -0.2438
 3901TIP3    H133118   2.600   1.437   0.772 -0.8895  0.2173 -0.1321
 3901TIP3    H233119   2.632   1.291   0.746  0.2642  0.2343  1.1385
 3902TIP3   OH233120   0.648   5.843   0.975  0.3683 -0.2914 -0.5506
 3902TIP3    H133121   0.687   5.763   1.010  0.9575 -0.4047 -1.4564
 3902TIP3    H233122   0.655   5.834   0.880  2.0123  1.6020 -0.6445
 3903TIP3   OH233123   0.320   5.592   4.663 -0.0838  0.1919  0.4653
 3903TIP3    H133124   0.249   5.613   4.602  1.4205  1.9369 -0.7306
 3903TIP3    H233125   0.333   5.673   4.712  1.4479  0.0550  0.2906
 3904TIP3   OH233126   2.128   2.005  13.092 -0.2157  0.8187 -0.1664
 3904TIP3    H133127   2.116   2.011  12.997 -0.0041 -0.7806 -0.3101
 3904TIP3    H233128   2.041   1.984  13.126  0.0732 -0.4831 -0.2025
 3905TIP3   OH233129   4.235   4.498   6.562  0.1998  0.0964 -0.0573
 3905TIP3    H133130   4.256   4.405   6.554  0.1066 -0.1599  2.2409
 3905TIP3    H233131   4.169   4.502   6.631  0.3898  1.8848  0.0605
 3906TIP3   OH233132   2.182   2.444   4.138  0.1255  0.0054 -0.6610
 3906TIP3    H133133   2.232   2.492   4.205  0.4469 -0.3625 -0.6331
 3906TIP3    H233134   2.155   2.511   4.075  0.6478  0.2076 -0.6715
 3907TIP3   OH233135   3.824   2.971   0.441 -0.1629 -0.1674  0.8231
 3907TIP3    H133136   3.898   2.977   0.500  0.7756 -0.5819 -0.2870
 3907TIP3    H233137   3.812   2.877   0.427  0.6285 -0.0475 -0.8556
 3908TIP3   OH233138   0.095   5.246   5.697  0.1548 -0.5423  0.6961
 3908TIP3    H133139   0.144   5.219   5.619  1.5820 -0.7884  1.6714
 3908TIP3    H233140   0.071   5.163   5.739  0.5376 -0.3770  1.2326
 3909TIP3   OH233141   5.875   6.684   6.318 -0.1256  0.3059  0.3128
 3909TIP3    H133142   5.787   6.659   6.347  0.1386 -0.1714  0.6863
 3909TIP3    H233143   5.884   6.775   6.346  0.0048 -0.0518  1.4450
 3910TIP3   OH233144   1.890   1.824  15.570 -0.0790 -0.3106  0.1550
 3910TIP3    H133145   1.981   1.793  15.568 -0.2586 -0.8029 -2.7579
 3910TIP3    H233146   1.897   1.918  15.585  0.8725 -0.4837  0.8247
 3911TIP3   OH233147   6.206   4.895   3.038 -0.6323 -1.1000 -0.5495
 3911TIP3    H133148   6.120   4.890   3.079  0.7905 -1.7347  2.4754
 3911TIP3    H233149   6.268   4.904   3.111  2.2314 -4.8380 -2.3010
 3912TIP3   OH233150   2.335   3.727   4.851 -0.4044  0.5280  0.5021
 3912TIP3    H133151   2.416   3.706   4.898 -0.9253  0.0514  1.1848
 3912TIP3    H233152   2.342   3.676   4.770 -1.4565 -2.0098  1.9497
 3913TIP3   OH233153   6.701   5.468  11.905 -0.6165 -0.3272  0.0417
 3913TIP3    H133154   6.674   5.469  11.997  0.1503 -1.0937  0.2800
 3913TIP3    H233155   6.711   5.561  11.882 -2.0029 -0.0865  0.3681
 3914TIP3   OH233156   5.763   0.290  11.682 -0.2416 -0.0996 -0.3927
 3914TIP3    H133157   5.796   0.286  11.592 -0.4285  0.7289 -0.5036
 3914TIP3    H233158   5.668   0.281  11.673 -0.0762 -2.3868 -0.0787
 3915TIP3   OH233159   4.187   2.471   0.190  0.0275 -0.6663 -0.0594
 3915TIP3    H133160   4.115   2.456   0.128 -0.9800  0.8502  0.7078
 3915TIP3    H233161   4.160   2.424   0.269 -0.8025  0.9815  0.6818
 3916TIP3   OH233162   5.693   5.300  17.126  0.0299  0.3905  0.1525
 3916TIP3    H133163   5.675   5.251  17.207 -0.4850  0.3094 -0.0035
 3916TIP3    H233164   5.773   5.348  17.144  1.5874 -1.9513 -0.3402
 3917TIP3   OH233165   6.077   2.953  16.647 -0.1548 -0.2078  0.0642
 3917TIP3    H133166   6.171   2.948  16.632  0.0638  2.3544  0.3119
 3917TIP3    H233167   6.069   2.960  16.742 -0.6359 -1.2457  0.0924
 3918TIP3   OH233168   4.722   1.289  12.619  0.4825 -0.0019  0.0229
 3918TIP3    H133169   4.687   1.358  12.676 -0.8308  1.8899 -2.9560
 3918TIP3    H233170   4.711   1.208  12.669 -0.2713  1.6269  2.5927
 3919TIP3   OH233171   3.738   4.740   4.471 -0.1489  0.1146  0.0446
 3919TIP3    H133172   3.782   4.717   4.390  1.1094 -0.1051  0.7800
 3919TIP3    H233173   3.786   4.816   4.504 -3.0550  2.6755 -1.3811
 3920TIP3   OH233174   1.024   0.739   1.146 -0.0337 -0.1553  0.1245
 3920TIP3    H133175   1.028   0.710   1.055 -0.2858 -1.0150  0.3799
 3920TIP3    H233176   1.111   0.721   1.181 -0.4649 -1.5430  0.5475
 3921TIP3   OH233177   5.693   4.195  13.741 -0.1563  0.5892 -0.1875
 3921TIP3    H133178   5.635   4.127  13.707  0.7160  0.9348 -2.4861
 3921TIP3    H233179   5.683   4.268  13.679  2.4574  0.7639 -0.4743
 3922TIP3   OH233180   6.405   5.916  11.085 -0.1587 -0.1771 -0.0745
 3922TIP3    H133181   6.387   5.965  11.165  0.0645  1.7557 -1.1793
 3922TIP3    H233182   6.323   5.871  11.065 -0.7340  0.6922  0.3051
 3923TIP3   OH233183   5.094   6.635  12.783  0.0681  0.1424 -0.4190
 3923TIP3    H133184   5.104   6.729  12.768  0.8490  0.5303  2.2569
 3923TIP3    H233185   5.183   6.603  12.797 -0.3994 -0.5319  1.1544
 3924TIP3   OH233186   3.664   1.604   2.188 -0.3763 -0.4457 -0.6060
 3924TIP3    H133187   3.650   1.586   2.095 -0.8449 -0.1672 -0.5927
 3924TIP3    H233188   3.684   1.519   2.227 -2.1778 -0.8761 -0.6103
 3925TIP3   OH233189   6.161   2.820   1.020  0.1306 -0.1358 -0.1213
 3925TIP3    H133190   6.146   2.745   0.963  0.5808  0.5183 -1.1209
 3925TIP3    H233191   6.256   2.832   1.020  0.0904  0.2471  0.2810
 3926TIP3   OH233192   6.718   0.301  14.713 -0.1469 -0.3399  0.4123
 3926TIP3    H133193   6.783   0.268  14.650  0.8004 -0.0629  1.2244
 3926TIP3    H233194   6.656   0.229  14.723 -0.0154 -0.5778 -0.4525
 3927TIP3   OH233195   1.137   0.908   5.847 -0.0015  0.0117 -0.4319
 3927TIP3    H133196   1.126   1.002   5.861 -3.9638 -0.6667  1.4377
 3927TIP3    H233197   1.102   0.892   5.760 -2.0925 -0.1594  0.4250
 3928TIP3   OH233198   4.683   4.432  12.270  0.7547  0.1859 -0.2730
 3928TIP3    H133199   4.770   4.420  12.310  1.5358 -0.9811 -2.2831
 3928TIP3    H233200   4.697   4.499  12.203  0.2345 -0.4891 -1.0535
 3929TIP3   OH233201   4.687   3.656  12.309 -0.4660 -0.2365  0.0244
 3929TIP3    H133202   4.780   3.670  12.289 -0.0538 -0.7858  1.4955
 3929TIP3    H233203   4.682   3.662  12.404 -2.5734  3.5035 -0.2253
 3930TIP3   OH233204   0.988   3.117  13.747 -0.3547  0.4439 -0.0984
 3930TIP3    H133205   0.953   3.192  13.794 -2.5252 -0.7977  0.3202
 3930TIP3    H233206   1.056   3.081  13.805 -2.0547 -0.2609  1.5048
 3931TIP3   OH233207   6.458   1.354  15.717  0.2637 -0.0647 -0.1691
 3931TIP3    H133208   6.505   1.419  15.665  0.9278 -0.1177  0.3609
 3931TIP3    H233209   6.460   1.275  15.664 -0.6215  0.3757 -0.8560
 3932TIP3   OH233210   6.064   4.546   4.336 -0.1857 -0.1763  0.1417
 3932TIP3    H133211   6.058   4.450   4.344 -0.3326 -0.0137  2.1124
 3932TIP3    H233212   5.983   4.578   4.374 -0.2429  0.7347 -0.7449
 3933TIP3   OH233213   0.896   6.439   2.770 -0.2036  0.2689  0.0042
 3933TIP3    H133214   0.985   6.404   2.758 -0.0276  0.1144  1.6611
 3933TIP3    H233215   0.871   6.470   2.683  1.4822  0.3424 -0.4780
 3934TIP3   OH233216   2.402   4.999  13.240 -0.1004 -0.2771  0.0928
 3934TIP3    H133217   2.486   5.028  13.203 -0.4615  0.5661 -0.0573
 3934TIP3    H233218   2.408   5.022  13.332 -0.3694  0.2102 -0.0171
 3935TIP3   OH233219   6.242   2.680  13.462  0.2973 -0.1505 -0.5818
 3935TIP3    H133220   6.322   2.628  13.458  1.1417  1.1075 -0.5306
 3935TIP3    H233221   6.188   2.637  13.528  0.8578 -1.1253 -0.7544
 3936TIP3   OH233222   0.039   3.674  11.871 -0.7450 -0.0085 -0.1797
 3936TIP3    H133223  -0.013   3.597  11.852  0.0510 -0.8290  0.8978
 3936TIP3    H233224   0.073   3.703  11.786 -0.6098 -1.1579 -0.5203
 3937TIP3   OH233225   2.228   0.845   1.539 -0.0353 -0.2436  0.5097
 3937TIP3    H133226   2.158   0.825   1.601 -0.3144  0.1522  0.3253
 3937TIP3    H233227   2.212   0.936   1.514  2.0479  0.6948  2.4414
 3938TIP3   OH233228   1.434   1.232  16.646  0.3913 -0.4651 -0.3931
 3938TIP3    H133229   1.385   1.163  16.601  2.3583 -2.0433 -0.2119
 3938TIP3    H233230   1.394   1.238  16.732  0.6252 -1.8648 -0.1790
 3939TIP3   OH233231   2.652   2.450   2.163 -0.0616  0.0051  0.0830
 3939TIP3    H133232   2.693   2.532   2.137 -1.1077  0.1809 -1.0632
 3939TIP3    H233233   2.562   2.474   2.185 -0.3842 -0.8321 -0.3003
 3940TIP3   OH233234   2.269   2.714   2.091  0.0679 -0.0941 -0.2144
 3940TIP3    H133235   2.240   2.623   2.082  2.4450 -0.9468  0.1924
 3940TIP3    H233236   2.317   2.715   2.174 -1.7890  2.0859  0.8908
 3941TIP3   OH233237   1.452   0.651   5.865  0.3599 -0.1522 -0.1109
 3941TIP3    H133238   1.462   0.556   5.865 -1.1468 -0.3466 -2.0658
 3941TIP3    H233239   1.389   0.669   5.934  1.3717 -0.4564  0.9184
 3942TIP3   OH233240   0.930   0.252  11.687 -0.2838 -0.1091  0.1451
 3942TIP3    H133241   1.021   0.281  11.677  0.4743 -3.1633 -2.7906
 3942TIP3    H233242   0.934   0.184  11.755 -0.4129 -0.0612  0.2005
 3943TIP3   OH233243   3.170   6.487  14.339  0.3153  0.0185 -0.0003
 3943TIP3    H133244   3.096   6.461  14.283 -0.9184 -0.3409  1.7681
 3943TIP3    H233245   3.207   6.405  14.370 -0.2692  0.2571  1.3360
 3944TIP3   OH233246   5.120   5.325   1.724 -0.4856  0.2061  0.1649
 3944TIP3    H133247   5.175   5.252   1.696  0.9431  1.5821 -0.7343
 3944TIP3    H233248   5.125   5.387   1.652 -2.5147  0.7566  0.4786
 3945TIP3   OH233249   2.659   6.444   5.485 -0.5947  0.4350 -0.7021
 3945TIP3    H133250   2.754   6.436   5.474 -0.6372 -2.6456  0.8204
 3945TIP3    H233251   2.623   6.376   5.428 -1.8180  0.5896 -0.1216
 3946TIP3   OH233252   6.119   3.742   2.323 -0.3272  0.0028 -0.6929
 3946TIP3    H133253   6.116   3.716   2.414  0.5487 -0.1664 -0.7124
 3946TIP3    H233254   6.057   3.684   2.279  1.0288 -1.5326 -0.6096
 3947TIP3   OH233255   6.567   0.583  16.460  0.1935 -0.3536  0.4402
 3947TIP3    H133256   6.579   0.580  16.365  0.7809 -2.0553  0.5371
 3947TIP3    H233257   6.652   0.556  16.496  0.0726  0.5711  1.4636
 3948TIP3   OH233258   3.837   6.268  15.665 -0.0923 -0.6164  0.2620
 3948TIP3    H133259   3.745   6.279  15.690 -0.2093 -0.5239 -0.2198
 3948TIP3    H233260   3.853   6.175  15.676  0.5479 -0.2260  3.1070
 3949TIP3   OH233261   3.036   4.307  15.608 -0.2121  0.0270  0.3887
 3949TIP3    H133262   3.088   4.341  15.536  0.2244  0.3517  0.8527
 3949TIP3    H233263   3.049   4.212  15.606 -1.5942 -0.1563 -1.0383
 3950TIP3   OH233264   3.224   1.446  12.897 -0.2708 -0.4743 -0.2840
 3950TIP3    H133265   3.271   1.363  12.910 -0.0658 -0.1538  1.0719
 3950TIP3    H233266   3.280   1.495  12.837  0.3066 -0.7680  0.0026
 3951TIP3   OH233267   6.538   5.170  10.939  0.2845  0.1016 -0.2072
 3951TIP3    H133268   6.545   5.094  10.883  0.8345 -0.0399  0.0503
 3951TIP3    H233269   6.532   5.244  10.879 -2.5831 -0.3215 -0.4851
 3952TIP3   OH233270   6.091   6.691   3.096  0.6305  0.3489  0.1226
 3952TIP3    H133271   6.149   6.767   3.090  1.1239 -0.0673 -0.4568
 3952TIP3    H233272   6.147   6.616   3.077  0.2086 -0.1914  0.9680
 3953TIP3   OH233273   1.145   6.686   4.062 -0.3642  0.3872 -0.2551
 3953TIP3    H133274   1.142   6.781   4.054 -1.7468  0.1335 -4.0905
 3953TIP3    H233275   1.059   6.656   4.030  0.5126 -2.1656 -0.3613
 3954TIP3   OH233276   1.680   0.242   3.208  0.0586 -0.2458 -0.4212
 3954TIP3    H133277   1.634   0.269   3.287 -0.8050 -0.0801 -0.9704
 3954TIP3    H233278   1.618   0.258   3.137  0.7989 -0.4437 -1.1313
 3955TIP3   OH233279   6.367   5.585   3.802  0.1117 -0.2152  0.2511
 3955TIP3    H133280   6.324   5.556   3.722  1.5774 -1.5534 -0.0708
 3955TIP3    H233281   6.312   5.656   3.834 -1.6154 -1.0187 -0.8412
 3956TIP3   OH233282   6.744   6.609   0.038 -0.7545  0.8399 -0.2202
 3956TIP3    H133283   6.748   6.537   0.101 -0.5669 -0.3558 -1.5742
 3956TIP3    H233284   6.672   6.587  -0.020 -0.3981  1.5188 -0.9336
 3957TIP3   OH233285   3.546   2.338  13.817 -0.0888 -0.7562 -0.2865
 3957TIP3    H133286   3.585   2.296  13.741  0.0430 -1.5630  0.2281
 3957TIP3    H233287   3.599   2.417  13.831  1.4807 -1.9353  0.5159
 3958TIP3   OH233288   6.116   4.171   5.445 -0.8098 -0.2481 -0.3209
 3958TIP3    H133289   6.174   4.240   5.477 -0.8902 -1.0656  1.6607
 3958TIP3    H233290   6.171   4.093   5.443 -0.9731 -0.3385 -1.6482
 3959TIP3   OH233291   3.043   0.740  14.043 -0.2090 -0.2319 -0.0723
 3959TIP3    H133292   3.035   0.657  14.090  2.3006 -0.1203  0.6266
 3959TIP3    H233293   3.070   0.803  14.110  0.2978  0.6003 -1.0441
 3960TIP3   OH233294   1.077   1.441  16.784  0.7080  0.1992 -0.0321
 3960TIP3    H133295   1.058   1.354  16.747 -1.0645  0.4923  0.1285
 3960TIP3    H233296   1.133   1.423  16.859 -0.1841 -0.8666  0.3965
 3961TIP3   OH233297   1.878   6.710   2.472 -0.1742 -0.0629 -0.6666
 3961TIP3    H133298   1.840   6.797   2.462  1.7436  1.2760  2.9429
 3961TIP3    H233299   1.826   6.669   2.542  2.0280  0.0986  1.1299
 3962TIP3   OH233300   0.298   1.677   0.652  0.3708  0.4292  0.1479
 3962TIP3    H133301   0.292   1.760   0.700  0.0113  0.9674 -0.8203
 3962TIP3    H233302   0.366   1.628   0.698  0.6885  1.3167  0.6431
 3963TIP3   OH233303   3.016   3.653  11.410 -0.4523 -0.4127  0.9762
 3963TIP3    H133304   3.032   3.586  11.343 -1.6730 -0.4509  0.7029
 3963TIP3    H233305   2.985   3.729  11.361 -0.5690 -0.1707  1.4233
 3964TIP3   OH233306   6.382   5.092  17.108  0.0196  0.1609  0.0210
 3964TIP3    H133307   6.337   5.016  17.071 -0.2108 -0.1404  0.8834
 3964TIP3    H233308   6.365   5.163  17.046 -0.2211 -0.3609 -0.5173
 3965TIP3   OH233309   1.689   6.113   2.892 -0.0638  0.2394 -0.3780
 3965TIP3    H133310   1.626   6.056   2.847 -2.0059  1.7188  0.4106
 3965TIP3    H233311   1.703   6.185   2.830  1.0533 -0.2127 -0.6521
 3966TIP3   OH233312   3.843   2.538  12.455 -0.1496 -0.4220  0.3511
 3966TIP3    H133313   3.782   2.583  12.514  0.7052  1.1658  0.0489
 3966TIP3    H233314   3.790   2.469  12.415 -1.5881  0.4883  0.6158
 3967TIP3   OH233315   5.954   2.161  13.438  0.1343 -0.2295 -0.3535
 3967TIP3    H133316   5.964   2.210  13.357 -0.7427  0.7719  0.1343
 3967TIP3    H233317   6.039   2.171  13.483  0.5368 -0.5899 -1.0269
 3968TIP3   OH233318   3.707   4.553   2.534 -0.1365  0.4670  0.1494
 3968TIP3    H133319   3.738   4.640   2.510  0.6400  0.1409 -0.0457
 3968TIP3    H233320   3.662   4.566   2.618 -0.3323  1.1146 -0.0583
 3969TIP3   OH233321   6.651   0.215   4.927  0.1278 -0.4135 -0.4375
 3969TIP3    H133322   6.631   0.237   5.018 -0.7895 -0.4844 -0.6162
 3969TIP3    H233323   6.574   0.168   4.896  0.1703  0.1576 -1.4348
 3970TIP3   OH233324   0.842   0.989  14.214  0.2290  0.1069  0.2725
 3970TIP3    H133325   0.767   1.009  14.157  0.3094 -1.8409 -0.5410
 3970TIP3    H233326   0.802   0.955  14.294  0.2511 -2.2489 -0.6849
 3971TIP3   OH233327   6.579   5.404  12.363 -0.1650 -0.1915  0.0826
 3971TIP3    H133328   6.570   5.494  12.332 -0.6484  0.0541  0.9157
 3971TIP3    H233329   6.665   5.376  12.331  0.5613  1.0141  0.9247
 3972TIP3   OH233330   5.809   1.279   4.563 -0.5302 -0.2963 -0.7270
 3972TIP3    H133331   5.715   1.260   4.560 -0.9813  1.9486 -2.0824
 3972TIP3    H233332   5.840   1.260   4.475  0.3245 -1.1353 -0.2522
 3973TIP3   OH233333   4.159   3.143  13.749 -0.2848  0.3403  0.3119
 3973TIP3    H133334   4.192   3.054  13.758 -0.6217  0.3818  2.2759
 3973TIP3    H233335   4.166   3.163  13.656  0.6356 -1.4101 -0.0020
 3974TIP3   OH233336   2.588   4.197  12.567  0.2060  1.0190  0.3999
 3974TIP3    H133337   2.562   4.289  12.575 -2.6363  0.4668 -1.8456
 3974TIP3    H233338   2.507   4.148  12.582  1.4988 -1.0919  0.6191
 3975TIP3   OH233339   0.729   3.460   0.312 -0.1885  0.5942 -0.1809
 3975TIP3    H133340   0.642   3.424   0.330 -1.3766  2.3374 -2.2636
 3975TIP3    H233341   0.758   3.415   0.232  1.0671 -0.3535  0.7865
 3976TIP3   OH233342   6.407   4.891   3.724 -0.3731 -0.2997  0.2893
 3976TIP3    H133343   6.497   4.879   3.756 -0.0000 -0.4488 -0.7850
 3976TIP3    H233344   6.400   4.829   3.651 -0.6573  1.1890 -0.9669
 3977TIP3   OH233345   5.392   6.378   1.528  0.1794  0.1283  0.2298
 3977TIP3    H133346   5.412   6.286   1.545  1.2517  0.2237 -0.4812
 3977TIP3    H233347   5.341   6.406   1.605 -1.9126 -1.5827 -0.4723
 3978TIP3   OH233348   4.433   5.568  16.984  0.5640 -0.0321 -0.2721
 3978TIP3    H133349   4.415   5.497  17.044 -0.6848  0.1298 -0.4385
 3978TIP3    H233350   4.500   5.621  17.028 -0.3666  0.1083  0.9802
 3979TIP3   OH233351   3.446   1.482  14.717 -0.5242 -0.4270  0.7877
 3979TIP3    H133352   3.447   1.575  14.736 -0.7035  0.0408 -1.3456
 3979TIP3    H233353   3.534   1.462  14.684 -0.8703 -0.7083  0.0020
 3980TIP3   OH233354   2.762   3.682   4.946 -0.0454 -0.1946 -1.0405
 3980TIP3    H133355   2.806   3.698   4.862  0.4200  0.4552 -0.6766
 3980TIP3    H233356   2.770   3.588   4.959  1.6717 -0.0327 -0.7494
 3981TIP3   OH233357   1.717   1.357  17.093 -0.7166 -0.3713 -0.0255
 3981TIP3    H133358   1.704   1.401  17.009 -0.0525 -0.2544 -0.0702
 3981TIP3    H233359   1.630   1.355  17.132 -0.4587  2.7059  0.8286
 3982TIP3   OH233360   1.273   0.045  14.236  0.2224  0.7063  0.5621
 3982TIP3    H133361   1.289  -0.004  14.317  1.4704 -0.2908 -0.2531
 3982TIP3    H233362   1.293  -0.017  14.166 -0.6219  1.6222 -0.5199
 3983TIP3   OH233363   2.833   4.189  15.376 -0.0279 -0.3909  0.1804
 3983TIP3    H133364   2.775   4.226  15.309  0.9776  1.0353  0.0638
 3983TIP3    H233365   2.780   4.186  15.455 -0.5506  0.0267 -0.1531
 3984TIP3   OH233366   4.975   3.441  13.709  0.0083  0.0185  0.1881
 3984TIP3    H133367   4.990   3.445  13.615  1.7622 -0.2334  0.4406
 3984TIP3    H233368   4.900   3.384  13.720  0.2158 -0.4855 -1.0174
 3985TIP3   OH233369   3.791   3.372   1.437 -0.0758 -1.1133  0.2099
 3985TIP3    H133370   3.875   3.360   1.481 -0.0550  0.8589  0.7614
 3985TIP3    H233371   3.741   3.428   1.496 -1.7572 -2.1694 -0.1660
 3986TIP3   OH233372   6.417   3.551  12.445 -0.7025  0.1499  0.7556
 3986TIP3    H133373   6.358   3.626  12.439  0.1817  0.9228  1.5591
 3986TIP3    H233374   6.501   3.583  12.411 -0.7293 -0.9441 -0.3925
 3987TIP3   OH233375   3.087   3.404  12.039 -0.4988 -0.1522 -0.1916
 3987TIP3    H133376   3.089   3.411  11.943 -3.5513  1.5924 -0.2027
 3987TIP3    H233377   3.019   3.338  12.056 -0.1919 -0.2113  0.7780
 3988TIP3   OH233378   2.042   2.717   5.997  0.3869 -0.3268 -0.1292
 3988TIP3    H133379   2.046   2.778   5.923 -0.3394  1.3722  1.2055
 3988TIP3    H233380   2.076   2.767   6.071 -0.2225 -1.5481  0.9948
 3989TIP3   OH233381   3.337   5.437  15.759  0.0740 -0.2135 -0.2582
 3989TIP3    H133382   3.333   5.431  15.663 -0.3320  0.3974 -0.2791
 3989TIP3    H233383   3.328   5.346  15.789 -2.8279 -0.0822 -0.6749
 3990TIP3   OH233384   5.153   0.859   1.509  0.7343 -0.5399 -0.3541
 3990TIP3    H133385   5.174   0.917   1.582  0.6065 -0.8366 -0.0824
 3990TIP3    H233386   5.104   0.787   1.548 -3.5259  1.6254 -1.4059
 3991TIP3   OH233387   6.045   0.290  12.085 -0.1538 -0.0246 -0.1384
 3991TIP3    H133388   6.098   0.224  12.129  1.9385  0.5176 -1.7751
 3991TIP3    H233389   6.010   0.246  12.008  2.9929  1.2826 -2.4093
 3992TIP3   OH233390   2.288   5.632   0.596  0.9790 -0.0978 -0.1957
 3992TIP3    H133391   2.223   5.659   0.660  1.5806  0.1517  0.3115
 3992TIP3    H233392   2.246   5.560   0.548  0.6007 -0.4167  0.6050
 3993TIP3   OH233393   1.198   2.764   0.948  0.2651 -0.3794 -0.0306
 3993TIP3    H133394   1.250   2.740   1.025 -0.5450 -1.3883  0.2184
 3993TIP3    H233395   1.198   2.685   0.894 -2.5795 -1.0727  0.8695
 3994TIP3   OH233396   3.825   4.034  15.147  0.7203 -0.4037  0.2400
 3994TIP3    H133397   3.888   4.066  15.084  0.7562 -0.3269  0.3145
 3994TIP3    H233398   3.744   4.025  15.098  0.3287  1.2076  0.5519
 3995TIP3   OH233399   1.319   0.706   1.882  0.6244  0.3193  0.4643
 3995TIP3    H133400   1.306   0.727   1.789  1.2113 -0.4405  0.2079
 3995TIP3    H233401   1.329   0.611   1.884  2.9676  0.5441  1.0256
 3996TIP3   OH233402   5.525   3.681  15.514  0.3857 -0.3247  0.2079
 3996TIP3    H133403   5.590   3.649  15.451 -0.2005 -0.5452 -0.2925
 3996TIP3    H233404   5.517   3.611  15.578 -1.0212 -1.3001 -0.9785
 3997TIP3   OH233405   3.001   3.315  10.795  0.7957 -0.1549 -0.3969
 3997TIP3    H133406   2.917   3.310  10.750 -0.9716  2.1883  2.4599
 3997TIP3    H233407   3.022   3.408  10.797  2.1951 -0.4811  1.2094
 3998TIP3   OH233408   1.806   5.616   0.006  0.0383 -0.6898  0.2974
 3998TIP3    H133409   1.812   5.568  -0.076 -3.0361  0.7827 -0.8810
 3998TIP3    H233410   1.749   5.562   0.062  0.1169 -0.5241  0.5411
 3999TIP3   OH233411   6.615   3.656   4.004  0.6856 -1.1346  0.7309
 3999TIP3    H133412   6.583   3.747   4.011  1.5206 -0.6729 -1.1059
 3999TIP3    H233413   6.539   3.603   4.028 -0.0989  0.0343  0.9277
 4000TIP3   OH233414   6.162   0.590   2.310 -0.2389  0.0296  0.4269
 4000TIP3    H133415   6.124   0.503   2.306  0.5824 -0.3682  1.0883
 4000TIP3    H233416   6.196   0.597   2.400  0.9132  0.5017 -0.0372
 4001TIP3   OH233417   2.301   5.497   0.197  0.3482  0.3005  0.1513
 4001TIP3    H133418   2.285   5.591   0.208 -0.0329  0.3668 -0.9228
 4001TIP3    H233419   2.396   5.487   0.207  0.3581  0.7625  0.5230
 4002TIP3   OH233420   5.146   1.358   5.364  0.0935  0.6192  0.6709
 4002TIP3    H133421   5.102   1.286   5.409  0.1299  0.5021  0.5190
 4002TIP3    H233422   5.233   1.323   5.343 -1.1941 -0.6454 -2.8577
 4003TIP3   OH233423   3.287   5.920  14.870  0.6509 -0.1734  0.1743
 4003TIP3    H133424   3.224   5.870  14.818  0.4713 -0.6716  0.8744
 4003TIP3    H233425   3.336   5.970  14.805 -0.3752  0.1207 -0.3892
 4004TIP3   OH233426   5.406   6.607   5.850  0.1060  0.0038  0.2399
 4004TIP3    H133427   5.404   6.517   5.881 -0.5478  0.4561  1.5415
 4004TIP3    H233428   5.319   6.642   5.872  1.3633  1.8671  2.4879
 4005TIP3   OH233429   1.047   0.241   2.662 -0.5463 -0.6275  0.3955
 4005TIP3    H133430   1.007   0.324   2.637  1.6515  0.2213 -0.4574
 4005TIP3    H233431   1.100   0.263   2.739  1.7671 -0.7367 -1.1365
 4006TIP3   OH233432   3.576   6.488  13.701 -0.4402 -0.1279 -0.7995
 4006TIP3    H133433   3.508   6.520  13.761  1.1315  0.5716  0.6652
 4006TIP3    H233434   3.539   6.501  13.614 -0.8643  3.5775 -0.1816
 4007TIP3   OH233435   3.642   5.955  11.766 -0.6528  0.7496 -0.1209
 4007TIP3    H133436   3.587   5.988  11.695  0.7344  0.3315 -1.4217
 4007TIP3    H233437   3.698   5.890  11.724 -0.3007 -0.0186  1.5161
 4008TIP3   OH233438   5.043   4.493  16.227  0.7346 -0.2705 -0.1756
 4008TIP3    H133439   4.964   4.446  16.202  0.1067  0.4666  0.3894
 4008TIP3    H233440   5.059   4.553  16.155  2.2468 -2.1914 -1.4826
 4009TIP3   OH233441   0.756   3.072  14.140  0.2578  0.0406 -0.0954
 4009TIP3    H133442   0.790   2.992  14.099 -0.4653 -0.1848 -0.2626
 4009TIP3    H233443   0.737   3.130  14.066 -0.4317 -0.1209 -0.0470
 4010TIP3   OH233444   0.009   5.510   2.700 -0.3546  0.4892  0.7589
 4010TIP3    H133445   0.053   5.532   2.783 -0.2111 -0.2562  0.8769
 4010TIP3    H233446   0.055   5.433   2.668 -0.9349  0.2961  0.3856
 4011TIP3   OH233447   1.157   2.831   0.623  0.3804 -0.1719  0.0352
 4011TIP3    H133448   1.193   2.758   0.674 -0.2268 -1.0546 -0.8038
 4011TIP3    H233449   1.122   2.791   0.544 -0.0117  1.0245 -0.4101
 4012TIP3   OH233450   6.629   3.919   4.108 -0.4444  0.3639 -0.0601
 4012TIP3    H133451   6.666   4.006   4.092 -1.4879  0.5869 -1.3741
 4012TIP3    H233452   6.567   3.932   4.180  0.3652  0.4415  0.6223
 4013TIP3   OH233453   1.859   4.423  11.736  0.1180  0.0337  0.7863
 4013TIP3    H133454   1.914   4.389  11.807  0.0732  1.5092  1.5333
 4013TIP3    H233455   1.866   4.518  11.744  0.5983  0.2129 -1.5781
 4014TIP3   OH233456   1.269   5.103   2.851 -0.0535  0.2222 -0.7894
 4014TIP3    H133457   1.317   5.074   2.773  1.6310 -0.2759  0.4027
 4014TIP3    H233458   1.325   5.171   2.889 -1.0872  0.7770 -0.2343
 4015TIP3   OH233459   4.569   5.260   0.676 -0.0879  0.1372 -0.0943
 4015TIP3    H133460   4.527   5.174   0.668  0.1123  0.0044  0.2796
 4015TIP3    H233461   4.647   5.244   0.728 -0.2986  0.6267  0.3813
 4016TIP3   OH233462   0.468   4.656   0.671 -0.3550  0.2088  0.1048
 4016TIP3    H133463   0.377   4.682   0.682 -0.3999 -0.8050  2.4268
 4016TIP3    H233464   0.472   4.567   0.704  1.1483 -0.3994 -1.5990
 4017TIP3   OH233465   4.405   4.665   6.307  0.2584  0.1177 -0.5545
 4017TIP3    H133466   4.377   4.670   6.398 -0.4694  0.8637 -0.8151
 4017TIP3    H233467   4.491   4.623   6.311  0.3867  0.4712  0.5081
 4018TIP3   OH233468   2.527   0.780  11.380  0.1158  0.0147 -0.4109
 4018TIP3    H133469   2.553   0.767  11.289 -1.0769  0.9834 -0.9115
 4018TIP3    H233470   2.608   0.770  11.431  0.8644 -0.0878 -1.6127
 4019TIP3   OH233471   0.620   5.613   6.340 -0.0061 -0.0951 -0.0364
 4019TIP3    H133472   0.710   5.581   6.347 -0.2175 -1.1853 -1.9604
 4019TIP3    H233473   0.567   5.547   6.384 -0.0495 -0.4339 -0.5923
 4020TIP3   OH233474   3.674   6.594  16.881 -0.0066 -0.3226 -0.3979
 4020TIP3    H133475   3.702   6.502  16.874 -0.9153 -0.7985  1.6526
 4020TIP3    H233476   3.722   6.627  16.957 -0.5694  0.5693 -0.4307
 4021TIP3   OH233477   1.864   4.053   4.268  0.5264 -0.4589 -0.1123
 4021TIP3    H133478   1.771   4.072   4.275  0.6512  0.0302  0.2987
 4021TIP3    H233479   1.884   4.064   4.175  0.7547  2.2873  0.2081
 4022TIP3   OH233480   4.075   2.942  15.119  0.0759 -0.3614 -0.2779
 4022TIP3    H133481   3.993   2.929  15.071  0.0018  1.0716 -0.5497
 4022TIP3    H233482   4.135   2.981  15.056  0.5256 -0.0917  0.3060
 4023TIP3   OH233483   3.985   3.870  10.807  0.2942 -0.3206 -0.4909
 4023TIP3    H133484   3.954   3.948  10.853  1.4932 -0.3180  0.3517
 4023TIP3    H233485   3.908   3.836  10.761 -0.7515  0.0929  0.9323
 4024TIP3   OH233486   0.658   2.551   0.937  0.1642 -0.2271  0.1931
 4024TIP3    H133487   0.616   2.633   0.911 -1.3705 -0.9036  0.5082
 4024TIP3    H233488   0.695   2.570   1.023 -0.8902 -0.0996  0.6246
 4025TIP3   OH233489   6.238   5.506  10.611 -0.4684 -0.2140  0.1446
 4025TIP3    H133490   6.229   5.529  10.519  2.2528 -1.5578 -0.5019
 4025TIP3    H233491   6.305   5.566  10.644  0.5005 -1.5206  0.5747
 4026TIP3   OH233492   1.242   6.109   1.539 -0.3111  0.2631 -0.2279
 4026TIP3    H133493   1.152   6.130   1.563 -0.5065 -0.0426 -0.6765
 4026TIP3    H233494   1.260   6.026   1.582 -0.7675 -0.4415 -1.3607
 4027TIP3   OH233495   1.306   3.326   1.858  0.1472  0.2853 -0.7897
 4027TIP3    H133496   1.348   3.241   1.868 -2.5997 -1.1200 -0.8202
 4027TIP3    H233497   1.220   3.306   1.822  0.2730  3.2568 -2.9160
 4028TIP3   OH233498   0.349   4.398   0.714  0.0860  0.3365  0.2629
 4028TIP3    H133499   0.367   4.317   0.666  2.2923  1.3957 -0.7607
 4028TIP3    H233500   0.278   4.375   0.774  1.1379 -2.5464  0.4760
 4029TIP3   OH233501   3.233   2.904   0.273  0.1896 -0.2684  0.2009
 4029TIP3    H133502   3.192   2.967   0.214  1.7944  0.0358 -0.5883
 4029TIP3    H233503   3.168   2.834   0.281 -0.2029 -0.1362 -1.6216
 4030TIP3   OH233504   3.110   4.728   1.530 -0.4456 -0.0185 -0.3409
 4030TIP3    H133505   3.033   4.671   1.529 -0.0589 -0.5508 -1.5522
 4030TIP3    H233506   3.075   4.816   1.536 -1.1330 -0.2978 -0.2176
 4031TIP3   OH233507   3.144   1.761   5.160 -0.5052  0.4878  0.8219
 4031TIP3    H133508   3.121   1.668   5.160 -2.6644  0.9084 -3.4991
 4031TIP3    H233509   3.239   1.762   5.144 -0.5205 -0.9734  0.5391
 4032TIP3   OH233510   3.359   1.302  15.136 -0.3133  0.6770 -0.7470
 4032TIP3    H133511   3.365   1.265  15.048  0.3619 -0.4500 -0.2405
 4032TIP3    H233512   3.320   1.233  15.190 -0.9566  1.4459 -0.2075
 4033TIP3   OH233513   0.582   5.983  16.737 -0.5708 -0.2625 -0.0457
 4033TIP3    H133514   0.511   6.024  16.687 -2.7865 -0.8351  2.5067
 4033TIP3    H233515   0.551   5.894  16.754  1.5483 -1.0891 -0.3612
 4034TIP3   OH233516   6.730   6.526   3.651 -0.1729  0.5098 -0.3630
 4034TIP3    H133517   6.743   6.438   3.686  0.0037 -0.2296 -2.2575
 4034TIP3    H233518   6.805   6.576   3.684  0.1182 -0.2243  0.1103
 4035TIP3   OH233519   4.346   5.311  17.100 -0.4692 -0.2218 -0.2520
 4035TIP3    H133520   4.279   5.346  17.042  0.7124  2.1555 -0.2243
 4035TIP3    H233521   4.414   5.277  17.040 -1.1679 -1.6359 -0.2707
 4036TIP3   OH233522   0.522   0.281   5.360  0.6232 -0.6892  0.2616
 4036TIP3    H133523   0.590   0.213   5.370  1.1550 -0.5819 -2.3703
 4036TIP3    H233524   0.543   0.324   5.278 -1.1957  1.0453  0.6748
 4037TIP3   OH233525   0.151   1.149  13.469  0.3407  0.5737 -0.2277
 4037TIP3    H133526   0.073   1.122  13.422  1.9309 -0.5816 -2.2898
 4037TIP3    H233527   0.195   1.210  13.410  2.1149 -0.5084 -0.0634
 4038TIP3   OH233528   2.509   4.619  14.589 -0.4027  0.0878 -0.0286
 4038TIP3    H133529   2.555   4.700  14.612 -1.0683  0.0871  1.3708
 4038TIP3    H233530   2.490   4.578  14.674 -1.5673 -0.6939 -0.6591
 4039TIP3   OH233531   3.281   4.079   3.055  0.8698 -0.0334  0.1292
 4039TIP3    H133532   3.346   4.022   3.096  0.2833 -2.5623 -2.2531
 4039TIP3    H233533   3.330   4.125   2.986  0.3275 -1.4439 -1.2288
 4040TIP3   OH233534   0.034   2.242   3.136 -0.3397 -0.2127 -0.4303
 4040TIP3    H133535   0.110   2.184   3.132  0.7212  0.8349  2.9915
 4040TIP3    H233536  -0.026   2.199   3.197  0.2041  1.8888  1.6716
 4041TIP3   OH233537   3.443   5.745   5.518 -0.2331  0.2430 -0.3449
 4041TIP3    H133538   3.370   5.702   5.562 -1.3000  2.9925  0.6910
 4041TIP3    H233539   3.449   5.702   5.433 -0.7308 -2.4221  0.9294
 4042TIP3   OH233540   5.807   4.500   0.436  0.0170  0.0430 -0.0724
 4042TIP3    H133541   5.885   4.451   0.462  0.3125 -0.0888 -1.1653
 4042TIP3    H233542   5.767   4.528   0.518 -0.8476 -3.0921  0.6278
 4043TIP3   OH233543   6.378   1.474  11.242  0.6730  0.0256 -0.0092
 4043TIP3    H133544   6.376   1.527  11.163  1.2789  0.5158  0.3034
 4043TIP3    H233545   6.318   1.401  11.224  1.0715 -0.0442 -1.0435
 4044TIP3   OH233546   1.119   4.847   5.517  0.2817 -0.5811 -0.1154
 4044TIP3    H133547   1.086   4.914   5.577  0.2049 -0.2227 -0.5555
 4044TIP3    H233548   1.200   4.816   5.558  1.1564  0.9160 -0.7007
 4045TIP3   OH233549   4.351   4.645   3.148  0.5100  0.2993  0.2573
 4045TIP3    H133550   4.356   4.554   3.176  3.9265  0.5631  0.7383
 4045TIP3    H233551   4.418   4.690   3.200  0.6791  2.5500 -1.7979
 4046TIP3   OH233552   5.687   1.169   2.583  0.5540  0.2621 -0.0749
 4046TIP3    H133553   5.745   1.189   2.510  1.1773  0.9507  0.5923
 4046TIP3    H233554   5.650   1.084   2.562  1.9458 -0.2721 -0.4456
 4047TIP3   OH233555   0.737   5.628   2.429 -0.3052 -0.3767 -0.7935
 4047TIP3    H133556   0.709   5.559   2.489  1.1384 -0.2649  0.0551
 4047TIP3    H233557   0.825   5.601   2.401 -0.0582  0.6975 -1.0891
 4048TIP3   OH233558   6.510   6.619  14.756 -0.0751  0.5184  0.3917
 4048TIP3    H133559   6.454   6.582  14.688 -0.0382  0.9334  0.1321
 4048TIP3    H233560   6.513   6.552  14.824 -1.1744  0.6409  0.5643
 4049TIP3   OH233561   2.367   3.304   0.574 -0.8251 -0.5661  0.4061
 4049TIP3    H133562   2.300   3.349   0.624 -1.4347  1.3909 -2.0673
 4049TIP3    H233563   2.433   3.370   0.555  1.2365 -2.1704  1.7622
 4050TIP3   OH233564   1.023   1.528  15.913  0.0671 -0.1161  0.8687
 4050TIP3    H133565   1.114   1.524  15.943 -0.1039  1.5274  1.6500
 4050TIP3    H233566   1.014   1.452  15.855  1.6762 -0.8082  1.4757
 4051TIP3   OH233567   5.216   2.523  10.481  0.1907 -0.5266  0.3405
 4051TIP3    H133568   5.293   2.471  10.504  1.9923  1.9545  0.2520
 4051TIP3    H233569   5.252   2.600  10.437 -2.4949 -0.1037 -1.2443
 4052TIP3   OH233570   5.771   5.592  13.118 -0.3968  0.6577 -0.7959
 4052TIP3    H133571   5.709   5.560  13.053 -2.6112 -1.3179  2.1330
 4052TIP3    H233572   5.810   5.512  13.154  1.4614  1.7518 -0.2930
 4053TIP3   OH233573   5.919   4.227  12.499  0.2614  0.0591 -0.3527
 4053TIP3    H133574   6.013   4.209  12.504  0.3963  0.9051  0.2453
 4053TIP3    H233575   5.907   4.306  12.552 -0.6271  0.5595 -1.2826
 4054TIP3   OH233576   0.307   0.970   2.167 -0.2928 -0.5196 -0.5618
 4054TIP3    H133577   0.401   0.982   2.179 -0.2307  1.2689 -2.6121
 4054TIP3    H233578   0.291   0.880   2.194  1.4925  0.0324  2.6077
 4055TIP3   OH233579   1.228   2.576   0.723  0.2938  0.6648 -0.4236
 4055TIP3    H133580   1.310   2.531   0.703  0.2379  0.2463  0.2774
 4055TIP3    H233581   1.160   2.522   0.683  0.3701  1.0893 -1.1298
 4056TIP3   OH233582   3.999   3.335  13.038  0.1342  0.3316  0.0693
 4056TIP3    H133583   4.072   3.397  13.042 -0.5480  1.2254 -1.0839
 4056TIP3    H233584   3.934   3.371  13.099 -0.6521  1.2897 -1.3074
 4057TIP3   OH233585   4.233   6.490  12.101  0.4679  0.2266 -0.3944
 4057TIP3    H133586   4.276   6.406  12.116  0.0979 -0.1830 -1.5562
 4057TIP3    H233587   4.161   6.470  12.042  1.0715  1.5385 -1.6165
 4058TIP3   OH233588   4.626   5.627  15.545  0.1089 -0.3466  0.0458
 4058TIP3    H133589   4.624   5.722  15.535 -2.1217 -0.5282 -1.4850
 4058TIP3    H233590   4.682   5.597  15.474  0.0913 -0.2381 -0.0150
 4059TIP3   OH233591   5.450   5.601   1.033  0.3230  0.0231 -0.3923
 4059TIP3    H133592   5.420   5.571   0.947  1.4593  0.3486 -0.9116
 4059TIP3    H233593   5.445   5.696   1.028 -2.1765 -0.0007  0.8579
 4060TIP3   OH233594   2.137   1.065  11.238 -1.6183  0.5616  0.8744
 4060TIP3    H133595   2.180   1.041  11.156  0.3434 -1.7459  2.5389
 4060TIP3    H233596   2.118   1.158  11.228  1.1565  0.9720 -1.0695
 4061TIP3   OH233597   0.332   3.922   0.944 -0.1422 -0.0632  0.5140
 4061TIP3    H133598   0.323   3.892   0.854  0.5186  1.7836 -0.1842
 4061TIP3    H233599   0.426   3.929   0.958 -0.2322 -0.5411  1.4358
 4062TIP3   OH233600   5.404   1.780   2.834 -0.0771 -0.0405 -0.4348
 4062TIP3    H133601   5.467   1.815   2.898 -0.3526  0.0208 -0.1954
 4062TIP3    H233602   5.426   1.688   2.827 -0.1908 -0.0990 -0.0731
 4063TIP3   OH233603   1.137   6.063  16.420  0.5261  0.5768 -0.2843
 4063TIP3    H133604   1.197   6.127  16.381 -0.6313  1.4610 -0.6224
 4063TIP3    H233605   1.194   5.991  16.447  1.4500  0.2711 -2.8930
 4064TIP3   OH233606   0.203   5.004   3.958  0.6241  0.1580 -0.5636
 4064TIP3    H133607   0.205   4.954   4.039 -0.6465  1.7755  0.4845
 4064TIP3    H233608   0.292   4.996   3.922  1.4033  0.0344  1.3620
 4065TIP3   OH233609   1.882   1.860  13.477  0.1660  0.6374  0.0006
 4065TIP3    H133610   1.822   1.810  13.533  0.7207  0.7497  0.6934
 4065TIP3    H233611   1.969   1.842  13.513  0.6462 -0.2168 -1.5236
 4066TIP3   OH233612   5.727   0.394  16.121  0.1810 -0.1933 -0.5888
 4066TIP3    H133613   5.757   0.483  16.105 -1.4532  0.4090 -0.4094
 4066TIP3    H233614   5.672   0.373  16.045 -0.7593 -0.4319  0.1454
 4067TIP3   OH233615   6.264   3.827  12.598  0.8442  0.1238 -0.5068
 4067TIP3    H133616   6.342   3.793  12.641 -1.3671 -1.5136  2.3894
 4067TIP3    H233617   6.243   3.907  12.646 -0.0535 -0.1998 -0.3543
 4068TIP3   OH233618   2.940   3.670  14.885  0.8164  0.1961  0.1427
 4068TIP3    H133619   2.930   3.760  14.916  2.3805  0.1592  0.7982
 4068TIP3    H233620   3.014   3.636  14.935  0.9448 -1.0944 -0.9104
 4069TIP3   OH233621   6.706   1.884   2.992 -0.1726  0.3387 -1.1490
 4069TIP3    H133622   6.629   1.900   2.937 -1.2022 -0.0492  0.1433
 4069TIP3    H233623   6.777   1.928   2.947 -1.1996  0.9243 -2.2419
 4070TIP3   OH233624   2.550   6.277  13.936 -0.4553 -0.0177  0.2623
 4070TIP3    H133625   2.555   6.290  14.031  0.9638 -0.5748  0.2771
 4070TIP3    H233626   2.614   6.209  13.918  1.8000  2.4687 -1.5348
 4071TIP3   OH233627   5.325   2.237   4.313  0.6258  0.4171  0.3309
 4071TIP3    H133628   5.334   2.146   4.283  0.7491  0.9126 -1.1952
 4071TIP3    H233629   5.238   2.263   4.284  1.1161  1.2205 -0.4553
 4072TIP3   OH233630   4.292   0.443  14.080  0.6424  0.1746 -0.1789
 4072TIP3    H133631   4.265   0.463  14.169  1.5063  1.1733 -0.1315
 4072TIP3    H233632   4.366   0.501  14.063 -0.0983  0.6785 -1.8776
 4073TIP3   OH233633   0.931   4.385  16.493  0.0579 -0.0440  0.4332
 4073TIP3    H133634   0.922   4.443  16.418  0.5751 -0.1477  0.2933
 4073TIP3    H233635   0.991   4.317  16.464 -0.2210 -0.4242  0.7352
 4074TIP3   OH233636   0.902   1.780   6.436 -0.5871  0.2411 -0.6784
 4074TIP3    H133637   0.822   1.769   6.487 -1.2179  0.5584 -1.5827
 4074TIP3    H233638   0.907   1.702   6.380 -0.6643  0.5686 -1.1490
 4075TIP3   OH233639   4.033   6.472  17.193 -0.4953  0.0361  0.0977
 4075TIP3    H133640   4.111   6.444  17.145 -0.8907  0.3058 -0.7256
 4075TIP3    H233641   4.065   6.498  17.279  0.1443 -1.0935  0.2135
 4076TIP3   OH233642   4.884   1.242   0.432 -0.0798  0.2137 -0.3585
 4076TIP3    H133643   4.900   1.287   0.349 -0.3425 -0.5743 -0.8452
 4076TIP3    H233644   4.964   1.254   0.482  0.4099 -0.0363 -1.0729
 4077TIP3   OH233645   5.143   3.666  13.522  0.7034 -0.4988  0.2807
 4077TIP3    H133646   5.209   3.733  13.502 -0.4931  0.2353 -1.3729
 4077TIP3    H233647   5.169   3.631  13.607  0.9158  2.6205  1.5667
 4078TIP3   OH233648   5.513   6.134   1.327 -0.3872 -0.1409 -0.0359
 4078TIP3    H133649   5.533   6.148   1.234 -0.7940  1.3805  0.0826
 4078TIP3    H233650   5.593   6.163   1.372 -0.4321 -0.2692  0.1226
 4079TIP3   OH233651   3.209   0.963  16.989  0.3595 -0.1934  0.2942
 4079TIP3    H133652   3.225   1.012  17.070  0.3985  0.5251 -0.1388
 4079TIP3    H233653   3.251   0.878  17.004  1.5314  0.4137  0.5246
 4080TIP3   OH233654   0.609   2.375   1.684  0.0953  0.6152 -0.4240
 4080TIP3    H133655   0.610   2.351   1.592 -2.0809  0.3054 -0.3927
 4080TIP3    H233656   0.548   2.448   1.689 -0.8993 -0.2885  0.9697
 4081TIP3   OH233657   1.943   2.705   5.365  0.1997  0.0928 -0.1089
 4081TIP3    H133658   2.010   2.741   5.306  2.5892  0.0484  2.4493
 4081TIP3    H233659   1.884   2.657   5.308  1.9798  0.7057 -2.5595
 4082TIP3   OH233660   0.286   2.158   5.571  0.3946  0.6994 -0.1980
 4082TIP3    H133661   0.196   2.144   5.541  0.1969 -0.7289  1.0058
 4082TIP3    H233662   0.285   2.244   5.612 -0.0559  1.3402 -1.5122
 4083TIP3   OH233663   5.254   5.612  14.150  0.2735 -0.2015 -0.0636
 4083TIP3    H133664   5.246   5.517  14.162 -0.1522 -0.2033 -0.3294
 4083TIP3    H233665   5.186   5.649  14.206  0.7662 -0.0273  0.4216
 4084TIP3   OH233666   6.501   5.865  15.486  0.4410  0.6254 -0.3451
 4084TIP3    H133667   6.473   5.948  15.524 -2.1548 -0.7842  1.0003
 4084TIP3    H233668   6.446   5.854  15.408  2.2053  1.1186 -1.6735
 4085TIP3   OH233669   6.368   0.952   5.296 -0.2723  0.2588 -0.5802
 4085TIP3    H133670   6.439   0.891   5.279 -0.6377 -0.4069  0.2567
 4085TIP3    H233671   6.404   1.015   5.358 -0.5953 -0.4432  0.3331
 4086TIP3   OH233672   3.336   6.277   1.217  0.2069 -0.4287  0.5456
 4086TIP3    H133673   3.407   6.228   1.258  1.6018  0.7681 -0.3776
 4086TIP3    H233674   3.298   6.328   1.288  1.9338  0.8494  0.5730
 4087TIP3   OH233675   3.366   2.363   3.727 -0.0052  0.3144 -0.7275
 4087TIP3    H133676   3.350   2.441   3.781  1.5262 -0.4548  0.9077
 4087TIP3    H233677   3.382   2.397   3.640  2.0853  1.9845  0.2616
 4088TIP3   OH233678   0.248   2.359  14.223  0.0993  0.2180  0.3957
 4088TIP3    H133679   0.231   2.392  14.134 -0.3795 -0.8597  0.0845
 4088TIP3    H233680   0.327   2.306  14.215 -1.8509 -2.7210 -0.1052
 4089TIP3   OH233681   3.983   5.053  16.610 -0.0064  0.2722  0.3861
 4089TIP3    H133682   3.990   5.044  16.705  0.7296 -3.6988  0.0571
 4089TIP3    H233683   3.895   5.022  16.589  0.4590 -0.5775 -0.3607
 4090TIP3   OH233684   2.993   5.534  16.318  0.2831 -0.2320  0.0132
 4090TIP3    H133685   3.029   5.475  16.384 -0.8158  0.0212  0.8548
 4090TIP3    H233686   2.908   5.562  16.354  0.8092  1.9158 -0.3285
 4091TIP3   OH233687   2.939   3.724   0.565  0.3226  0.0877  0.1982
 4091TIP3    H133688   3.029   3.696   0.580  0.9397  0.7552 -2.0972
 4091TIP3    H233689   2.916   3.775   0.643  1.8557 -0.2576  0.8875
 4092TIP3   OH233690   1.662   6.670   2.221 -0.1894  0.2722  0.1142
 4092TIP3    H133691   1.644   6.764   2.232 -1.3348  0.0827 -0.0750
 4092TIP3    H233692   1.616   6.647   2.141 -1.2004 -0.7867  0.9836
 4093TIP3   OH233693   6.724   3.435   4.907 -0.2326  0.8192  0.6760
 4093TIP3    H133694   6.736   3.528   4.885 -2.1700  0.5407 -1.7700
 4093TIP3    H233695   6.650   3.435   4.969  0.2366  0.9473  1.2456
 4094TIP3   OH233696   6.414   0.264  14.523 -0.8499  0.1269  0.9019
 4094TIP3    H133697   6.474   0.219  14.582  1.4195  0.3904 -1.1481
 4094TIP3    H233698   6.353   0.196  14.494  1.8555 -1.4800 -1.2766
 4095TIP3   OH233699   5.823   0.873  15.735  0.1817 -0.0802  0.0112
 4095TIP3    H133700   5.764   0.799  15.724 -1.2469  0.7648  1.7811
 4095TIP3    H233701   5.767   0.950  15.730  1.7509  0.9341 -2.4789
 4096TIP3   OH233702   2.445   5.233   1.686 -0.0532  0.1062 -0.2640
 4096TIP3    H133703   2.410   5.310   1.640 -1.0734  0.2077  0.6581
 4096TIP3    H233704   2.391   5.225   1.764  0.5675 -1.0811  0.0613
 4097TIP3   OH233705   3.268   1.468  14.273 -0.0123  0.1297 -0.4890
 4097TIP3    H133706   3.329   1.429  14.211  1.0542  0.4277  0.3474
 4097TIP3    H233707   3.283   1.421  14.355  0.6795  1.6878  0.3048
 4098TIP3   OH233708   3.034   3.797   4.414 -0.1483  0.0085  0.4585
 4098TIP3    H133709   3.055   3.841   4.497 -0.2035  0.1257  0.4111
 4098TIP3    H233710   3.116   3.795   4.366  0.1649 -1.1456  1.0147
 4099TIP3   OH233711   6.668   5.437   4.953 -0.1308 -0.0990  0.2715
 4099TIP3    H133712   6.675   5.521   4.997 -0.9001  1.7732 -3.0056
 4099TIP3    H233713   6.754   5.424   4.912 -0.7275  0.2162 -1.1039
 4100TIP3   OH233714   1.366   1.696  12.345  0.0464 -0.2566 -0.1731
 4100TIP3    H133715   1.339   1.772  12.397  0.7331 -1.3906  1.8989
 4100TIP3    H233716   1.305   1.696  12.270  0.0437  2.3004 -0.2256
 4101TIP3   OH233717   6.472   0.620   2.807  0.3369 -0.3736  0.2881
 4101TIP3    H133718   6.427   0.673   2.872 -0.1640  0.7100 -0.9070
 4101TIP3    H233719   6.555   0.666   2.792  1.4979 -1.8966  1.8551
 4102TIP3   OH233720   1.155   4.853  10.868 -0.2278  0.4265  0.4851
 4102TIP3    H133721   1.095   4.925  10.847  0.3570  0.6947 -0.3046
 4102TIP3    H233722   1.236   4.897  10.896  0.5078  0.0939 -1.0816
 4103TIP3   OH233723   5.606   6.643   3.455  0.0965  0.2914 -0.6475
 4103TIP3    H133724   5.555   6.609   3.528 -0.0301  1.2801 -0.2711
 4103TIP3    H233725   5.695   6.650   3.489 -0.2511  2.2334 -0.0777
 4104TIP3   OH233726   4.465   3.952   5.202  0.2908 -0.1172 -0.3664
 4104TIP3    H133727   4.402   4.016   5.235  1.4618  1.1197 -0.4746
 4104TIP3    H233728   4.527   3.940   5.274  0.4677 -0.6272 -0.5958
 4105TIP3   OH233729   3.237   1.391  13.741  0.1400 -0.3616  0.4510
 4105TIP3    H133730   3.155   1.361  13.781 -1.0734  1.1863 -0.8261
 4105TIP3    H233731   3.260   1.321  13.680 -0.2736 -0.7667  0.7532
 4106TIP3   OH233732   1.745   1.711  17.073  0.4832  0.0628  0.5195
 4106TIP3    H133733   1.713   1.801  17.072  0.6814  0.1303 -0.1762
 4106TIP3    H233734   1.712   1.673  16.991 -3.1748 -1.7641  2.6994
 4107TIP3   OH233735   2.387   2.014  16.570 -0.3386  0.6388  0.7007
 4107TIP3    H133736   2.327   2.010  16.496  0.4553  1.7890 -0.0186
 4107TIP3    H233737   2.473   2.001  16.532  0.1766  2.2373  1.2692
 4108TIP3   OH233738   3.617   1.766   1.415  0.2269 -0.1811  0.2134
 4108TIP3    H133739   3.617   1.695   1.479  0.3126 -0.3270  0.0538
 4108TIP3    H233740   3.699   1.754   1.366  1.3882  1.4056  1.7113
 4109TIP3   OH233741   4.379   1.723  16.354  0.7187 -0.3266  0.0275
 4109TIP3    H133742   4.338   1.804  16.325  0.5515 -0.4446 -0.0652
 4109TIP3    H233743   4.460   1.717  16.304  0.5967 -0.3559 -0.1671
 4110TIP3   OH233744   3.310   4.875  12.213 -0.3289  0.2666 -0.9973
 4110TIP3    H133745   3.375   4.806  12.220  0.0591  0.7149 -0.0608
 4110TIP3    H233746   3.310   4.917  12.299  0.5556  2.4152 -1.9873
 4111TIP3   OH233747   4.546   0.758   0.016  0.3936 -0.0188 -0.1510
 4111TIP3    H133748   4.632   0.753   0.058 -0.6278  0.8766  2.1252
 4111TIP3    H233749   4.511   0.669   0.020  0.7632 -0.1622 -0.1256
 4112TIP3   OH233750   3.063   4.664  14.932 -0.3735 -0.2603  0.1158
 4112TIP3    H133751   3.149   4.646  14.893 -1.0447 -0.4436 -1.3322
 4112TIP3    H233752   3.002   4.618  14.875 -1.4822  0.3585  0.7995
 4113TIP3   OH233753   3.443   1.919  15.737 -0.7314 -0.3809 -0.0274
 4113TIP3    H133754   3.381   1.847  15.750 -0.6185 -0.4620  0.0604
 4113TIP3    H233755   3.387   1.995  15.721 -0.8247 -0.6946 -1.2377
 4114TIP3   OH233756   5.505   5.395  15.855  0.6640 -0.4275  0.2256
 4114TIP3    H133757   5.485   5.407  15.948 -0.0270 -1.1349  0.1735
 4114TIP3    H233758   5.495   5.300  15.840 -0.0926 -0.2047 -0.7580
 4115TIP3   OH233759   0.633   5.155  16.648 -0.1716 -0.0301  0.3340
 4115TIP3    H133760   0.669   5.126  16.564 -1.9112 -0.6685 -0.2062
 4115TIP3    H233761   0.551   5.198  16.625  0.3750  1.7151  1.5257
 4116TIP3   OH233762   1.153   2.488  14.804  0.1256  0.4786 -0.1606
 4116TIP3    H133763   1.058   2.495  14.794 -0.0551 -1.0522  0.3968
 4116TIP3    H233764   1.180   2.575  14.834 -1.3491  0.4042  1.4848
 4117TIP3   OH233765   3.406   6.641   0.972 -0.1393  0.2598  0.0214
 4117TIP3    H133766   3.331   6.699   0.961 -1.7832 -1.6213  0.9842
 4117TIP3    H233767   3.399   6.609   1.062  1.0177 -1.0318 -0.3230
 4118TIP3   OH233768   2.061   0.139  12.998  0.1138 -0.0049  0.0935
 4118TIP3    H133769   2.126   0.104  12.937  1.7920  0.6779  1.4455
 4118TIP3    H233770   2.081   0.232  13.004 -0.4047  0.0418  1.2152
 4119TIP3   OH233771   0.200   0.518   2.477 -0.0969  0.2272  0.4794
 4119TIP3    H133772   0.175   0.579   2.545 -1.2164  0.4694 -0.1342
 4119TIP3    H233773   0.257   0.568   2.418 -0.2972  0.4300  0.4584
 4120TIP3   OH233774   5.216   4.571   5.726 -0.0546 -0.3447 -0.0988
 4120TIP3    H133775   5.158   4.616   5.786  0.0820  0.1329 -0.3192
 4120TIP3    H233776   5.216   4.480   5.755  0.1966 -0.0701  0.7683
 4121TIP3   OH233777   4.354   2.523  14.745  0.6229 -0.1215  0.1259
 4121TIP3    H133778   4.312   2.567  14.819  1.0717  1.6962 -0.6775
 4121TIP3    H233779   4.375   2.435  14.778  1.3113  0.8511  2.3358
 4122TIP3   OH233780   2.623   4.812  13.252 -0.4389 -0.0449  0.0043
 4122TIP3    H133781   2.682   4.817  13.327 -0.2292 -1.3837 -0.0517
 4122TIP3    H233782   2.566   4.738  13.271 -1.3805  0.5518 -0.4604
 4123TIP3   OH233783   0.044   0.023  16.262 -0.1127  0.0870  0.0743
 4123TIP3    H133784   0.065   0.116  16.256 -1.0992  0.2776 -0.3394
 4123TIP3    H233785  -0.046   0.016  16.231  0.2290 -1.1165 -0.6687
 4124TIP3   OH233786   0.883   0.620   0.424 -0.0328  0.6259 -0.3438
 4124TIP3    H133787   0.821   0.683   0.463  0.2906  1.1822 -0.7155
 4124TIP3    H233788   0.954   0.675   0.392  0.7501 -0.0293  0.2616
 4125TIP3   OH233789   1.557   5.353   5.497  0.0379  0.7468  0.0510
 4125TIP3    H133790   1.537   5.413   5.425 -4.8283 -0.5774  0.1356
 4125TIP3    H233791   1.544   5.406   5.576 -2.6054  0.0769  0.0888
 4126TIP3   OH233792   0.975   3.555  16.215  0.1515 -0.0425  0.1176
 4126TIP3    H133793   1.056   3.530  16.259 -0.4548 -0.9272  0.7508
 4126TIP3    H233794   1.003   3.606  16.139  1.3029 -0.4231  0.2817
 4127TIP3   OH233795   4.717   4.790  14.466  0.2860 -0.1034  0.5258
 4127TIP3    H133796   4.806   4.768  14.440  0.0115 -0.5250 -0.0861
 4127TIP3    H233797   4.668   4.707  14.458 -0.3126  0.2765  0.1454
 4128TIP3   OH233798   6.663   4.938   1.230 -0.3550 -0.4814  0.0654
 4128TIP3    H133799   6.735   4.937   1.167  0.3429  1.5501  0.7818
 4128TIP3    H233800   6.699   4.900   1.310  0.1786  1.2018  0.6509
 4129TIP3   OH233801   2.811   6.152  13.091 -0.1239 -0.4054  0.8403
 4129TIP3    H133802   2.731   6.182  13.135 -0.6426  0.3484 -0.5563
 4129TIP3    H233803   2.842   6.229  13.044  1.4181 -0.7101  1.3464
 4130TIP3   OH233804   4.640   5.733   4.278  0.5908  0.0473 -0.1388
 4130TIP3    H133805   4.667   5.756   4.367  0.4054  1.3215 -0.4081
 4130TIP3    H233806   4.547   5.713   4.286  0.5169  0.4098 -0.0924
 4131TIP3   OH233807   5.054   3.469   0.238  0.0177  0.7533  0.3003
 4131TIP3    H133808   5.077   3.376   0.236 -2.2824  0.1582  0.3269
 4131TIP3    H233809   5.117   3.510   0.179  0.5209 -0.9442 -0.4003
 4132TIP3   OH233810   6.351   2.954  16.563 -0.6232  0.3554  0.1188
 4132TIP3    H133811   6.443   2.981  16.554 -0.1650 -1.1055  0.3846
 4132TIP3    H233812   6.322   2.935  16.474 -1.0419  1.9864 -0.1102
 4133TIP3   OH233813   1.671   3.226   3.962 -0.1222 -0.3631  0.3971
 4133TIP3    H133814   1.715   3.162   4.018 -2.8864 -0.8509  2.0761
 4133TIP3    H233815   1.692   3.311   4.001  0.4239 -0.4738  0.3605
 4134TIP3   OH233816   5.013   5.691   4.823 -0.2937 -0.3682 -0.0541
 4134TIP3    H133817   5.038   5.601   4.840  1.5455  0.0974 -0.2266
 4134TIP3    H233818   4.928   5.701   4.867  0.1978 -1.7315  1.2428
 4135TIP3   OH233819   2.934   2.115  13.380  0.4804 -0.1027 -0.0868
 4135TIP3    H133820   2.966   2.089  13.467  1.1046 -0.4120 -0.4032
 4135TIP3    H233821   2.842   2.088  13.379  0.4132  0.1013  0.5593
 4136TIP3   OH233822   5.343   0.475  16.206 -0.0531  0.1410 -0.2320
 4136TIP3    H133823   5.327   0.485  16.112 -1.9742 -0.4753  0.0056
 4136TIP3    H233824   5.292   0.398  16.231 -1.0444  1.3484  1.6465
 4137TIP3   OH233825   5.598   0.594   3.868  0.8151  0.4733  0.1407
 4137TIP3    H133826   5.544   0.515   3.858  0.1856  1.0924 -1.5680
 4137TIP3    H233827   5.678   0.563   3.911  0.3259 -0.9881  0.0316
 4138TIP3   OH233828   0.219   3.127   5.563  0.0746 -0.3060  0.1714
 4138TIP3    H133829   0.172   3.096   5.486  0.5718 -1.6480  0.3947
 4138TIP3    H233830   0.311   3.107   5.545  0.4885  1.6300  0.0568
 4139TIP3   OH233831   4.965   6.219  14.827  0.6810 -0.1881 -0.3063
 4139TIP3    H133832   4.899   6.210  14.758  0.6749 -1.3107 -0.1644
 4139TIP3    H233833   4.922   6.184  14.906  1.5153 -1.1445 -0.2621
 4140TIP3   OH233834   3.896   6.082   5.209  0.1623  0.1079 -0.1169
 4140TIP3    H133835   3.829   6.023   5.173 -1.3549  1.9816 -0.4494
 4140TIP3    H233836   3.846   6.148   5.256  1.8158  1.4855 -0.2751
 4141TIP3   OH233837   2.260   2.719  13.778  0.3884  0.3132 -0.3573
 4141TIP3    H133838   2.351   2.749  13.769  0.4463  0.0235 -0.7418
 4141TIP3    H233839   2.260   2.630  13.743 -0.2826  0.7273 -1.4347
 4142TIP3   OH233840   6.160   1.194   0.774  0.3396  0.6381  0.0388
 4142TIP3    H133841   6.109   1.148   0.841 -0.6555  2.5413  0.6403
 4142TIP3    H233842   6.230   1.133   0.751 -1.0959 -1.2684  0.5948
 4143TIP3   OH233843   2.543   6.279   6.265  0.1499 -0.6095 -0.4412
 4143TIP3    H133844   2.577   6.305   6.350 -0.2422 -0.5674 -0.2970
 4143TIP3    H233845   2.557   6.184   6.262 -1.0533 -0.8135  0.2228
 4144TIP3   OH233846   5.228   0.653  13.120 -1.0179  0.0461 -0.2418
 4144TIP3    H133847   5.166   0.680  13.053 -1.3292 -0.0814 -0.0029
 4144TIP3    H233848   5.174   0.627  13.195 -0.7229 -0.9349 -0.3590
 4145TIP3   OH233849   6.753   2.761   1.957 -0.2798  0.0598  0.2711
 4145TIP3    H133850   6.660   2.740   1.964 -0.0424 -1.5271 -0.9680
 4145TIP3    H233851   6.797   2.680   1.981  0.7119 -0.3982 -2.9416
 4146TIP3   OH233852   4.297   5.999  13.359  0.0467  0.0621  0.9695
 4146TIP3    H133853   4.281   5.906  13.344  2.6850  0.0528 -2.4972
 4146TIP3    H233854   4.212   6.040  13.347 -0.4466 -1.5464 -1.3162
 4147TIP3   OH233855   4.338   2.760  15.450 -0.7816 -0.2157 -0.0478
 4147TIP3    H133856   4.303   2.676  15.420 -1.0945  0.6239 -2.1217
 4147TIP3    H233857   4.290   2.826  15.400 -2.2029  1.3528  3.2042
 4148TIP3   OH233858   5.407   5.612   6.317  0.1032  0.7414  0.3330
 4148TIP3    H133859   5.345   5.624   6.389 -1.3115 -1.8007 -0.4464
 4148TIP3    H233860   5.355   5.580   6.244  1.8490  1.4576 -1.2858
 4149TIP3   OH233861   1.665   0.462  15.848  0.3653  0.3610  0.4426
 4149TIP3    H133862   1.631   0.440  15.761  1.4818  0.4694 -0.0270
 4149TIP3    H233863   1.758   0.440  15.843  0.4209  0.3192  1.6321
 4150TIP3   OH233864   5.961   0.446  15.374 -0.9431  0.0648 -0.3041
 4150TIP3    H133865   6.005   0.472  15.455  0.9587 -1.0000 -0.9493
 4150TIP3    H233866   5.974   0.520  15.315  0.7983 -0.5916 -0.7743
 4151TIP3   OH233867   5.436   4.638  14.004  0.4252  0.3058  0.0895
 4151TIP3    H133868   5.364   4.692  13.973  0.0060 -1.0324 -1.2756
 4151TIP3    H233869   5.483   4.613  13.925  2.2270  0.9145  0.9453
 4152TIP3   OH233870   4.733   6.309   3.145 -0.0770 -0.4266  0.2391
 4152TIP3    H133871   4.826   6.301   3.125 -0.2733  1.6485 -1.6797
 4152TIP3    H233872   4.706   6.220   3.167  2.0682 -1.2861 -0.4159
 4153TIP3   OH233873   3.190   1.130   4.214  0.0935 -0.4910  0.6262
 4153TIP3    H133874   3.278   1.116   4.249  1.0124  1.5566 -0.7487
 4153TIP3    H233875   3.143   1.175   4.283  0.5949 -0.2455  0.8113
 4154TIP3   OH233876   6.156   6.707   4.924  0.0120 -0.0914 -0.1870
 4154TIP3    H133877   6.207   6.733   5.001 -0.7251  1.5964 -0.2325
 4154TIP3    H233878   6.177   6.614   4.911  0.9737 -0.1178  1.3967
 4155TIP3   OH233879   2.206   5.990   4.321  0.3742 -0.1550  0.4627
 4155TIP3    H133880   2.287   6.039   4.338  0.2297  0.1064  0.4045
 4155TIP3    H233881   2.235   5.901   4.304  0.7232  0.1056 -0.3550
 4156TIP3   OH233882   6.522   6.203  15.411  0.2005 -0.2638 -0.0594
 4156TIP3    H133883   6.507   6.288  15.370 -2.3942 -0.5155  0.3045
 4156TIP3    H233884   6.508   6.218  15.504 -0.4122 -1.1015 -0.0068
 4157TIP3   OH233885   2.075   3.169  13.868 -0.0992  0.4248 -0.3947
 4157TIP3    H133886   2.009   3.170  13.798 -1.0741 -0.8662  0.4884
 4157TIP3    H233887   2.158   3.161  13.822 -0.6844  0.3662 -1.4574
 4158TIP3   OH233888   0.434   0.126  12.044  0.2827  0.4209  0.0362
 4158TIP3    H133889   0.440   0.221  12.036 -2.3781  0.9123  2.8933
 4158TIP3    H233890   0.340   0.109  12.051  0.6329 -2.5755 -1.8118
 4159TIP3   OH233891   6.144   3.406  12.469 -0.1305  0.1169 -0.5146
 4159TIP3    H133892   6.141   3.476  12.534 -1.5674 -0.5846  0.1944
 4159TIP3    H233893   6.065   3.418  12.416  0.2407 -0.2420 -1.1515
 4160TIP3   OH233894   2.672   1.399   5.473  0.3836  0.0116  0.3069
 4160TIP3    H133895   2.664   1.490   5.504 -0.4378  1.3470 -3.5175
 4160TIP3    H233896   2.742   1.403   5.407 -0.4994 -1.8733 -0.7811
 4161TIP3   OH233897   5.100   3.897   4.138 -0.1111  0.1731 -0.0703
 4161TIP3    H133898   5.153   3.844   4.198  0.6600 -0.1002 -0.9804
 4161TIP3    H233899   5.027   3.840   4.115  1.5315 -1.1380 -2.2787
 4162TIP3   OH233900   5.367   2.597   4.741  0.3720  0.4622  0.7389
 4162TIP3    H133901   5.404   2.604   4.653  1.3300 -0.7868  1.0200
 4162TIP3    H233902   5.303   2.667   4.746 -0.1354  0.1677 -1.1826
 4163TIP3   OH233903   3.728   1.224  14.543  0.1148 -0.2046  0.6773
 4163TIP3    H133904   3.741   1.138  14.504  1.4435 -0.1170  0.8816
 4163TIP3    H233905   3.664   1.267  14.487  0.9205 -0.6073 -0.5771
 4164TIP3   OH233906   4.787   0.211  14.351  0.1787  0.5378 -0.3209
 4164TIP3    H133907   4.802   0.292  14.400 -0.1261 -0.4873  1.5004
 4164TIP3    H233908   4.699   0.221  14.315  0.4351  1.3361 -0.7428
 4165TIP3   OH233909   6.624   2.670   0.510 -0.0544 -0.3422  0.1002
 4165TIP3    H133910   6.709   2.636   0.538  0.0905 -1.0056 -1.0744
 4165TIP3    H233911   6.575   2.683   0.591  1.6831  1.4815  0.8930
 4166TIP3   OH233912   2.153   3.455   4.972 -0.4881 -0.0967 -0.4683
 4166TIP3    H133913   2.087   3.523   4.961 -0.4904  0.0024  0.1239
 4166TIP3    H233914   2.234   3.494   4.941  0.4697  1.8308  4.0016
 4167TIP3   OH233915   0.768   4.102  11.064  0.5847  0.4362  0.6528
 4167TIP3    H133916   0.789   4.022  11.017  2.6023  0.9995  0.5467
 4167TIP3    H233917   0.697   4.142  11.014  0.6237 -0.5086 -0.1659
 4168TIP3   OH233918   6.324   2.895   5.736 -0.0643  0.2622 -0.8787
 4168TIP3    H133919   6.401   2.837   5.735 -0.6105 -0.4723 -2.4075
 4168TIP3    H233920   6.273   2.867   5.660 -2.4106 -0.0103  0.7495
 4169TIP3   OH233921   2.944   0.840  12.982 -0.3928 -0.0318 -0.2178
 4169TIP3    H133922   2.874   0.778  13.002 -0.2126 -0.3253 -0.5035
 4169TIP3    H233923   2.899   0.923  12.966 -0.5667  0.1531  1.1643
 4170TIP3   OH233924   0.294   4.833  13.065 -0.4196  0.2010  0.6491
 4170TIP3    H133925   0.212   4.785  13.049 -0.5909  0.0467  1.9110
 4170TIP3    H233926   0.267   4.925  13.070 -0.4341  0.2031  0.5427
 4171TIP3   OH233927   5.413   6.021   5.624  0.3004 -0.2122 -0.1994
 4171TIP3    H133928   5.395   6.032   5.718 -0.2236  1.4810 -0.4822
 4171TIP3    H233929   5.508   6.016   5.619  0.3018 -1.1669  0.4941
 4172TIP3   OH233930   5.736   2.771  13.858 -0.4269  0.2930  0.5272
 4172TIP3    H133931   5.698   2.686  13.837 -0.4273  0.7966 -1.6511
 4172TIP3    H233932   5.755   2.810  13.773  1.8068  1.4752  1.5233
 4173TIP3   OH233933   4.869   6.528  15.496  0.0702 -0.0765  0.3726
 4173TIP3    H133934   4.963   6.543  15.493  0.0525 -0.2946 -2.3156
 4173TIP3    H233935   4.855   6.484  15.580  2.1815  0.9959  1.3358
 4174TIP3   OH233936   4.464   1.251  16.970  0.4620  0.8322 -0.2434
 4174TIP3    H133937   4.487   1.188  17.039 -1.9623  1.1154  0.8783
 4174TIP3    H233938   4.495   1.210  16.889  2.4812  0.0446  0.8993
 4175TIP3   OH233939   5.737   2.529   1.161  0.6575 -0.0623 -0.0435
 4175TIP3    H133940   5.737   2.446   1.208  1.0180 -0.3051 -0.4613
 4175TIP3    H233941   5.741   2.596   1.229 -0.3018 -0.3712  0.3132
 4176TIP3   OH233942   5.839   4.138   5.588 -0.1863  0.7968 -0.3199
 4176TIP3    H133943   5.788   4.156   5.509  1.7392  0.7234 -1.6023
 4176TIP3    H233944   5.927   4.171   5.568  1.1610 -2.1629  0.5498
 4177TIP3   OH233945   2.293   5.107  17.007 -0.4541  0.0172  0.0767
 4177TIP3    H133946   2.381   5.086  16.977 -1.1151 -0.7420 -1.3907
 4177TIP3    H233947   2.278   5.047  17.080 -0.0614 -0.4430 -0.2174
 4178TIP3   OH233948   2.329   2.353   3.821  0.4450 -0.1019 -0.1156
 4178TIP3    H133949   2.394   2.400   3.768  0.3318  0.4346  0.2111
 4178TIP3    H233950   2.354   2.373   3.911  0.9467 -1.4372  0.0487
 4179TIP3   OH233951   6.191   4.085   0.393 -0.1489  0.0655  0.1451
 4179TIP3    H133952   6.170   4.109   0.483  1.4566  0.2539  0.4843
 4179TIP3    H233953   6.223   3.995   0.399 -2.7122 -0.9493 -0.6415
 4180TIP3   OH233954   6.660   6.261   1.366  0.6396  0.2365  0.6768
 4180TIP3    H133955   6.621   6.175   1.380 -0.3816  0.3843 -1.1393
 4180TIP3    H233956   6.586   6.321   1.366  1.0190  0.7424 -1.0022
 4181TIP3   OH233957   3.577   5.585   2.412 -0.3221  0.2373  0.1859
 4181TIP3    H133958   3.497   5.631   2.385 -0.3526 -0.2411 -0.5423
 4181TIP3    H233959   3.600   5.532   2.336  0.0684 -0.4762  0.8089
 4182TIP3   OH233960   6.565   4.572  16.982  0.3490 -0.1926 -0.4761
 4182TIP3    H133961   6.561   4.638  16.914  1.0891  1.2936  0.8853
 4182TIP3    H233962   6.490   4.592  17.039  1.1603  0.1232  0.5006
 4183TIP3   OH233963   0.542   1.159   0.852 -0.4355 -0.0527  0.0665
 4183TIP3    H133964   0.591   1.172   0.770 -0.9516  0.3101 -0.1925
 4183TIP3    H233965   0.538   1.246   0.891 -0.7119 -0.1143  0.1773
 4184TIP3   OH233966   4.103   2.109   3.316  0.0420 -0.4427  0.2030
 4184TIP3    H133967   4.106   2.098   3.221  1.9027 -0.4956  0.2326
 4184TIP3    H233968   4.093   2.020   3.350 -2.4689 -0.2416  0.0203
 4185TIP3   OH233969   6.260   2.214  16.792  0.5700 -0.0675  1.0957
 4185TIP3    H133970   6.192   2.152  16.820 -0.4785  1.6984  2.6334
 4185TIP3    H233971   6.334   2.194  16.849  0.5907 -0.5714  0.8977
 4186TIP3   OH233972   1.390   5.456   3.487  0.6795  0.2799  0.2114
 4186TIP3    H133973   1.481   5.472   3.512  0.6781 -1.3363  1.3540
 4186TIP3    H233974   1.396   5.418   3.399  1.2125 -1.0462  0.8054
 4187TIP3   OH233975   3.022   5.770   0.458 -0.0303 -0.1134  0.1489
 4187TIP3    H133976   2.965   5.693   0.461  0.8903 -0.8672 -0.9636
 4187TIP3    H233977   3.012   5.812   0.543 -2.6627  0.0842 -0.2185
 4188TIP3   OH233978   4.298   6.561   3.156  0.4541  0.3014 -0.5374
 4188TIP3    H133979   4.320   6.654   3.160  0.5972  0.3779 -2.8365
 4188TIP3    H233980   4.382   6.518   3.139 -0.0863  0.0073 -2.4626
 4189TIP3   OH233981   6.591   3.057  16.599 -0.4538  0.4918  0.3141
 4189TIP3    H133982   6.639   3.113  16.537 -0.4733  1.0492  0.7999
 4189TIP3    H233983   6.578   3.112  16.676 -0.4660 -0.1860  0.8018
 4190TIP3   OH233984   4.713   1.694  11.765 -0.0233 -0.0798 -0.1891
 4190TIP3    H133985   4.757   1.776  11.786 -0.0078 -0.3300  0.7657
 4190TIP3    H233986   4.758   1.628  11.817 -0.9262 -0.4767  0.0969
 4191TIP3   OH233987   1.000   2.597   5.662  0.1390  0.5583  0.4496
 4191TIP3    H133988   0.934   2.541   5.703  0.9609  0.1438  1.2145
 4191TIP3    H233989   1.004   2.675   5.717  0.0920  0.7087  0.2440
 4192TIP3   OH233990   6.552   4.564   1.042  0.1919  0.1116 -0.2135
 4192TIP3    H133991   6.509   4.557   1.127 -0.3598  0.2422 -0.4804
 4192TIP3    H233992   6.512   4.641   1.001  0.1231 -0.2214 -0.7785
 4193TIP3   OH233993   0.772   2.091   3.701  0.5959 -0.2610 -0.1513
 4193TIP3    H133994   0.699   2.106   3.761 -0.5593 -2.7951 -0.8198
 4193TIP3    H233995   0.827   2.027   3.746  1.8196  0.8246 -0.1103
 4194TIP3   OH233996   3.444   0.211  13.272 -0.2215 -0.5111  0.1398
 4194TIP3    H133997   3.468   0.118  13.280 -0.0642 -0.4818  0.0179
 4194TIP3    H233998   3.389   0.214  13.193  0.7687 -0.3086 -0.5479
 4195TIP3   OH233999   4.762   6.227  14.126  0.2703  0.4006 -0.0404
 4195TIP3    H134000   4.718   6.206  14.209 -0.5728  2.3910  0.0504
 4195TIP3    H234001   4.855   6.235  14.150  0.2163 -0.3419  0.4442
 4196TIP3   OH234002   1.214   4.155  13.379  0.1811  0.5998  0.1929
 4196TIP3    H134003   1.119   4.162  13.392  0.1263  0.7890 -0.3205
 4196TIP3    H234004   1.233   4.062  13.395 -0.3045  0.2596 -1.1103
 4197TIP3   OH234005   2.221   0.556   6.113 -0.1366  0.1026  0.4093
 4197TIP3    H134006   2.244   0.486   6.174  0.4813  1.1940  1.4463
 4197TIP3    H234007   2.166   0.513   6.047 -1.2982 -0.9679  2.0397
 4198TIP3   OH234008   0.283   5.281   3.518 -0.1453 -0.4380 -0.1509
 4198TIP3    H134009   0.236   5.360   3.543  0.5220  1.2078 -3.6665
 4198TIP3    H234010   0.215   5.220   3.491 -0.5502 -0.2253  0.3756
 4199TIP3   OH234011   5.725   5.549  10.511 -0.0847  0.1310 -0.3374
 4199TIP3    H134012   5.710   5.600  10.591 -1.3726 -0.7188 -0.0032
 4199TIP3    H234013   5.687   5.602  10.441  0.1228  0.4150 -0.2341
 4200TIP3   OH234014   0.426   2.296   3.228 -0.2256 -0.6830  0.1665
 4200TIP3    H134015   0.369   2.250   3.290 -0.7257 -0.1860  0.0849
 4200TIP3    H234016   0.492   2.232   3.203  0.1740 -0.7969  1.4679
 4201TIP3   OH234017   1.116   5.169   4.434  0.0700 -0.2691 -0.0954
 4201TIP3    H134018   1.102   5.099   4.371 -1.4347 -0.0369 -0.0460
 4201TIP3    H234019   1.210   5.184   4.434  0.0794 -0.2313 -2.3109
 4202TIP3   OH234020   6.523   6.774  16.808 -0.1262 -0.6850  0.3173
 4202TIP3    H134021   6.580   6.721  16.753  1.7735  1.2005  0.3842
 4202TIP3    H234022   6.480   6.834  16.747  1.2844  0.7908  0.7371
 4203TIP3   OH234023   2.797   6.595   5.874  0.5578 -0.8119 -0.0038
 4203TIP3    H134024   2.737   6.633   5.938  1.7159 -1.1348  1.2884
 4203TIP3    H234025   2.744   6.528   5.829 -0.2947 -0.4906  0.5028
 4204TIP3   OH234026   5.896   5.587  11.047 -0.2820  0.1756 -0.5622
 4204TIP3    H134027   5.953   5.629  10.983  1.3052  1.0712  1.3663
 4204TIP3    H234028   5.835   5.656  11.074  1.5958  0.9685  1.7686
 4205TIP3   OH234029   2.291   2.601   4.998 -0.2306 -0.2641 -0.5665
 4205TIP3    H134030   2.276   2.689   5.034  0.2020 -0.2481 -0.4203
 4205TIP3    H234031   2.253   2.605   4.910  1.7386  0.7737 -1.4074
 4206TIP3   OH234032   0.356   3.349  16.626  0.2571 -0.1517 -0.7317
 4206TIP3    H134033   0.371   3.330  16.718  1.4422 -1.8794 -1.2604
 4206TIP3    H234034   0.265   3.378  16.621  0.4057  0.6553  1.0675
 4207TIP3   OH234035   3.360   4.239  15.972  0.0654  0.0656 -0.9955
 4207TIP3    H134036   3.285   4.298  15.964 -1.4953 -1.6841  0.3111
 4207TIP3    H234037   3.415   4.278  16.040 -0.6355  0.3407 -0.5891
 4208TIP3   OH234038   3.525   0.417   5.645  0.0466  0.1962  0.2242
 4208TIP3    H134039   3.584   0.411   5.570 -0.9670  1.3821 -0.6784
 4208TIP3    H234040   3.437   0.409   5.608 -0.5327  2.0868  1.1070
 4209TIP3   OH234041   1.798   4.424  16.578  0.1457  0.4341  0.0518
 4209TIP3    H134042   1.762   4.434  16.666 -0.1112  2.1194 -0.2251
 4209TIP3    H234043   1.721   4.411  16.522  0.3573 -1.3816  0.1606
 4210TIP3   OH234044   5.958   6.700  14.165  0.7599  0.1852  0.1900
 4210TIP3    H134045   5.900   6.663  14.231  0.9404 -0.6244 -0.0985
 4210TIP3    H234046   6.041   6.713  14.211  0.8308 -0.2039  0.1780
 4211TIP3   OH234047   4.045   6.475  15.357 -0.3272  0.0627 -0.8047
 4211TIP3    H134048   3.949   6.468  15.350 -0.4441 -1.4758  1.5687
 4211TIP3    H234049   4.078   6.443  15.273 -1.8681 -1.4388 -0.8690
 4212TIP3   OH234050   5.314   4.305  17.186  0.3586 -0.5853 -0.3979
 4212TIP3    H134051   5.303   4.309  17.281 -0.8774  0.7600 -0.5802
 4212TIP3    H234052   5.336   4.214  17.168 -1.2038 -1.2616  1.0077
 4213TIP3   OH234053   2.893   1.989   0.044 -1.0295 -0.4469 -0.2116
 4213TIP3    H134054   2.924   2.055   0.107 -1.3240 -0.8175  0.3309
 4213TIP3    H234055   2.973   1.944   0.017 -0.7903  0.3469 -0.8330
 4214TIP3   OH234056   5.391   2.254   0.409  0.3686 -0.3069  0.0678
 4214TIP3    H134057   5.410   2.160   0.412  0.7638 -0.3000 -1.7676
 4214TIP3    H234058   5.321   2.266   0.474 -0.7848 -2.1260 -0.8006
 4215TIP3   OH234059   5.352   0.983  12.514 -0.4813  0.1901 -0.4305
 4215TIP3    H134060   5.395   1.068  12.528 -1.1833  0.4780  0.0086
 4215TIP3    H234061   5.421   0.927  12.478 -0.5238  1.5055 -2.6506
 4216TIP3   OH234062   6.679   1.622  13.334  0.0761  0.4188 -0.3499
 4216TIP3    H134063   6.589   1.595  13.350  0.5403 -0.1764  1.4629
 4216TIP3    H234064   6.674   1.716  13.317 -0.9329  0.2944 -0.7526
 4217TIP3   OH234065   4.475   6.690   1.261 -0.4009 -0.3780  0.4955
 4217TIP3    H134066   4.391   6.688   1.306 -0.7626 -0.1775 -0.1658
 4217TIP3    H234067   4.524   6.761   1.303 -0.0367 -1.3839  1.7979
 4218TIP3   OH234068   2.015   1.456  13.510 -0.7196 -0.1398 -0.1901
 4218TIP3    H134069   1.970   1.410  13.581 -0.5649 -0.0350 -0.0224
 4218TIP3    H234070   1.973   1.425  13.430  0.4708 -1.8464 -0.1999
 4219TIP3   OH234071   6.029   4.824  16.587  0.7553 -0.4687 -0.0846
 4219TIP3    H134072   6.050   4.870  16.668  0.1352  2.6844 -1.6120
 4219TIP3    H234073   5.976   4.750  16.614  0.9560  0.2652  2.4231
 4220TIP3   OH234074   1.596   4.013  14.666  0.6740  0.0365  0.2583
 4220TIP3    H134075   1.623   3.973  14.583  0.1899 -3.5039  1.6859
 4220TIP3    H234076   1.500   4.018  14.659  0.7093  0.5779  0.2161
 4221TIP3   OH234077   4.610   6.389  16.842 -0.1068  0.0147  1.4249
 4221TIP3    H134078   4.517   6.376  16.856 -0.0964  0.0980  1.5748
 4221TIP3    H234079   4.646   6.301  16.832  0.0380 -0.1057  2.8820
 4222TIP3   OH234080   4.577   0.604  11.860  0.0489 -0.0014 -0.9146
 4222TIP3    H134081   4.640   0.670  11.889  0.8600 -0.6489 -1.1790
 4222TIP3    H234082   4.498   0.654  11.838 -0.4074  0.5689  1.8337
 4223TIP3   OH234083   4.259   5.767  14.433  0.4497 -0.3346 -0.2032
 4223TIP3    H134084   4.323   5.765  14.362  0.4591 -1.1587 -0.1752
 4223TIP3    H234085   4.174   5.761  14.388  0.4901 -1.7513 -0.0950
 4224TIP3   OH234086   1.753   3.004   4.120  0.0747  0.4092 -0.1765
 4224TIP3    H134087   1.768   2.962   4.035 -1.4409  0.9906 -0.7541
 4224TIP3    H234088   1.699   2.942   4.168  0.3647  0.3791  0.1122
 4225TIP3   OH234089   6.300   3.029   1.345 -0.3109  0.7118  0.1807
 4225TIP3    H134090   6.330   2.938   1.343  0.5711  1.0051 -0.3863
 4225TIP3    H234091   6.364   3.074   1.400 -0.0518  1.2271 -0.5332
 4226TIP3   OH234092   1.812   2.511   5.193 -0.4089 -0.5290  0.3715
 4226TIP3    H134093   1.826   2.436   5.135 -0.5159 -2.9291  3.3314
 4226TIP3    H234094   1.719   2.510   5.211 -0.4326  0.4348  0.3250
 4227TIP3   OH234095   4.863   1.794  16.210 -0.6844 -0.1592 -0.3617
 4227TIP3    H134096   4.916   1.748  16.145 -1.1363 -0.5164 -0.4817
 4227TIP3    H234097   4.856   1.883  16.176  0.5938  0.1392  0.1096
 4228TIP3   OH234098   5.305   3.575   0.523 -0.4387 -0.0467 -0.1078
 4228TIP3    H134099   5.379   3.621   0.564 -0.1212  1.2364 -2.0729
 4228TIP3    H234100   5.340   3.490   0.500 -0.4150 -0.5270  1.5956
 4229TIP3   OH234101   1.260   1.111   0.397 -0.2913 -0.3789 -0.0067
 4229TIP3    H134102   1.185   1.121   0.337 -0.4260  1.2624  0.4150
 4229TIP3    H234103   1.223   1.072   0.476 -0.4170 -1.0090 -0.3755
 4230TIP3   OH234104   4.786   5.773  14.803  0.3664  0.0716 -0.4891
 4230TIP3    H134105   4.738   5.697  14.837  1.2032 -0.2763 -0.0735
 4230TIP3    H234106   4.742   5.794  14.721  0.1133 -0.8515 -0.5976
 4231TIP3   OH234107   3.480   0.158   5.506 -0.1972 -0.0947  0.1028
 4231TIP3    H134108   3.500   0.167   5.412 -1.7536 -2.7671 -0.5514
 4231TIP3    H234109   3.402   0.212   5.519  0.6265  1.1163  0.1123
 4232TIP3   OH234110   2.675   2.602  16.292 -0.4344 -0.0007  0.2214
 4232TIP3    H134111   2.761   2.605  16.333 -1.6288  0.2032  2.7731
 4232TIP3    H234112   2.681   2.664  16.219  1.8811 -0.7901 -0.3034
 4233TIP3   OH234113   1.989   4.300  16.299 -0.1303  0.3893 -0.0161
 4233TIP3    H134114   1.936   4.360  16.246  0.0571 -1.4599 -2.3682
 4233TIP3    H234115   1.931   4.225  16.314  0.0372  0.6312  1.9129
 4234TIP3   OH234116   4.282   5.008  10.726  0.2382 -0.2542 -0.3057
 4234TIP3    H134117   4.216   5.012  10.657 -0.8397  4.2754  0.8122
 4234TIP3    H234118   4.232   4.992  10.806  0.6148  1.5648  0.3231
 4235TIP3   OH234119   2.036   5.395   0.262  0.1874  0.0344  0.5778
 4235TIP3    H134120   2.122   5.432   0.246  0.0825  0.2729  0.5541
 4235TIP3    H234121   2.036   5.312   0.215 -1.0158  1.8920 -2.9236
 4236TIP3   OH234122   6.571   4.804  16.504 -0.4661 -0.2246 -0.3878
 4236TIP3    H134123   6.593   4.890  16.467  0.5252 -0.8151 -1.1802
 4236TIP3    H234124   6.478   4.793  16.485 -0.2792  0.0805 -1.5030
 4237TIP3   OH234125   5.006   3.961   5.973 -0.4267  0.1964  0.1801
 4237TIP3    H134126   5.070   3.890   5.974 -0.3969  0.1961  3.2927
 4237TIP3    H234127   5.058   4.040   5.991 -0.6765  0.8445 -1.7984
 4238TIP3   OH234128   2.361   1.666   2.837  0.2798 -0.8472  1.3197
 4238TIP3    H134129   2.406   1.610   2.774 -0.5068  0.6719 -0.6457
 4238TIP3    H234130   2.270   1.637   2.835  0.2447 -0.7796  1.7492
 4239TIP3   OH234131   1.514   1.510   2.345  0.0280 -0.0572  0.1108
 4239TIP3    H134132   1.487   1.572   2.277 -1.4127 -1.2316 -0.4065
 4239TIP3    H234133   1.555   1.438   2.297  1.0580  0.1476  0.6646
 4240TIP3   OH234134   0.565   0.224   4.976 -0.3697  0.1398 -0.8690
 4240TIP3    H134135   0.574   0.318   4.966 -0.2229  0.2095 -0.0919
 4240TIP3    H234136   0.645   0.197   5.021  0.1526 -0.5234 -2.1575
 4241TIP3   OH234137   5.153   2.297   1.389 -0.0958 -0.0867  0.0004
 4241TIP3    H134138   5.076   2.341   1.424 -1.2195 -1.5695 -0.5353
 4241TIP3    H234139   5.201   2.365   1.342 -1.1119  0.8326  0.2877
 4242TIP3   OH234140   6.455   3.910   0.970 -0.3357  0.4758 -0.0737
 4242TIP3    H134141   6.362   3.930   0.959 -0.0220  1.3706 -1.2316
 4242TIP3    H234142   6.465   3.894   1.064 -1.4013  1.7886  0.2886
 4243TIP3   OH234143   1.747   3.478   4.077 -0.0015 -0.1788 -0.4000
 4243TIP3    H134144   1.694   3.556   4.091  0.2954 -0.1420  0.5489
 4243TIP3    H234145   1.815   3.506   4.015 -0.7052 -0.0631 -1.1399
 4244TIP3   OH234146   0.813   3.972  12.597 -0.5158 -0.0364  0.8017
 4244TIP3    H134147   0.858   3.979  12.681  0.9372 -0.0097  0.0345
 4244TIP3    H234148   0.855   3.898  12.554 -0.9626  0.2227 -0.0847
 4245TIP3   OH234149   0.786   5.327   4.840 -0.2651 -0.4558  0.3672
 4245TIP3    H134150   0.719   5.377   4.886 -1.5867 -0.2781 -1.7194
 4245TIP3    H234151   0.762   5.235   4.855 -0.6570 -0.3983  0.1045
 4246TIP3   OH234152   0.248   4.118   0.250  0.4827 -0.7038  0.1002
 4246TIP3    H134153   0.299   4.127   0.170  1.3665  1.2531  0.8696
 4246TIP3    H234154   0.207   4.203   0.262  1.2530 -0.6196  2.3248
 4247TIP3   OH234155   0.214   0.500  12.150 -0.0517  0.2883  1.0756
 4247TIP3    H134156   0.204   0.449  12.070 -1.5685  1.3581  0.5567
 4247TIP3    H234157   0.300   0.475  12.183  0.9173  0.3444 -1.2659
 4248TIP3   OH234158   1.453   3.502  16.739 -0.1088 -0.1739 -0.0513
 4248TIP3    H134159   1.531   3.516  16.685  0.0669  2.0564  0.7038
 4248TIP3    H234160   1.380   3.510  16.677  0.2191 -1.5821 -0.6380
 4249TIP3   OH234161   3.686   5.587   4.738  0.1510  0.2318  0.0248
 4249TIP3    H134162   3.681   5.613   4.646  1.2160 -1.0549 -0.4045
 4249TIP3    H234163   3.779   5.570   4.753  0.0608  1.0158  1.5014
 4250TIP3   OH234164   2.543   5.289   0.119 -0.7582  0.5295 -0.1024
 4250TIP3    H134165   2.503   5.262   0.202 -2.1108  0.1466 -0.8465
 4250TIP3    H234166   2.608   5.354   0.144  1.9083 -2.6252  1.6684
 4251TIP3   OH234167   1.577   4.745  13.615 -0.8277  0.1315 -0.0664
 4251TIP3    H134168   1.520   4.668  13.610  0.6868 -1.0611  0.4781
 4251TIP3    H234169   1.578   4.780  13.526 -1.8929 -0.2214 -0.2218
 4252TIP3   OH234170   3.396   2.013   6.149  0.3264 -0.4005 -0.0949
 4252TIP3    H134171   3.309   2.049   6.163  0.9123  0.9911  0.0983
 4252TIP3    H234172   3.390   1.922   6.178 -0.8283 -0.0658  0.7398
 4253TIP3   OH234173   3.407   3.712  14.902  0.0013 -0.0289  0.2363
 4253TIP3    H134174   3.360   3.785  14.861  0.2975  0.7639  1.2986
 4253TIP3    H234175   3.337   3.657  14.938 -0.1749  0.4961  0.7122
 4254TIP3   OH234176   0.351   1.928  16.711 -0.2433  0.0839  0.6058
 4254TIP3    H134177   0.432   1.953  16.756  0.6891 -0.2175 -0.8648
 4254TIP3    H234178   0.369   1.947  16.619 -1.7193 -0.3383  0.2323
 4255TIP3   OH234179   6.548   3.747  16.879  0.0055 -0.2449 -0.0732
 4255TIP3    H134180   6.474   3.709  16.927 -1.4082  1.1234 -1.1004
 4255TIP3    H234181   6.573   3.680  16.817 -2.3357  0.3459 -1.7350
 4256TIP3   OH234182   5.756   3.851  12.087  0.2606  0.4095 -0.5025
 4256TIP3    H134183   5.801   3.814  12.163 -0.0956  0.6945 -0.1473
 4256TIP3    H234184   5.820   3.910  12.047  0.6614 -0.2210 -0.7848
 4257TIP3   OH234185   4.853   6.261  15.082 -0.2319  0.4930  0.2309
 4257TIP3    H134186   4.840   6.331  15.146  0.7549 -0.3079  1.3253
 4257TIP3    H234187   4.784   6.197  15.102 -0.3450  0.5647  0.0630
 4258TIP3   OH234188   1.652   2.909  12.658  0.2141 -0.4365 -0.8419
 4258TIP3    H134189   1.623   2.821  12.683  1.4186 -0.7627 -0.5733
 4258TIP3    H234190   1.581   2.966  12.687 -0.1420 -1.2236 -0.1362
 4259TIP3   OH234191   4.335   3.122   1.206 -0.1375  0.1314  0.1940
 4259TIP3    H134192   4.329   3.213   1.178 -0.5940 -0.0187 -0.1995
 4259TIP3    H234193   4.428   3.100   1.195 -0.0793  0.4639  0.0159
 4260TIP3   OH234194   1.702   2.958   3.587 -0.0797 -0.6635  0.3350
 4260TIP3    H134195   1.759   3.020   3.633 -1.1469 -0.5813  1.5912
 4260TIP3    H234196   1.735   2.872   3.611 -0.7524 -0.6225  1.4298
 4261TIP3   OH234197   3.945   5.512   6.052 -0.2473  0.2471 -0.3989
 4261TIP3    H134198   3.979   5.505   5.962  2.5722 -1.9257  0.7617
 4261TIP3    H234199   3.963   5.603   6.076  0.0522  0.5350 -1.6488
 4262TIP3   OH234200   3.474   3.018  13.820  0.1734  0.7798 -0.7890
 4262TIP3    H134201   3.465   2.992  13.728  1.8326  2.6153 -1.4943
 4262TIP3    H234202   3.402   3.080  13.834  0.7776  1.5925 -1.2611
 4263TIP3   OH234203   0.858   0.843   0.786  0.7442  0.0714  0.7869
 4263TIP3    H134204   0.810   0.788   0.724  0.3903 -0.9956  1.9812
 4263TIP3    H234205   0.790   0.876   0.845  0.6771  3.3368 -1.0160
 4264TIP3   OH234206   1.685   5.734  13.000  0.6408 -0.5393  0.4722
 4264TIP3    H134207   1.680   5.652  13.049 -0.6006 -0.3542  0.6608
 4264TIP3    H234208   1.743   5.789  13.052  0.2417 -0.7501  1.1506
 4265TIP3   OH234209   2.875   4.345   4.777 -0.0102  0.0589 -0.5352
 4265TIP3    H134210   2.792   4.356   4.732 -0.4583 -0.4959  0.1343
 4265TIP3    H234211   2.856   4.369   4.868  0.6319  0.2240 -0.4413
 4266TIP3   OH234212   4.924   2.989  11.802  0.3425 -0.2248  0.0539
 4266TIP3    H134213   4.916   2.912  11.858 -1.0259 -0.5448 -0.5530
 4266TIP3    H234214   4.972   2.958  11.725 -0.4499 -0.5596 -0.3168
 4267TIP3   OH234215   4.496   4.181   6.299  0.1113 -0.3993  0.3072
 4267TIP3    H134216   4.469   4.095   6.333 -4.6456  0.9883  0.4700
 4267TIP3    H234217   4.480   4.241   6.372  3.0321  0.7544  0.0644
 4268TIP3   OH234218   3.152   6.591   1.279  0.2769  0.0728  0.0536
 4268TIP3    H134219   3.072   6.616   1.325  0.8365  2.5867 -0.2208
 4268TIP3    H234220   3.123   6.533   1.209 -1.5578  2.3570 -1.1350
 4269TIP3   OH234221   6.684   2.324   0.206 -0.1304 -0.4057  0.7041
 4269TIP3    H134222   6.612   2.377   0.171  0.4124  0.4932  0.9472
 4269TIP3    H234223   6.715   2.274   0.130  0.8878  1.3658 -0.0803
 4270TIP3   OH234224   2.951   0.512   5.980 -0.8005  0.3221 -0.0380
 4270TIP3    H134225   3.039   0.510   5.944 -1.1767  0.6643 -0.9672
 4270TIP3    H234226   2.958   0.565   6.059  0.2289 -1.2479  0.9650
 4271TIP3   OH234227   3.062   4.918  15.003  0.2339 -0.1914  0.3818
 4271TIP3    H134228   2.985   4.966  14.972  0.6402  1.3227  1.6239
 4271TIP3    H234229   3.055   4.832  14.963 -3.0089 -0.6615  1.8345
 4272TIP3   OH234230   6.406   2.648   6.286  0.2846 -0.4871  0.0330
 4272TIP3    H134231   6.311   2.653   6.293  0.4505  0.0475  2.1936
 4272TIP3    H234232   6.438   2.695   6.362  2.2863 -2.2071  0.2963
 4273TIP3   OH234233   2.860   5.964   2.120  0.1630  0.2122  0.1017
 4273TIP3    H134234   2.938   6.019   2.109  0.0207  0.0811 -1.7665
 4273TIP3    H234235   2.822   5.993   2.202  2.4352 -0.0483  1.2895
 4274TIP3   OH234236   1.745   2.729  13.045 -0.2441  0.4862  0.2089
 4274TIP3    H134237   1.784   2.749  13.131  0.0780  1.9898 -0.2731
 4274TIP3    H234238   1.796   2.655  13.012  0.9557  1.1990  0.4399
 4275TIP3   OH234239   2.358   2.934   5.329  0.0885  0.1364  0.1306
 4275TIP3    H134240   2.414   3.000   5.289  0.1763 -0.5395 -0.9001
 4275TIP3    H234241   2.285   2.923   5.267 -0.1876 -0.3570  0.5353
 4276TIP3   OH234242   2.296   2.135   4.737 -0.1898  0.3882  0.1703
 4276TIP3    H134243   2.233   2.165   4.802 -0.4242 -1.2420  0.7070
 4276TIP3    H234244   2.371   2.195   4.747 -0.6799  0.8487  1.1559
 4277TIP3   OH234245   2.058   2.229  14.530  0.1635  0.8652  0.2098
 4277TIP3    H134246   1.969   2.223  14.495 -0.0138  0.7127  0.6964
 4277TIP3    H234247   2.112   2.191  14.461 -0.1420  0.9822 -0.1014
 4278TIP3   OH234248   2.085   6.706  14.209  0.5484 -0.1255 -0.4273
 4278TIP3    H134249   2.092   6.784  14.154  1.5295 -1.1348 -1.7783
 4278TIP3    H234250   2.175   6.682  14.228  0.3261 -1.9781 -1.5677
 4279TIP3   OH234251   1.040   0.369   3.256 -0.1784  0.2904  0.3201
 4279TIP3    H134252   0.989   0.291   3.277  0.4489  0.5278  2.8153
 4279TIP3    H234253   1.117   0.336   3.210 -1.2386 -0.2899 -1.0999
 4280TIP3   OH234254   6.641   3.326   2.020 -0.3653 -0.1524  0.1694
 4280TIP3    H134255   6.672   3.299   2.106 -0.4998  1.5084  0.7496
 4280TIP3    H234256   6.717   3.368   1.979 -0.9060  0.9966  0.3276
 4281TIP3   OH234257   1.542   4.045   2.121 -0.1420 -0.5536  0.3800
 4281TIP3    H134258   1.579   3.989   2.052 -0.4744  0.5446 -0.7107
 4281TIP3    H234259   1.569   4.133   2.097 -2.7846  0.1977  0.0006
 4282TIP3   OH234260   5.882   3.928  14.001 -0.8476  0.7352  0.3365
 4282TIP3    H134261   5.790   3.954  13.992 -0.0955  2.6251 -2.7516
 4282TIP3    H234262   5.927   4.009  14.024  0.2852  0.2372 -0.1082
 4283TIP3   OH234263   4.498   3.393   0.771 -0.2474  0.5799  0.5393
 4283TIP3    H134264   4.553   3.402   0.693  0.4836 -0.0812  0.9663
 4283TIP3    H234265   4.425   3.453   0.757  0.0704  0.7235 -0.4908
 4284TIP3   OH234266   0.276   5.760  11.717  0.2399 -0.0569 -0.3341
 4284TIP3    H134267   0.309   5.800  11.798 -0.2732  0.5083 -0.4017
 4284TIP3    H234268   0.349   5.706  11.686 -0.0663 -1.4398  1.2685
 4285TIP3   OH234269   0.948   2.553   4.521  0.3197 -0.6491  0.3934
 4285TIP3    H134270   1.006   2.539   4.597 -0.2344 -0.2921  0.8904
 4285TIP3    H234271   0.980   2.493   4.455  1.1726 -0.5652  0.7202
 4286TIP3   OH234272   2.196   0.944   4.242  0.0600  0.3783 -0.5741
 4286TIP3    H134273   2.101   0.931   4.242 -0.1470  1.8438 -1.0869
 4286TIP3    H234274   2.215   0.983   4.157  1.1267  0.0911 -0.4707
 4287TIP3   OH234275   1.875   6.401   1.138 -0.2927 -0.2786 -0.2805
 4287TIP3    H134276   1.915   6.355   1.064  0.5674  1.7657 -1.1241
 4287TIP3    H234277   1.859   6.490   1.106 -1.2509  0.2409  1.5353
 4288TIP3   OH234278   1.271   1.149   3.517 -0.2667  0.2495 -1.3441
 4288TIP3    H134279   1.180   1.173   3.506 -0.4575  0.6404  0.8309
 4288TIP3    H234280   1.321   1.227   3.492 -0.5587  0.2925 -1.7834
 4289TIP3   OH234281   3.840   2.647   5.127 -0.0371 -0.0273 -0.4064
 4289TIP3    H134282   3.864   2.710   5.196 -0.2098  0.1004 -0.4624
 4289TIP3    H234283   3.825   2.702   5.050  0.4482 -0.1962 -0.6227
 4290TIP3   OH234284   0.149   0.980  12.982 -0.0574  0.4792  0.1983
 4290TIP3    H134285   0.133   1.014  13.070 -0.3762  0.3081  0.2065
 4290TIP3    H234286   0.188   1.054  12.935 -2.0320  1.3156 -0.1777
 4291TIP3   OH234287   0.057   2.408  10.776  0.0671 -0.4381  0.1330
 4291TIP3    H134288  -0.029   2.435  10.808  0.1788  2.0827 -1.6054
 4291TIP3    H234289   0.116   2.422  10.851 -1.0825 -2.7239  1.5136
 4292TIP3   OH234290   3.632   4.383  11.963 -0.2383 -0.4131 -0.2435
 4292TIP3    H134291   3.628   4.367  12.058  0.0752 -1.2746 -0.3715
 4292TIP3    H234292   3.670   4.471  11.955  0.0787 -0.4863  0.4251
 4293TIP3   OH234293   3.698   1.982  11.682 -0.4236  0.2235  0.6453
 4293TIP3    H134294   3.714   1.902  11.633  0.7965  1.1817 -0.5640
 4293TIP3    H234295   3.633   2.030  11.631  1.1699  1.4214 -0.3210
 4294TIP3   OH234296   2.205   3.407  16.517  0.4955  0.1566 -0.2671
 4294TIP3    H134297   2.227   3.314  16.515 -0.4361 -0.0660 -1.7108
 4294TIP3    H234298   2.166   3.421  16.603  0.6383 -0.7922 -0.0443
 4295TIP3   OH234299   0.970   3.845   5.942 -0.0797  0.0519 -0.3660
 4295TIP3    H134300   1.016   3.762   5.958  1.0503  0.1505 -2.9412
 4295TIP3    H234301   1.013   3.907   6.001  1.1594 -0.5147 -0.6519
 4296TIP3   OH234302   0.329   4.887   2.393 -0.3932 -0.4348  0.1846
 4296TIP3    H134303   0.268   4.930   2.333 -1.6230 -1.1903  0.8688
 4296TIP3    H234304   0.310   4.927   2.478 -0.7991 -1.5501  0.6215
 4297TIP3   OH234305   5.205   5.678   5.994  0.1056  0.1936  0.3328
 4297TIP3    H134306   5.233   5.600   6.042 -1.8719 -1.6880 -1.5197
 4297TIP3    H234307   5.171   5.737   6.062  2.0591 -0.2931  1.7967
 4298TIP3   OH234308   0.199   1.256   1.724  0.4804 -0.1906 -0.0416
 4298TIP3    H134309   0.216   1.315   1.651 -0.9470 -0.6661 -0.7642
 4298TIP3    H234310   0.124   1.294   1.769 -0.1322 -1.1776 -0.2154
 4299TIP3   OH234311   5.054   3.113   2.931 -0.2175 -0.0582 -0.3774
 4299TIP3    H134312   4.996   3.189   2.928  0.2896  0.3121 -1.0099
 4299TIP3    H234313   5.032   3.063   2.853 -2.7240 -2.2027  1.6413
 4300TIP3   OH234314   2.484   4.448  15.920  0.0798  0.3165  0.2195
 4300TIP3    H134315   2.445   4.427  15.835 -2.2687  0.9339  1.1126
 4300TIP3    H234316   2.480   4.366  15.969  1.0418  0.0708 -0.0986
 4301TIP3   OH234317   4.448   2.426  13.501 -0.1790  0.4393  0.0308
 4301TIP3    H134318   4.459   2.515  13.534 -1.6119  0.5281  0.2721
 4301TIP3    H234319   4.392   2.383  13.565  0.8306 -0.7672  0.1274
 4302TIP3   OH234320   2.081   4.724   5.838  0.2295  0.1715  0.1529
 4302TIP3    H134321   2.072   4.640   5.793  0.6339  0.8196 -1.1881
 4302TIP3    H234322   2.175   4.735   5.850  0.2296  0.7296 -0.2929
 4303TIP3   OH234323   1.298   2.249  14.821 -0.1799  0.4530 -0.3888
 4303TIP3    H134324   1.251   2.330  14.802  0.9583  0.9774 -1.0233
 4303TIP3    H234325   1.389   2.276  14.830  0.1271 -0.6787 -0.0271
 4304TIP3   OH234326   3.183   3.819  14.499 -0.1574 -0.0517 -0.2499
 4304TIP3    H134327   3.266   3.856  14.525  0.0844 -0.5156 -0.3510
 4304TIP3    H234328   3.182   3.732  14.538 -0.0566 -0.5124 -1.2583
 4305TIP3   OH234329   0.951   2.623   4.967  0.2868 -0.2115 -0.3537
 4305TIP3    H134330   0.884   2.557   4.952  1.2034 -1.1271 -0.4690
 4305TIP3    H234331   1.009   2.617   4.891 -0.4587  1.7751 -1.1163
 4306TIP3   OH234332   1.401   1.291  12.456 -0.4076  0.8123 -0.2674
 4306TIP3    H134333   1.306   1.296  12.445 -0.3460  1.6723 -0.4475
 4306TIP3    H234334   1.436   1.359  12.399  0.1862  2.1899  1.6868
 4307TIP3   OH234335   3.686   2.550  15.084  0.1332 -0.0273  0.2413
 4307TIP3    H134336   3.727   2.527  15.167 -1.6425 -1.7176  0.6695
 4307TIP3    H234337   3.643   2.634  15.101  1.5577  0.7016  0.3850
 4308TIP3   OH234338   1.389   5.204   0.957  0.3914  0.2372 -0.0442
 4308TIP3    H134339   1.464   5.239   1.006 -0.4932  0.4050  1.2307
 4308TIP3    H234340   1.313   5.247   0.997 -0.5259 -1.3343 -0.0816
 4309TIP3   OH234341   5.590   4.991   4.147 -0.4083  0.1782  0.2326
 4309TIP3    H134342   5.662   4.982   4.210  0.4043  0.9638 -0.5785
 4309TIP3    H234343   5.630   5.030   4.070 -1.3895 -0.8643 -0.8213
 4310TIP3   OH234344   2.761   2.778  15.099 -0.1417 -0.4780  0.2135
 4310TIP3    H134345   2.707   2.750  15.174 -0.8357  1.1521  0.3451
 4310TIP3    H234346   2.774   2.699  15.048 -2.5963 -0.9487  0.2403
 4311TIP3   OH234347   4.869   1.835  15.876  0.2228 -0.2652  0.5441
 4311TIP3    H134348   4.840   1.904  15.936 -1.1988  0.3032 -0.7432
 4311TIP3    H234349   4.907   1.882  15.802 -0.4092 -0.8671 -0.1736
 4312TIP3   OH234350   0.384   2.603  15.511 -0.2919 -0.3048  0.5107
 4312TIP3    H134351   0.480   2.609  15.516 -0.1540 -0.1547 -1.6809
 4312TIP3    H234352   0.354   2.694  15.512 -0.2270 -0.2372 -1.1403
 4313TIP3   OH234353   6.526   5.953  12.370  0.0687 -0.8193 -0.1455
 4313TIP3    H134354   6.592   5.996  12.316 -0.9017  0.0600 -0.6240
 4313TIP3    H234355   6.569   5.872  12.398  1.3150 -0.3192 -0.5461
 4314TIP3   OH234356   5.196   4.139  13.483  0.2402 -0.5172 -0.4003
 4314TIP3    H134357   5.101   4.138  13.496 -0.2770  1.3659 -3.5692
 4314TIP3    H234358   5.231   4.168  13.568 -2.1367  0.5566  0.2672
 4315TIP3   OH234359   2.983   3.408   3.804 -0.1250 -0.1486 -0.1598
 4315TIP3    H134360   3.024   3.491   3.825 -0.9599  0.5952 -1.4209
 4315TIP3    H234361   3.033   3.375   3.729  0.8296 -1.2633  0.9474
 4316TIP3   OH234362   5.342   5.837  12.290 -0.0832  0.5618 -0.6422
 4316TIP3    H134363   5.306   5.749  12.303 -1.0217  0.5569 -3.0902
 4316TIP3    H234364   5.437   5.825  12.292 -0.1979 -0.3610 -0.1642
 4317TIP3   OH234365   6.042   3.640   1.001 -0.0987 -0.1556 -0.4248
 4317TIP3    H134366   6.071   3.628   1.092  0.4512  0.5336 -0.5010
 4317TIP3    H234367   5.950   3.615   1.001 -0.2170  0.2686  0.4237
 4318TIP3   OH234368   5.396   3.406  11.652 -0.2771  0.4170 -0.3789
 4318TIP3    H134369   5.344   3.401  11.732 -0.9559 -0.0903 -0.8424
 4318TIP3    H234370   5.487   3.404  11.682 -0.5278  0.6738  0.4035
 4319TIP3   OH234371   2.189   2.577   4.728 -0.2692  0.0910 -0.4565
 4319TIP3    H134372   2.164   2.498   4.680 -0.0993 -0.6418  0.6301
 4319TIP3    H234373   2.272   2.604   4.689  1.1491 -1.9294  1.0254
 4320TIP3   OH234374   5.781   5.599   2.106  0.4397  0.8221 -0.1823
 4320TIP3    H134375   5.821   5.627   2.188 -0.0881 -0.4208  0.5045
 4320TIP3    H234376   5.808   5.508   2.096 -1.1700  0.3548 -0.3535
 4321TIP3   OH234377   6.235   0.149  12.480 -0.0880 -0.3877 -0.1124
 4321TIP3    H134378   6.216   0.143  12.386 -0.0217 -0.3533 -0.1281
 4321TIP3    H234379   6.218   0.061  12.513 -0.0618 -0.4130 -0.1656
 4322TIP3   OH234380   1.776   2.263   1.653  0.2637 -0.3698 -0.0576
 4322TIP3    H134381   1.701   2.203   1.658  1.9774 -2.4147  2.0959
 4322TIP3    H234382   1.773   2.312   1.735  0.2417  0.9157 -0.7983
 4323TIP3   OH234383   3.853   4.622   2.889 -0.4907 -0.0441  1.0902
 4323TIP3    H134384   3.839   4.531   2.863 -2.1232  0.1324  1.2655
 4323TIP3    H234385   3.939   4.645   2.854 -0.9346 -1.0306 -0.6750
 4324TIP3   OH234386   4.331   3.852   5.871  0.0274  0.2938 -0.4220
 4324TIP3    H134387   4.240   3.878   5.885 -0.0340 -0.2863  0.3003
 4324TIP3    H234388   4.325   3.765   5.832  0.2737  0.1684 -0.1844
 4325TIP3   OH234389   5.580   2.245  15.778  0.1671 -0.1201 -0.0614
 4325TIP3    H134390   5.601   2.197  15.858  1.0273  0.2974 -0.0295
 4325TIP3    H234391   5.663   2.287  15.753 -0.1004 -0.2192 -1.1430
 4326TIP3   OH234392   0.064   2.457   4.943 -0.0922  0.1126 -0.0294
 4326TIP3    H134393   0.125   2.531   4.946 -0.1209  0.0639  3.7111
 4326TIP3    H234394  -0.022   2.497   4.951 -0.3750 -0.0682 -1.9961
 4327TIP3   OH234395   4.143   5.554   4.189  0.4047  0.2657  0.2936
 4327TIP3    H134396   4.100   5.590   4.111 -0.9114  0.5146  1.1110
 4327TIP3    H234397   4.086   5.481   4.216 -0.6735  1.9028  2.5972
 4328TIP3   OH234398   0.767   5.121   0.871  0.0553  0.5676 -0.2822
 4328TIP3    H134399   0.854   5.085   0.886  0.2762  1.0044 -0.5037
 4328TIP3    H234400   0.711   5.044   0.857  0.2614  0.2588  0.5783
 4329TIP3   OH234401   4.653   4.653  12.921 -0.1931 -0.0845  0.4334
 4329TIP3    H134402   4.577   4.624  12.970 -1.2252  0.6019 -0.7128
 4329TIP3    H234403   4.712   4.578  12.921 -1.5755 -1.2077 -0.0274
 4330TIP3   OH234404   2.327   3.298   5.959 -0.4792  0.0975  0.2251
 4330TIP3    H134405   2.256   3.235   5.972 -0.3455  0.4327  3.0328
 4330TIP3    H234406   2.314   3.363   6.028  2.0905  0.5922  0.3007
 4331TIP3   OH234407   0.052   6.134  12.883 -0.6265  1.2012  0.0500
 4331TIP3    H134408   0.015   6.180  12.959  0.4295 -0.4528  1.5983
 4331TIP3    H234409  -0.007   6.157  12.811 -4.6992 -1.2908  2.3735
 4332TIP3   OH234410   4.507   5.150  11.992 -0.1524 -0.3834  0.0248
 4332TIP3    H134411   4.480   5.196  12.071 -0.0114 -0.5411  0.1635
 4332TIP3    H234412   4.487   5.211  11.921  0.7444  0.1993  0.2683
 4333TIP3   OH234413   4.045   1.962  13.442 -0.9507 -0.2995 -0.3948
 4333TIP3    H134414   3.960   1.989  13.408 -0.5768 -0.5488 -1.5392
 4333TIP3    H234415   4.063   1.879  13.398 -0.5914 -0.7822  0.6403
 4334TIP3   OH234416   2.977   0.418  12.861 -0.4166  0.3209 -0.6892
 4334TIP3    H134417   2.975   0.463  12.776 -0.8657  1.2907 -0.1809
 4334TIP3    H234418   3.044   0.464  12.911 -0.3243 -0.0916 -0.4333
 4335TIP3   OH234419   0.706   3.280  12.294  0.6510  0.3446 -0.1270
 4335TIP3    H134420   0.768   3.244  12.356 -0.7916 -1.5182  0.2912
 4335TIP3    H234421   0.641   3.326  12.348  1.1959  1.5727 -0.5009
 4336TIP3   OH234422   6.272   5.391  15.945 -0.0943 -0.5504  0.3469
 4336TIP3    H134423   6.331   5.367  15.873 -1.1749  0.9719 -1.0759
 4336TIP3    H234424   6.294   5.482  15.964 -1.9034 -0.0003 -0.1341
 4337TIP3   OH234425   3.644   1.007   0.287  0.2588  0.2591 -0.0077
 4337TIP3    H134426   3.597   1.064   0.348 -0.1558  1.3342 -1.3183
 4337TIP3    H234427   3.643   0.921   0.329 -0.1986  0.9408  1.4071
 4338TIP3   OH234428   5.837   3.174  16.040 -0.5314  0.2077 -0.0581
 4338TIP3    H134429   5.760   3.216  16.003  0.2480  2.4390  0.7737
 4338TIP3    H234430   5.820   3.171  16.134  0.1628  0.2139  0.0721
 4339TIP3   OH234431   1.896   4.801   2.413 -0.1032 -0.1218 -0.4432
 4339TIP3    H134432   1.823   4.743   2.393  0.3531 -1.0050  0.4039
 4339TIP3    H234433   1.912   4.788   2.507 -0.5532  2.0216 -0.0372
 4340TIP3   OH234434   6.308   1.379   3.146  0.5425  0.0381 -0.3702
 4340TIP3    H134435   6.302   1.405   3.238  1.5135  0.7085 -0.4874
 4340TIP3    H234436   6.296   1.285   3.146  0.4866  0.0468  0.4429
 4341TIP3   OH234437   5.993   5.548  14.474 -0.4469  0.1579 -0.0759
 4341TIP3    H134438   6.053   5.501  14.416 -0.0940 -0.5690  0.8888
 4341TIP3    H234439   5.928   5.483  14.500 -1.6749  0.9373 -1.1087
 4342TIP3   OH234440   6.351   4.470   0.541  0.0314  0.1555 -0.4826
 4342TIP3    H134441   6.409   4.453   0.616  0.9816  1.2585 -0.9448
 4342TIP3    H234442   6.320   4.560   0.556 -1.4304 -0.3644 -0.3369
 4343TIP3   OH234443   0.483   5.666  12.503 -0.1945  0.4219 -0.3131
 4343TIP3    H134444   0.558   5.717  12.535 -0.0650 -0.2380  0.4545
 4343TIP3    H234445   0.516   5.576  12.498 -0.6711  0.2751 -0.8487
 4344TIP3   OH234446   1.415   1.328   0.276  0.3973 -0.1499 -0.4167
 4344TIP3    H134447   1.495   1.277   0.262  0.2314 -0.2622 -0.9919
 4344TIP3    H234448   1.354   1.267   0.315  0.6214 -0.0402  0.1072
 4345TIP3   OH234449   5.883   6.582  13.182 -0.3445  0.2338 -0.3173
 4345TIP3    H134450   5.869   6.665  13.136  1.1538  0.8738  0.3470
 4345TIP3    H234451   5.893   6.607  13.274  5.0790 -0.0470 -0.6558
 4346TIP3   OH234452   2.962   2.348  15.545  0.2460 -0.6578 -0.1300
 4346TIP3    H134453   2.868   2.338  15.530  0.3279 -3.9094  1.0597
 4346TIP3    H234454   2.969   2.402  15.625 -0.6761 -1.9893  0.8661
 4347TIP3   OH234455   0.571   6.714  11.716  0.1950  0.0224  0.2638
 4347TIP3    H134456   0.526   6.796  11.698  0.7135  0.0928 -0.7317
 4347TIP3    H234457   0.610   6.689  11.633  0.2342 -1.1205  0.6152
 4348TIP3   OH234458   2.361   3.981   2.248  0.0335  0.3003  0.1304
 4348TIP3    H134459   2.301   3.942   2.311  0.2794  0.8089  0.6901
 4348TIP3    H234460   2.364   3.919   2.176  0.9224 -1.0311  1.2848
 4349TIP3   OH234461   0.880   4.725   1.510 -0.3081  0.2800 -0.3731
 4349TIP3    H134462   0.832   4.693   1.433 -0.0267  0.2770 -0.5459
 4349TIP3    H234463   0.873   4.820   1.504 -0.3301  0.2781 -0.3742
 4350TIP3   OH234464   2.558   0.985  12.491 -0.0253  0.8871  0.0118
 4350TIP3    H134465   2.626   0.918  12.502  0.1372  1.2355  1.1249
 4350TIP3    H234466   2.534   0.979  12.398  0.0380 -0.6714  0.0778
 4351TIP3   OH234467   0.694   3.802  13.344  0.7175  0.0337 -0.0880
 4351TIP3    H134468   0.674   3.881  13.395  1.3469  2.3824 -3.3403
 4351TIP3    H234469   0.628   3.801  13.275  0.6538 -2.4134 -0.0279
 4352TIP3   OH234470   2.686   1.543   3.765  0.2332  0.8245  0.0847
 4352TIP3    H134471   2.623   1.506   3.826  0.5183  0.2199  0.0175
 4352TIP3    H234472   2.771   1.511   3.795  0.2442 -0.6947 -1.4905
 4353TIP3   OH234473   6.777   0.459  16.609  0.2963  0.2074 -0.4867
 4353TIP3    H134474   6.824   0.513  16.673  3.4237 -0.2124 -2.3485
 4353TIP3    H234475   6.745   0.384  16.660  1.0578  0.8552  0.9650
 4354TIP3   OH234476   5.909   3.794   2.485 -0.3989 -0.0113 -0.0161
 4354TIP3    H134477   5.927   3.888   2.489  2.7613 -0.5543 -0.3592
 4354TIP3    H234478   5.923   3.764   2.575  2.3234 -0.7443 -0.6531
 4355TIP3   OH234479   6.657   5.104   2.791 -0.0569 -0.6027  0.2644
 4355TIP3    H134480   6.701   5.176   2.746 -0.7734  0.9029  1.9147
 4355TIP3    H234481   6.598   5.066   2.726 -1.0388  1.4976 -0.0758
 4356TIP3   OH234482   2.725   4.963  12.879  0.1163  0.4817 -0.8043
 4356TIP3    H134483   2.703   5.006  12.961 -0.4537  0.9736 -1.2140
 4356TIP3    H234484   2.808   4.919  12.897  0.3928  1.2352 -0.1948
 4357TIP3   OH234485   1.080   1.618   3.564 -0.3201  0.3140  0.1810
 4357TIP3    H134486   0.995   1.601   3.605  0.3675 -0.5136  1.2951
 4357TIP3    H234487   1.139   1.555   3.606  0.0622 -1.7433 -3.3098
 4358TIP3   OH234488   5.943   3.682   3.540 -0.3339  0.2159 -0.5912
 4358TIP3    H134489   5.889   3.617   3.585 -2.0215  1.4725 -0.7338
 4358TIP3    H234490   6.031   3.644   3.538 -0.7010 -0.8284  1.7821
 4359TIP3   OH234491   5.514   3.612   2.928 -0.0158 -0.5866  0.3374
 4359TIP3    H134492   5.457   3.687   2.942 -0.7100 -1.1683  0.6851
 4359TIP3    H234493   5.601   3.649   2.911 -0.7723  0.3455 -1.5092
 4360TIP3   OH234494   0.773   5.023  13.936  0.8295 -0.4838  0.0543
 4360TIP3    H134495   0.814   5.059  14.014 -0.8694 -0.9175  1.1853
 4360TIP3    H234496   0.812   4.936  13.925  2.0566  0.1077 -0.3946
 4361TIP3   OH234497   1.534   6.347   1.414 -0.8802  0.2965  0.6715
 4361TIP3    H134498   1.563   6.438   1.423 -3.0156  1.0855 -0.1164
 4361TIP3    H234499   1.529   6.315   1.504  2.0306  0.2215  0.8503
 4362TIP3   OH234500   6.023   3.817  11.516 -0.0399  0.7262  0.0441
 4362TIP3    H134501   6.024   3.906  11.483  2.3789  0.5735 -0.3662
 4362TIP3    H234502   6.067   3.765  11.448  0.8597 -0.3521  1.4179
 4363TIP3   OH234503   3.810   2.546   4.497 -0.3998  0.7735 -0.1084
 4363TIP3    H134504   3.896   2.574   4.529 -0.7082  1.8451 -0.1698
 4363TIP3    H234505   3.794   2.462   4.538  1.7834 -0.6444 -2.0560
 4364TIP3   OH234506   6.753   6.302  13.149  0.0568  0.1236  0.4311
 4364TIP3    H134507   6.661   6.287  13.126  0.1754  0.7601 -0.4746
 4364TIP3    H234508   6.754   6.392  13.183  0.3911  0.2078  0.1937
 4365TIP3   OH234509   5.127   0.881   2.424 -0.1679  0.1913  0.0195
 4365TIP3    H134510   5.066   0.944   2.386 -0.4558 -0.1056 -0.0145
 4365TIP3    H234511   5.204   0.885   2.368 -1.1671 -1.3436 -1.5041
 4366TIP3   OH234512   6.729   5.367  15.173 -1.0505 -0.3460  0.3171
 4366TIP3    H134513   6.689   5.419  15.104 -1.0213 -1.2571 -0.3994
 4366TIP3    H234514   6.784   5.428  15.222 -0.5155  0.1553 -0.9057
 4367TIP3   OH234515   3.535   2.930   1.931 -0.0628 -0.5906 -0.2822
 4367TIP3    H134516   3.505   2.876   1.858 -0.2798 -1.4902  0.4703
 4367TIP3    H234517   3.540   3.018   1.895  2.5400 -1.4622 -2.1709
 4368TIP3   OH234518   1.931   2.157   5.157  0.1982  0.2140  0.2925
 4368TIP3    H134519   1.987   2.187   5.228  1.1909 -0.0890 -0.3579
 4368TIP3    H234520   1.910   2.066   5.179  0.7546  0.0236  0.0546
 4369TIP3   OH234521   0.462   1.784  10.116  0.0856  0.4107 -0.0726
 4369TIP3    H134522   0.483   1.693  10.136  1.5257  0.8171  0.3515
 4369TIP3    H234523   0.369   1.792  10.135  0.0904 -0.8102  0.5131
 4370TIP3   OH234524   0.542   3.133  15.882  0.6138  0.3884  0.0189
 4370TIP3    H134525   0.484   3.205  15.907  1.3707  1.2417 -0.6567
 4370TIP3    H234526   0.560   3.086  15.964  0.8389  1.4968  0.6052
 4371TIP3   OH234527   4.294   0.117  11.588 -0.6172 -0.0918  0.1050
 4371TIP3    H134528   4.381   0.151  11.610 -1.5201  1.8945  0.7313
 4371TIP3    H234529   4.267   0.167  11.512 -0.6523 -1.6971 -0.9585
 4372TIP3   OH234530   4.060   4.702   5.485  0.1178  0.0950  0.1903
 4372TIP3    H134531   4.060   4.619   5.437  0.2298 -0.2763  0.8250
 4372TIP3    H234532   4.150   4.713   5.514 -0.1556 -0.1691  1.1463
 4373TIP3   OH234533   4.978   0.214   2.067 -0.2513  0.2034 -0.3965
 4373TIP3    H134534   5.008   0.283   2.007  0.7916 -1.3932 -1.7672
 4373TIP3    H234535   4.914   0.164   2.017 -0.0513 -0.5951  0.1298
 4374TIP3   OH234536   4.146   2.755   2.316 -0.2528 -0.3059 -0.2343
 4374TIP3    H134537   4.235   2.756   2.280 -1.5135  0.5057 -3.5169
 4374TIP3    H234538   4.112   2.669   2.295 -0.8879  0.0431 -0.6405
 4375TIP3   OH234539   5.820   5.546   5.288 -0.3454  0.7775 -0.4559
 4375TIP3    H134540   5.729   5.520   5.303 -0.5527  1.3934 -0.6128
 4375TIP3    H234541   5.828   5.631   5.331 -0.3293  1.5286 -1.9161
 4376TIP3   OH234542   3.612   5.635  11.371  0.2483  0.5914 -0.5299
 4376TIP3    H134543   3.572   5.690  11.438 -2.2411 -0.0766 -1.4138
 4376TIP3    H234544   3.626   5.694  11.297 -1.1604  0.3700 -0.9910
 4377TIP3   OH234545   0.893   4.523   2.549  0.1380  0.4281  0.2742
 4377TIP3    H134546   0.856   4.556   2.468 -0.2509  0.1386  0.3332
 4377TIP3    H234547   0.877   4.429   2.546 -2.0456  0.7055  1.7845
 4378TIP3   OH234548   3.521   2.805  15.716 -0.1962 -0.3113 -0.0661
 4378TIP3    H134549   3.597   2.806  15.774 -1.4657 -1.5156  1.6708
 4378TIP3    H234550   3.494   2.897  15.711 -1.0368 -0.3537  2.6215
 4379TIP3   OH234551   3.096   5.349  16.525  0.0633  0.3398  0.2997
 4379TIP3    H134552   3.077   5.276  16.466 -0.7780  0.5194  0.3403
 4379TIP3    H234553   3.181   5.327  16.564 -0.0121 -0.4384  0.0386
 4380TIP3   OH234554   0.361   1.464   0.911  0.1815  0.2037 -0.4846
 4380TIP3    H134555   0.395   1.460   0.821 -0.8937  0.5593 -0.9159
 4380TIP3    H234556   0.268   1.484   0.900 -0.3580 -1.6022  0.6507
 4381TIP3   OH234557   6.090   1.007   2.619  0.1859 -0.5852  0.0269
 4381TIP3    H134558   6.172   0.958   2.620 -0.0025 -0.9156  1.2711
 4381TIP3    H234559   6.023   0.942   2.638 -0.1702 -0.0191  0.7545
 4382TIP3   OH234560   4.093   1.828  11.947  0.2130 -0.1623 -0.3353
 4382TIP3    H134561   4.154   1.756  11.966  0.1475 -0.2016 -0.2757
 4382TIP3    H234562   4.149   1.899  11.915  0.3393 -0.0446  0.1416
 4383TIP3   OH234563   4.807   0.024   5.994 -0.0967 -0.2797 -0.4273
 4383TIP3    H134564   4.839   0.050   6.081 -1.1815  1.2506 -0.4642
 4383TIP3    H234565   4.883   0.033   5.937  0.5058 -0.8385  0.2648
 4384TIP3   OH234566   5.276   0.243  14.449  0.2509 -0.5301  0.3290
 4384TIP3    H134567   5.206   0.191  14.487 -1.0962  0.3645 -0.9009
 4384TIP3    H234568   5.273   0.224  14.355  1.1204  0.1436  0.1560
 4385TIP3   OH234569   3.810   0.751  16.329 -0.0382  0.0866  0.2505
 4385TIP3    H134570   3.815   0.846  16.344 -0.0942  0.1590 -0.1760
 4385TIP3    H234571   3.901   0.721  16.335  0.1486  0.3816 -0.9617
 4386TIP3   OH234572   3.027   5.078  13.077 -0.2419 -0.2767 -0.2082
 4386TIP3    H134573   2.966   5.151  13.091 -0.0850 -0.2795  0.4988
 4386TIP3    H234574   3.084   5.080  13.154  1.0379  0.1063 -1.1471
 4387TIP3   OH234575   1.597   3.206  12.561  0.2561 -0.5825  0.2028
 4387TIP3    H134576   1.545   3.172  12.488  1.8203  0.2414 -1.3410
 4387TIP3    H234577   1.582   3.301  12.559  1.4749 -0.3795 -0.0285
 4388TIP3   OH234578   1.934   2.086   2.082  0.2917  0.1401 -0.0721
 4388TIP3    H134579   1.946   2.055   1.992 -1.7802  0.0445 -0.3566
 4388TIP3    H234580   1.849   2.050   2.108 -0.0662  1.8114  1.2020
 4389TIP3   OH234581   4.600   4.491  15.481 -0.1572 -0.0632 -0.0603
 4389TIP3    H134582   4.553   4.535  15.552  0.3252 -0.8508  0.7548
 4389TIP3    H234583   4.692   4.514  15.495  0.0775 -1.1957  0.2678
 4390TIP3   OH234584   5.371   4.743  11.595  0.4085 -0.1428  0.2144
 4390TIP3    H134585   5.378   4.810  11.663 -0.4899  0.2618 -0.0881
 4390TIP3    H234586   5.286   4.702  11.610 -0.5161  1.0489 -1.6724
 4391TIP3   OH234587   1.347   4.747  15.580 -0.2198  0.3977  0.1749
 4391TIP3    H134588   1.398   4.684  15.631  0.8361 -0.2291 -1.6106
 4391TIP3    H234589   1.412   4.795  15.529 -1.3261  0.2055 -1.4589
 4392TIP3   OH234590   4.750   5.967  15.694  0.7404 -0.1897 -0.0184
 4392TIP3    H134591   4.786   5.949  15.781  1.0138  0.1352 -0.0615
 4392TIP3    H234592   4.822   5.949  15.634  0.8222  0.4280 -0.1099
 4393TIP3   OH234593   6.239   0.598   2.590  0.1204  0.1076 -0.0060
 4393TIP3    H134594   6.165   0.606   2.651  0.8221 -0.0483  0.8598
 4393TIP3    H234595   6.281   0.684   2.593  0.3319  0.0048 -0.0425
 4394TIP3   OH234596   4.406   5.411   0.828 -0.2455  0.4396 -0.2638
 4394TIP3    H134597   4.464   5.368   0.766  0.0724  0.8935 -0.2803
 4394TIP3    H234598   4.425   5.369   0.912 -1.2378 -0.7346 -0.6010
 4395TIP3   OH234599   0.762   3.582  13.149 -0.3305 -0.0130  0.5196
 4395TIP3    H134600   0.703   3.520  13.192 -0.7531 -0.9332 -1.3195
 4395TIP3    H234601   0.707   3.660  13.134 -1.0222 -0.7487 -0.8967
 4396TIP3   OH234602   4.764   4.176   2.961  0.3889  0.5963 -0.1943
 4396TIP3    H134603   4.781   4.245   2.896  0.4673  1.7396  1.0110
 4396TIP3    H234604   4.783   4.095   2.915  0.0377  1.3577 -1.7357
 4397TIP3   OH234605   2.635   2.708   1.359  0.3110  0.1285 -0.3443
 4397TIP3    H134606   2.631   2.672   1.271  0.8466 -0.3238 -0.1843
 4397TIP3    H234607   2.728   2.710   1.381  0.2253  0.7848 -0.0122
 4398TIP3   OH234608   2.300   1.192   1.776 -0.1414 -0.3247  0.5131
 4398TIP3    H134609   2.213   1.202   1.737 -0.3815 -0.1580  1.0749
 4398TIP3    H234610   2.316   1.098   1.775 -1.6777 -0.6878  3.2230
 4399TIP3   OH234611   6.442   1.512   0.808  0.1586 -0.0471  0.7229
 4399TIP3    H134612   6.519   1.569   0.812  1.3843 -1.5295 -0.8647
 4399TIP3    H234613   6.469   1.439   0.752 -1.9987 -1.2360  1.1654
 4400TIP3   OH234614   3.670   2.185   1.093  0.2440  0.4103  0.2203
 4400TIP3    H134615   3.706   2.270   1.069  0.0403  0.8502  1.4593
 4400TIP3    H234616   3.718   2.159   1.172 -0.1899 -0.3054  0.2583
 4401TIP3   OH234617   4.495   4.433  12.675  0.5255  0.2557 -0.4807
 4401TIP3    H134618   4.514   4.524  12.654  1.4159  0.1315 -0.2565
 4401TIP3    H234619   4.441   4.436  12.753  0.8737  0.5792 -0.2516
 4402TIP3   OH234620   3.137   0.912   0.775  0.6390 -0.3957 -0.0583
 4402TIP3    H134621   3.116   1.002   0.800 -2.6466 -1.5794  1.6915
 4402TIP3    H234622   3.059   0.880   0.731  2.0094 -2.2221 -1.2330
 4403TIP3   OH234623   4.040   0.545   5.433  0.3915  0.6535 -0.4758
 4403TIP3    H134624   3.998   0.467   5.469 -0.6595  0.6927 -1.5842
 4403TIP3    H234625   4.126   0.515   5.403  0.3869  0.1486  0.0161
 4404TIP3   OH234626   5.597   2.727   5.399 -0.1877 -0.0675 -0.3969
 4404TIP3    H134627   5.568   2.674   5.474  1.3336  2.3844  2.0494
 4404TIP3    H234628   5.666   2.674   5.358 -2.1140 -2.1323 -1.0557
 4405TIP3   OH234629   5.194   3.275  12.424 -0.2215  0.3983  0.1487
 4405TIP3    H134630   5.138   3.345  12.390  0.5548  0.3884 -1.1720
 4405TIP3    H234631   5.141   3.196  12.416 -0.2267  0.4731 -0.5494
 4406TIP3   OH234632   1.228   1.016   1.140 -0.3719  0.4842  0.3418
 4406TIP3    H134633   1.160   1.003   1.074 -0.6560  1.3386  0.4503
 4406TIP3    H234634   1.209   1.103   1.177  0.9303  0.8426  0.2013
 4407TIP3   OH234635   1.172   2.664  16.485  0.2301  0.1228 -0.5936
 4407TIP3    H134636   1.112   2.637  16.555 -0.3082  2.0462 -0.2873
 4407TIP3    H234637   1.246   2.703  16.531  2.6549 -3.7971 -0.8696
 4408TIP3   OH234638   0.518   5.409  10.724 -0.1748 -0.0493 -0.4309
 4408TIP3    H134639   0.548   5.449  10.642 -0.7244 -0.7527 -0.9813
 4408TIP3    H234640   0.423   5.399  10.713  0.0447 -2.0985 -0.5599
 4409TIP3   OH234641   0.380   0.045  11.445  0.1314 -0.2077 -0.3828
 4409TIP3    H134642   0.412   0.108  11.509  0.2552  0.0662 -0.7142
 4409TIP3    H234643   0.322   0.096  11.388  0.0362 -0.4460 -0.5000
 4410TIP3   OH234644   1.613   6.204  12.049 -0.3023  0.2577  0.5320
 4410TIP3    H134645   1.645   6.179  11.963 -1.0309 -0.1902  0.3786
 4410TIP3    H234646   1.549   6.136  12.071 -1.2576  1.2036  0.7457
 4411TIP3   OH234647   5.260   0.178   0.522  0.1235  0.4482 -0.2779
 4411TIP3    H134648   5.199   0.237   0.568 -0.3967  0.1250 -0.5494
 4411TIP3    H234649   5.205   0.131   0.460  0.4362 -0.7040  0.2983
 4412TIP3   OH234650   5.818   2.100  12.094  0.5247 -0.1016 -0.3207
 4412TIP3    H134651   5.801   2.031  12.029 -1.5704 -0.4819  0.5898
 4412TIP3    H234652   5.858   2.054  12.168 -2.5712 -0.7514  1.0546
 4413TIP3   OH234653   4.742   5.676  11.389 -0.4430 -0.4271 -0.2832
 4413TIP3    H134654   4.806   5.719  11.446 -1.2406  0.8695 -0.3495
 4413TIP3    H234655   4.793   5.650  11.312  0.2209 -0.3194  0.1187
 4414TIP3   OH234656   2.853   1.264   4.674  0.3866 -0.2124 -0.2639
 4414TIP3    H134657   2.870   1.170   4.677  2.5709  0.1920  0.7529
 4414TIP3    H234658   2.780   1.277   4.734  1.7293 -0.9417  1.5718
 4415TIP3   OH234659   5.677   2.737   2.259  0.0850 -0.2774 -0.1837
 4415TIP3    H134660   5.682   2.641   2.263 -0.7459 -0.2610  2.0609
 4415TIP3    H234661   5.623   2.755   2.182 -0.4352 -1.6330 -0.1451
 4416TIP3   OH234662   3.854   4.830  16.865  0.1915 -0.5365  0.3642
 4416TIP3    H134663   3.764   4.854  16.888  0.2781 -0.2890  0.4426
 4416TIP3    H234664   3.908   4.870  16.932  0.5219  0.9838 -0.7853
 4417TIP3   OH234665   5.187   3.225  14.970  0.4163  0.2497 -0.5278
 4417TIP3    H134666   5.263   3.212  15.026  1.0841 -1.4637 -1.8037
 4417TIP3    H234667   5.222   3.226  14.881 -1.0132 -0.4214 -1.1195
 4418TIP3   OH234668   2.585   0.399  13.409  0.9827 -0.0272  0.2820
 4418TIP3    H134669   2.676   0.369  13.401  0.7479 -0.2952 -1.6138
 4418TIP3    H234670   2.583   0.482  13.361  0.0916 -0.3167 -0.1907
 4419TIP3   OH234671   4.515   5.193  16.623 -0.2840 -0.3246 -0.1141
 4419TIP3    H134672   4.437   5.216  16.675 -0.9593  0.5264 -1.4565
 4419TIP3    H234673   4.514   5.255  16.550  0.6908 -1.4353 -1.1005
 4420TIP3   OH234674   6.117   2.150   3.685  0.0763 -0.3615 -0.2704
 4420TIP3    H134675   6.023   2.167   3.699  0.2712  0.5519 -0.0721
 4420TIP3    H234676   6.145   2.105   3.764 -0.2588 -0.9043 -0.4555
 4421TIP3   OH234677   6.106   1.135  12.106 -0.4644 -0.3032  0.0022
 4421TIP3    H134678   6.131   1.207  12.049 -1.5283  0.1121  0.0461
 4421TIP3    H234679   6.104   1.058  12.049  1.5305 -0.4742  0.1396
 4422TIP3   OH234680   4.771   6.376  14.539 -0.0291 -0.2313 -0.1053
 4422TIP3    H134681   4.752   6.306  14.600 -0.5905 -2.8130 -3.1431
 4422TIP3    H234682   4.867   6.380  14.537 -0.0026 -0.3140  0.6751
 4423TIP3   OH234683   2.002   1.202  11.570 -0.2632 -0.3238 -0.0892
 4423TIP3    H134684   2.049   1.232  11.647  0.4230  0.9926 -1.0110
 4423TIP3    H234685   1.931   1.265  11.559  0.6908  0.5124 -1.5488
 4424TIP3   OH234686   4.558   4.734  13.507 -0.7922 -0.0864 -0.2796
 4424TIP3    H134687   4.509   4.654  13.488 -1.6367  0.5260 -0.6908
 4424TIP3    H234688   4.626   4.737  13.439 -0.1900 -0.9268  0.2816
 4425TIP3   OH234689   6.628   5.309   5.776 -0.3308  0.4555 -0.6822
 4425TIP3    H134690   6.582   5.342   5.698 -0.8641 -1.9252 -1.4217
 4425TIP3    H234691   6.718   5.296   5.747 -0.4375 -0.0421 -0.7994
 4426TIP3   OH234692   4.230   3.095  11.279 -0.0058 -0.6870  0.2766
 4426TIP3    H134693   4.299   3.029  11.287  0.4565 -0.2037  0.3041
 4426TIP3    H234694   4.212   3.099  11.185 -0.3080 -1.1264  0.3117
 4427TIP3   OH234695   3.580   1.014  16.281 -0.1163 -0.3656  0.0004
 4427TIP3    H134696   3.535   1.057  16.207 -1.0980 -1.8347 -0.2780
 4427TIP3    H234697   3.673   1.027  16.263 -0.3970  1.7063 -0.0378
 4428TIP3   OH234698   3.674   6.295  13.079  0.0971  0.3642 -0.0951
 4428TIP3    H134699   3.687   6.221  13.020  2.0969  0.8932 -0.3728
 4428TIP3    H234700   3.687   6.259  13.167  0.8977  0.3365 -0.2219
 4429TIP3   OH234701   5.750   4.325  11.406 -0.3713  0.2821 -0.1014
 4429TIP3    H134702   5.815   4.370  11.460 -0.2807  1.3274 -1.0775
 4429TIP3    H234703   5.668   4.371  11.424 -0.3596  0.5678 -0.7848
 4430TIP3   OH234704   3.661   5.743   3.500  0.1013 -0.1270 -0.3397
 4430TIP3    H134705   3.566   5.736   3.508  0.1473  1.0244  1.6016
 4430TIP3    H234706   3.676   5.834   3.475  0.7677  0.2505  1.3629
 4431TIP3   OH234707   3.166   1.915  15.261  0.4329 -0.7466  0.2262
 4431TIP3    H134708   3.152   2.005  15.290 -0.3604  0.1301 -2.6769
 4431TIP3    H234709   3.080   1.884  15.234  1.3166 -0.8940 -2.6626
 4432TIP3   OH234710   6.245   6.513  12.054  0.2142 -0.6088  0.2915
 4432TIP3    H134711   6.214   6.465  11.977  0.1493  1.4122 -0.9864
 4432TIP3    H234712   6.340   6.513  12.046  0.1308  1.2616 -0.8451
 4433TIP3   OH234713   2.654   5.654   5.534  0.0702  0.6085 -0.1304
 4433TIP3    H134714   2.566   5.632   5.565 -0.0713  3.2140  1.4036
 4433TIP3    H234715   2.713   5.605   5.592 -0.3287 -1.0661 -1.1017
 4434TIP3   OH234716   1.430   5.252   4.935  0.5495 -0.1730  0.3217
 4434TIP3    H134717   1.441   5.166   4.975 -1.4475 -0.0396  1.2044
 4434TIP3    H234718   1.376   5.235   4.857 -0.0573  0.3080  0.6351
 4435TIP3   OH234719   1.894   6.423  11.304  0.0756 -0.4674 -0.2714
 4435TIP3    H134720   1.953   6.348  11.312 -0.2410 -0.8093 -1.1173
 4435TIP3    H234721   1.866   6.422  11.213 -1.4465 -0.4653  0.1843
 4436TIP3   OH234722   4.437   6.051  12.344  0.2519  0.5082 -0.3432
 4436TIP3    H134723   4.367   6.007  12.296 -0.0267 -0.2851  0.7705
 4436TIP3    H234724   4.393   6.121  12.393 -0.0450 -1.0761  1.7072
 4437TIP3   OH234725   2.568   4.004  11.752  0.1700 -0.2073 -0.1155
 4437TIP3    H134726   2.549   4.088  11.710  1.6994 -1.1391 -2.7881
 4437TIP3    H234727   2.635   3.964  11.696  0.1517 -2.7948  1.6377
 4438TIP3   OH234728   1.146   2.148  13.701  0.1242 -0.3454  0.7257
 4438TIP3    H134729   1.143   2.053  13.695  3.1445 -0.3138 -3.9888
 4438TIP3    H234730   1.064   2.178  13.663 -0.5508 -1.0424  1.6250
 4439TIP3   OH234731   6.326   3.487  11.476  0.5338  0.7962 -0.0187
 4439TIP3    H134732   6.251   3.523  11.429  0.0939 -1.6107 -1.2716
 4439TIP3    H234733   6.351   3.410  11.425  1.5885 -0.5114  2.3675
 4440TIP3   OH234734   4.975   2.508  12.998  0.1083  0.2033  0.6331
 4440TIP3    H134735   4.957   2.585  12.945  0.7906  1.2700  1.9515
 4440TIP3    H234736   4.916   2.516  13.073 -0.2442 -0.8663  0.4896
 4441TIP3   OH234737   1.024   0.874  10.826  0.4451 -0.0668  0.0038
 4441TIP3    H134738   1.061   0.826  10.751 -1.2827 -0.4086 -0.6520
 4441TIP3    H234739   1.053   0.965  10.813  1.7381 -0.4729 -0.0358
 4442TIP3   OH234740   5.308   5.546  12.923  0.5210  0.7118 -0.1478
 4442TIP3    H134741   5.229   5.502  12.891 -1.0283  2.4110  1.2192
 4442TIP3    H234742   5.378   5.481  12.912 -1.1697 -1.0559 -0.7774
 4443TIP3   OH234743   4.931   2.967  13.300  0.1929  0.1866  0.1545
 4443TIP3    H134744   4.994   2.896  13.305 -0.1231 -0.0133  1.4224
 4443TIP3    H234745   4.956   3.027  13.370 -2.4110 -1.0495  2.2285
 4444TIP3   OH234746   3.091   4.617  12.239  0.5981  0.9161  0.1570
 4444TIP3    H134747   3.126   4.550  12.297 -0.0476 -0.4240 -0.9732
 4444TIP3    H234748   3.137   4.603  12.156  1.4568  2.7596  0.2908
 4445TIP3   OH234749   0.133   4.067  11.583 -0.1502 -0.2685 -0.4487
 4445TIP3    H134750   0.134   3.975  11.606  2.6806 -0.2059 -0.1899
 4445TIP3    H234751   0.060   4.104  11.633 -0.0656 -1.9850  0.9643
 4446TIP3   OH234752   1.958   2.958  16.248  0.6115  0.4325 -0.1444
 4446TIP3    H134753   1.904   2.883  16.272 -0.7630  0.3914 -3.1140
 4446TIP3    H234754   1.930   3.028  16.307 -0.9045 -0.3052  0.0235
 4447TIP3   OH234755   5.865   6.261   4.988  0.0830  0.4073  0.4231
 4447TIP3    H134756   5.929   6.319   5.029  1.2012 -0.2717 -0.3195
 4447TIP3    H234757   5.822   6.217   5.060  0.8882  0.4268  0.9247
 4448TIP3   OH234758   2.334   6.272  13.704 -0.4602  0.2830 -0.2232
 4448TIP3    H134759   2.392   6.301  13.775  1.1156 -0.2149 -1.2728
 4448TIP3    H234760   2.362   6.183  13.685 -1.8359 -0.0946 -0.5026
 4449TIP3   OH234761   5.268   3.452   1.879 -0.0456 -0.4076  0.1634
 4449TIP3    H134762   5.208   3.406   1.821 -1.5908  0.7159  0.8440
 4449TIP3    H234763   5.282   3.391   1.952  0.3522 -1.0197 -0.4119
 4450TIP3   OH234764   2.492   4.651   3.494  0.2315  0.4486  0.4213
 4450TIP3    H134765   2.442   4.707   3.434 -1.0321 -0.4806  0.5897
 4450TIP3    H234766   2.563   4.708   3.526  1.3352  0.7685 -2.4275
 4451TIP3   OH234767   3.213   3.206   2.040 -0.0534  0.5964 -0.1154
 4451TIP3    H134768   3.165   3.137   1.994  2.1783 -1.3407  0.3472
 4451TIP3    H234769   3.231   3.169   2.127  1.3965  1.6428  0.0453
 4452TIP3   OH234770   2.285   3.814   2.745  0.3293 -0.4566 -0.0374
 4452TIP3    H134771   2.230   3.738   2.730  0.4961 -0.9031  1.4552
 4452TIP3    H234772   2.244   3.885   2.696 -2.0871 -0.5601  1.7398
 4453TIP3   OH234773   0.708   4.639  11.058  0.1870  0.4175  0.2295
 4453TIP3    H134774   0.649   4.605  10.990 -0.4974 -0.6643  1.3377
 4453TIP3    H234775   0.793   4.645  11.015  0.4379 -3.1688  0.0636
 4454TIP3   OH234776   6.166   5.518   0.756  0.5430  0.1995 -0.2159
 4454TIP3    H134777   6.080   5.541   0.721  0.9109  2.2548  0.1829
 4454TIP3    H234778   6.149   5.446   0.816 -1.1236  1.5594  0.9760
 4455TIP3   OH234779   1.670   0.900  14.587 -0.0973 -0.0904  0.1352
 4455TIP3    H134780   1.730   0.925  14.658 -0.4394  0.4665  0.2395
 4455TIP3    H234781   1.585   0.892  14.631 -0.2744  0.0766 -0.1781
 4456TIP3   OH234782   6.660   5.106   5.337 -0.2138 -0.7482  0.2993
 4456TIP3    H134783   6.592   5.114   5.270 -0.3855  0.4005  0.6111
 4456TIP3    H234784   6.711   5.186   5.330  1.7423 -2.0275 -0.5955
 4457TIP3   OH234785   3.634   0.181  11.732  0.5587  0.3140  0.2055
 4457TIP3    H134786   3.575   0.106  11.723 -2.1377  2.6136 -2.1763
 4457TIP3    H234787   3.586   0.241  11.789  0.0847  2.6530 -2.5839
 4458TIP3   OH234788   2.061   2.386  12.260 -0.3568 -0.4004  0.5999
 4458TIP3    H134789   1.977   2.433  12.259 -0.3249 -0.3103 -2.2635
 4458TIP3    H234790   2.106   2.420  12.337 -2.0018  1.2735  0.8711
 4459TIP3   OH234791   3.541   6.609  14.821  0.4675  0.5225  0.0034
 4459TIP3    H134792   3.517   6.701  14.829  0.3819  0.5093 -0.0894
 4459TIP3    H234793   3.457   6.563  14.813  0.4869  0.3752  0.6613
 4460TIP3   OH234794   6.732   0.449   0.865  0.3511 -0.7292  0.1133
 4460TIP3    H134795   6.699   0.534   0.838 -0.0179 -1.4378 -1.7808
 4460TIP3    H234796   6.653   0.395   0.876  0.6571 -1.2987 -0.4244
 4461TIP3   OH234797   3.715   5.163   4.935 -0.3233  0.4969  0.0048
 4461TIP3    H134798   3.737   5.077   4.972  1.3043  0.0215 -1.9460
 4461TIP3    H234799   3.679   5.212   5.008  1.7214 -0.7803  1.9470
 4462TIP3   OH234800   6.329   0.496  12.832 -0.4385 -0.0616  0.5857
 4462TIP3    H134801   6.255   0.549  12.804  0.1363  0.4026 -0.0707
 4462TIP3    H234802   6.402   0.526  12.778  0.3276 -0.2182  1.5269
 4463TIP3   OH234803   1.417   0.005  15.961  0.0831  0.2096  0.4237
 4463TIP3    H134804   1.465  -0.036  16.032  0.0168 -0.3697  0.1372
 4463TIP3    H234805   1.481   0.012  15.889 -0.6109 -1.8080 -0.4215
 4464TIP3   OH234806   4.946   2.875   5.946  0.1978  0.8330 -0.0665
 4464TIP3    H134807   4.872   2.866   5.885  0.3822 -2.5554  0.1084
 4464TIP3    H234808   4.963   2.786   5.976  2.0437  2.0540  2.6943
 4465TIP3   OH234809   2.130   5.513  16.146  0.7408 -0.0258  0.1212
 4465TIP3    H134810   2.143   5.442  16.082  0.8641  0.0234  0.0932
 4465TIP3    H234811   2.133   5.469  16.231  0.4078 -0.1163  0.0910
 4466TIP3   OH234812   5.436   5.845   5.104 -0.4992 -0.1858 -0.0709
 4466TIP3    H134813   5.378   5.804   5.040 -2.1030 -0.5974  1.5930
 4466TIP3    H234814   5.412   5.806   5.188  2.3440 -0.5051  0.6617
 4467TIP3   OH234815   3.609   2.551   1.433 -0.1091 -0.4409 -0.1146
 4467TIP3    H134816   3.536   2.606   1.403  0.6836  0.5799 -0.2131
 4467TIP3    H234817   3.602   2.551   1.528  1.0155  1.4444 -0.0074
 4468TIP3   OH234818   4.976   1.955  13.199  0.2933  0.1384 -0.2144
 4468TIP3    H134819   4.983   1.990  13.110  0.7706  2.8157  0.8191
 4468TIP3    H234820   5.066   1.957  13.232  0.0717 -0.5620  0.4282
 4469TIP3   OH234821   0.089   1.153  15.089  0.4728 -0.7717  0.3924
 4469TIP3    H134822  -0.001   1.177  15.069  0.5769 -1.5671 -1.1193
 4469TIP3    H234823   0.138   1.174  15.010  1.1408 -2.7610  0.2455
 4470TIP3   OH234824   6.042   6.736   3.354 -0.0597 -0.2169 -0.3428
 4470TIP3    H134825   6.018   6.729   3.262  0.8841 -2.8205 -0.4441
 4470TIP3    H234826   6.135   6.761   3.353  0.4207 -1.9098 -0.1645
 4471TIP3   OH234827   5.300   6.732   1.332  0.3855 -0.7893 -0.4136
 4471TIP3    H134828   5.336   6.650   1.299 -0.1059 -0.4256 -1.8608
 4471TIP3    H234829   5.206   6.719   1.332  0.4228 -1.3177  2.2735
 4472TIP3   OH234830   6.393   5.308  13.033  0.0829 -0.2016 -0.1585
 4472TIP3    H134831   6.452   5.233  13.023  0.0525 -0.0541 -1.5984
 4472TIP3    H234832   6.376   5.337  12.943 -1.6976  0.1477  0.2733
 4473TIP3   OH234833   6.486   1.186  13.808 -0.3898 -0.0120 -0.1896
 4473TIP3    H134834   6.461   1.122  13.741 -0.7483  0.9210 -0.9542
 4473TIP3    H234835   6.408   1.240  13.819  0.3496  1.1264 -0.5066
 4474TIP3   OH234836   6.623   5.536   3.551  0.7280  0.3195 -0.4780
 4474TIP3    H134837   6.528   5.545   3.540  0.6436  2.2036  1.5363
 4474TIP3    H234838   6.660   5.603   3.494  0.7300  1.4082  0.7780
 4475TIP3   OH234839   1.735   1.943   4.028  0.2597  0.0725 -0.3456
 4475TIP3    H134840   1.730   2.008   4.098 -1.7471  1.9582 -2.1440
 4475TIP3    H234841   1.715   1.860   4.071  0.0361  1.0505  1.4974
 4476TIP3   OH234842   3.348   5.469  15.413  0.0390 -0.4807  0.3575
 4476TIP3    H134843   3.326   5.534  15.347 -0.4065 -0.9379  0.0460
 4476TIP3    H234844   3.403   5.405  15.367  0.2630 -0.4614  0.5951
 4477TIP3   OH234845   2.666   2.548  15.700  0.3311 -0.6451 -0.5313
 4477TIP3    H134846   2.591   2.603  15.678 -1.5672 -3.0172 -0.2754
 4477TIP3    H234847   2.734   2.573  15.638 -1.3468  0.1971 -2.0727
 4478TIP3   OH234848   3.514   3.613   5.926  0.0145  0.1741  0.2505
 4478TIP3    H134849   3.491   3.645   6.014 -0.2356  2.3207 -0.5591
 4478TIP3    H234850   3.431   3.583   5.889 -0.6182  2.8945 -0.6614
 4479TIP3   OH234851   0.562   1.528  14.036 -0.0050  0.3565  0.5496
 4479TIP3    H134852   0.616   1.551  14.112 -1.7833  1.6306  1.4641
 4479TIP3    H234853   0.476   1.565  14.055 -1.4847 -2.3966 -0.4803
 4480TIP3   OH234854   3.509   2.889  12.646  0.1982 -0.6623  0.4255
 4480TIP3    H134855   3.414   2.892  12.635  0.0783  0.1176  1.5572
 4480TIP3    H234856   3.526   2.942  12.724  1.6409 -0.1080 -0.2384
 4481TIP3   OH234857   5.458   1.036  17.038 -0.3151  0.0362  0.1486
 4481TIP3    H134858   5.405   1.085  16.975  0.1635 -0.4753 -0.6549
 4481TIP3    H234859   5.544   1.078  17.035 -0.6567  0.8593  1.4474
 4482TIP3   OH234860   1.520   6.233  13.212 -0.3927  0.1000  0.0145
 4482TIP3    H134861   1.569   6.302  13.167 -1.3651  1.5184  1.1108
 4482TIP3    H234862   1.428   6.255  13.197 -0.7082 -0.6981  0.7799
 4483TIP3   OH234863   0.680   0.983  16.070  0.4513  0.5013  0.5194
 4483TIP3    H134864   0.590   0.954  16.080  0.5302  0.2048  0.3959
 4483TIP3    H234865   0.731   0.901  16.067  0.8239  0.6929  1.5877
 4484TIP3   OH234866   1.681   0.522  13.339  0.4967  0.5313  0.0968
 4484TIP3    H134867   1.614   0.509  13.406 -0.4142  1.2442 -0.6588
 4484TIP3    H234868   1.707   0.433  13.313 -1.0227  0.2441 -0.4602
 4485TIP3   OH234869   0.910   3.633  14.802  0.3514  0.1209  0.2809
 4485TIP3    H134870   0.988   3.601  14.847 -0.2101 -2.5203 -0.5397
 4485TIP3    H234871   0.838   3.612  14.861 -0.2161 -1.9206 -1.0855
 4486TIP3   OH234872   5.864   2.623  14.597 -0.1244 -0.1986  0.6086
 4486TIP3    H134873   5.873   2.528  14.598  0.2153 -0.1488  2.1448
 4486TIP3    H234874   5.933   2.653  14.537  0.1470 -0.8634  0.5866
 4487TIP3   OH234875   5.879   2.988   6.016 -0.1227 -0.1718 -0.3287
 4487TIP3    H134876   5.932   2.925   6.065 -0.5072 -0.5774 -0.4334
 4487TIP3    H234877   5.942   3.053   5.985 -0.1779  1.4595  2.7849
 4488TIP3   OH234878   2.671   3.212   5.683  0.3035  0.3149  0.0027
 4488TIP3    H134879   2.738   3.145   5.674 -1.1779 -1.2833  0.5763
 4488TIP3    H234880   2.667   3.230   5.777  0.7551  1.2673 -0.1594
 4489TIP3   OH234881   1.238   4.406  10.893  0.3763  0.1240 -0.1035
 4489TIP3    H134882   1.314   4.416  10.835  0.1249 -0.8835 -0.6166
 4489TIP3    H234883   1.273   4.368  10.973  0.3002 -1.0385 -0.6196
 4490TIP3   OH234884   2.068   5.368   2.591  0.1852 -0.2978 -0.2991
 4490TIP3    H134885   2.014   5.343   2.517  0.8231 -0.5498 -0.6805
 4490TIP3    H234886   2.156   5.380   2.555  0.8136 -1.8509  0.6484
 4491TIP3   OH234887   4.029   0.975   3.351  0.4699  0.2426 -0.1756
 4491TIP3    H134888   4.093   0.942   3.415  1.6309  2.6918 -0.0318
 4491TIP3    H234889   3.972   1.032   3.401 -1.2635 -1.1585 -0.5137
 4492TIP3   OH234890   4.516   3.392  13.152 -0.3720  0.1977 -0.0952
 4492TIP3    H134891   4.541   3.300  13.143 -1.2977 -0.2309  1.5441
 4492TIP3    H234892   4.596   3.440  13.134  0.2063 -0.9355 -0.6290
 4493TIP3   OH234893   1.198   3.205  15.057  0.3174 -1.1304  0.1570
 4493TIP3    H134894   1.144   3.248  14.990  0.1386 -2.8503 -0.8421
 4493TIP3    H234895   1.251   3.275  15.093 -2.4219  0.5894  1.0173
 4494TIP3   OH234896   1.607   4.308  15.957  0.4055 -0.1507  0.1212
 4494TIP3    H134897   1.691   4.309  15.911  0.5878 -0.9379  0.4132
 4494TIP3    H234898   1.582   4.215  15.959 -0.1685  0.0071  0.5758
 4495TIP3   OH234899   2.860   2.155   4.985 -0.7964 -0.4865 -0.0426
 4495TIP3    H134900   2.878   2.204   4.904 -1.6336 -1.0465 -0.5649
 4495TIP3    H234901   2.765   2.143   4.985 -0.5929 -2.1703  0.0495
 4496TIP3   OH234902   2.498   5.555   5.000 -0.3252  0.1397 -0.2360
 4496TIP3    H134903   2.449   5.509   4.931 -0.7865 -0.9225  0.7727
 4496TIP3    H234904   2.441   5.550   5.077  0.5141  0.6461  0.4314
 4497TIP3   OH234905   4.873   5.057   2.440  0.1664 -0.9514 -0.3535
 4497TIP3    H134906   4.836   5.137   2.401  1.8719 -0.2117 -0.5206
 4497TIP3    H234907   4.801   5.019   2.490 -0.6614  0.7367 -0.2159
 4498TIP3   OH234908   3.114   0.863   3.959 -0.1510  0.2267 -0.0972
 4498TIP3    H134909   3.175   0.936   3.953  0.3641 -0.2039 -0.1183
 4498TIP3    H234910   3.169   0.787   3.977 -0.7724 -0.0029  0.9263
 4499TIP3   OH234911   3.294   4.043  15.758 -0.6272  0.5302  0.4439
 4499TIP3    H134912   3.245   4.114  15.801  0.1499  1.0780  0.4230
 4499TIP3    H234913   3.276   3.966  15.812 -0.6106  0.9671  1.0841
 4500TIP3   OH234914   5.969   3.974   6.526  0.0039 -0.2293  0.4143
 4500TIP3    H134915   6.058   3.989   6.493 -0.3533  0.3223 -0.3119
 4500TIP3    H234916   5.940   3.895   6.481  0.2156 -0.5420  0.8290
 4501TIP3   OH234917   2.458   2.883  14.314  0.5800  0.1999 -0.0266
 4501TIP3    H134918   2.496   2.796  14.322  2.2939  0.5462 -3.6373
 4501TIP3    H234919   2.531   2.943  14.328  0.0097  0.9994 -0.4269
 4502TIP3   OH234920   5.559   2.297   4.679  0.2651  0.2183 -0.7351
 4502TIP3    H134921   5.500   2.225   4.659 -0.7968  1.0680 -0.7248
 4502TIP3    H234922   5.521   2.372   4.633 -0.0550  1.3426  1.3135
 4503TIP3   OH234923   0.709   3.251  10.863 -0.0019 -0.4754 -0.9129
 4503TIP3    H134924   0.655   3.240  10.942 -0.4685 -1.4601 -1.3719
 4503TIP3    H234925   0.714   3.164  10.825  2.9122 -0.6374 -0.2532
 4504TIP3   OH234926   2.960   4.630   3.709 -0.6912 -0.2984 -0.1625
 4504TIP3    H134927   3.016   4.591   3.641 -0.7905 -1.3507  0.3538
 4504TIP3    H234928   3.015   4.631   3.788 -0.0434  2.3092 -0.5755
 4505TIP3   OH234929   3.196   2.233  13.811 -0.5501  0.1634 -0.0732
 4505TIP3    H134930   3.196   2.137  13.812 -1.6704  0.1336 -1.5071
 4505TIP3    H234931   3.255   2.257  13.883 -0.4413 -1.5877  0.4623
 4506TIP3   OH234932   5.776   3.100  17.027  0.4610  0.2769  0.0567
 4506TIP3    H134933   5.690   3.082  16.990  0.4668  1.7186 -0.7031
 4506TIP3    H234934   5.780   3.196  17.032  2.4021  0.2522 -0.8169
 4507TIP3   OH234935   5.206   2.968  12.573  0.0271  0.2064  0.2096
 4507TIP3    H134936   5.267   2.983  12.500 -1.6164 -0.5793 -1.3689
 4507TIP3    H234937   5.204   2.873  12.583 -0.1143  0.2920  0.9803
 4508TIP3   OH234938   6.501   2.040   5.901  0.3224 -0.3116  0.0653
 4508TIP3    H134939   6.538   2.060   5.987  0.4314 -0.0770 -0.0386
 4508TIP3    H234940   6.496   1.944   5.899 -1.6283 -0.2696  1.1777
 4509TIP3   OH234941   5.354   0.128   4.939 -0.3902 -0.3861  0.4304
 4509TIP3    H134942   5.326   0.038   4.927 -0.3346 -0.3526  0.0448
 4509TIP3    H234943   5.324   0.174   4.860  0.0786 -0.1928  0.3624
 4510TIP3   OH234944   2.659   5.767  13.755 -0.4428 -1.1244 -0.4001
 4510TIP3    H134945   2.572   5.792  13.787 -1.1097 -1.2073 -2.0834
 4510TIP3    H234946   2.650   5.768  13.659  1.0179 -2.5243 -0.5695
 4511TIP3   OH234947   6.018   5.860  14.413 -0.1373  0.1099  0.0697
 4511TIP3    H134948   5.960   5.909  14.473  0.5605 -1.0975  1.7679
 4511TIP3    H234949   6.031   5.776  14.456 -0.1833 -1.0708 -2.1630
 4512TIP3   OH234950   3.953   6.243   4.973  0.5253 -0.0970  0.2154
 4512TIP3    H134951   3.934   6.205   5.059  1.5908  1.0641  0.9991
 4512TIP3    H234952   4.042   6.213   4.953  0.3344 -0.2462 -0.4178
 4513TIP3   OH234953   3.546   4.727   3.831 -0.0845 -0.3762  0.2211
 4513TIP3    H134954   3.454   4.703   3.822 -0.3297  0.1107  1.3475
 4513TIP3    H234955   3.593   4.666   3.774 -1.1746 -0.0945 -1.0009
 4514TIP3   OH234956   1.389   0.683  11.846  0.6060 -0.2046  0.0594
 4514TIP3    H134957   1.351   0.705  11.931  0.6228  0.8418 -0.1950
 4514TIP3    H234958   1.447   0.609  11.864 -3.0180 -3.1251  0.1136
 4515TIP3   OH234959   6.555   6.026   2.935 -0.3969 -0.4779 -0.5516
 4515TIP3    H134960   6.492   6.016   3.006  1.0296  0.2138  0.8568
 4515TIP3    H234961   6.545   6.117   2.907 -0.2341 -0.4466 -0.5092
 4516TIP3   OH234962   2.833   4.739  15.851  0.3169 -0.1323  0.2557
 4516TIP3    H134963   2.848   4.646  15.866  0.3183 -0.5372 -2.0128
 4516TIP3    H234964   2.742   4.753  15.875  0.5450 -0.5534  1.3652
 4517TIP3   OH234965   5.457   4.921   1.304  0.2118 -0.0767 -0.0647
 4517TIP3    H134966   5.413   4.905   1.388  0.0073 -0.4678 -0.2456
 4517TIP3    H234967   5.521   4.850   1.297  0.6503  0.3019  0.0403
 4518TIP3   OH234968   1.160   6.344  14.421 -0.4600  0.3826 -0.7041
 4518TIP3    H134969   1.214   6.340  14.500 -0.8582 -0.0523 -0.4512
 4518TIP3    H234970   1.070   6.354  14.454 -0.3516  3.1498 -1.1429
 4519TIP3   OH234971   0.326   5.819   0.162  0.2436 -0.0267  0.4996
 4519TIP3    H134972   0.298   5.884   0.097  0.5403 -1.4584 -1.0995
 4519TIP3    H234973   0.255   5.818   0.226 -1.8603 -1.2573 -1.7813
 4520TIP3   OH234974   0.914   5.413   2.435  0.1092 -0.2860 -0.0718
 4520TIP3    H134975   0.952   5.438   2.351 -1.5212  0.8469 -0.5106
 4520TIP3    H234976   0.928   5.319   2.442  4.0974  0.2879  0.3981
 4521TIP3   OH234977   3.049   4.480  11.257  0.2996  0.3266 -0.1552
 4521TIP3    H134978   3.092   4.545  11.201  1.2309  0.1063  0.2865
 4521TIP3    H234979   3.082   4.396  11.226  0.7430  0.1963  0.6455
 4522TIP3   OH234980   2.959   3.835   5.068  0.2464 -0.0391 -0.2166
 4522TIP3    H134981   2.898   3.773   5.028  0.0708  0.4588 -0.7248
 4522TIP3    H234982   2.913   3.918   5.066  0.7398  0.2371 -0.1250
 4523TIP3   OH234983   2.104   4.933  11.940  0.3052 -0.1923  0.1534
 4523TIP3    H134984   2.148   4.938  11.856 -0.7750  0.0972 -0.4122
 4523TIP3    H234985   2.074   5.023  11.956  0.7964 -0.1796  1.0013
 4524TIP3   OH234986   6.783   5.915   4.021  0.0042  0.1842  0.3059
 4524TIP3    H134987   6.707   5.960   3.984  0.1576  2.1371  2.2916
 4524TIP3    H234988   6.749   5.869   4.097  0.8443  1.4244  1.4625
 4525TIP3   OH234989   3.347   1.734  12.091  0.4189 -0.2040 -0.1764
 4525TIP3    H134990   3.431   1.688  12.096 -0.2439 -1.5356 -0.9718
 4525TIP3    H234991   3.345   1.789  12.169  2.5777  0.7995 -0.7719
 4526TIP3   OH234992   6.590   0.702   2.234  0.2062  0.1752 -0.0196
 4526TIP3    H134993   6.641   0.645   2.291  0.4387  0.7473  0.3560
 4526TIP3    H234994   6.625   0.685   2.146  0.7613  0.2548  0.1825
 4527TIP3   OH234995   0.731   1.113  15.587 -0.5961  0.1380  0.4308
 4527TIP3    H134996   0.667   1.104  15.658  0.3813 -2.4823  1.0648
 4527TIP3    H234997   0.811   1.142  15.630 -0.0565 -1.2622  0.4231
 4528TIP3   OH234998   2.866   4.838  15.171 -0.5110  0.4208 -0.1540
 4528TIP3    H134999   2.882   4.744  15.165  0.0300  0.5347 -0.4968
 4528TIP3    H235000   2.940   4.878  15.126 -1.9908  0.9459 -2.1768
 4529TIP3   OH235001   5.532   1.258  11.030  0.2757 -0.2619 -0.2971
 4529TIP3    H135002   5.552   1.201  10.956 -0.6844 -0.2444 -0.5738
 4529TIP3    H235003   5.436   1.261  11.034  0.3158  0.2350  0.5592
 4530TIP3   OH235004   4.952   2.382   0.372 -0.4230 -0.8265  0.1561
 4530TIP3    H135005   4.857   2.395   0.378 -0.3980 -0.8496  0.6972
 4530TIP3    H235006   4.985   2.460   0.328 -0.6327 -0.5553  0.4735
 4531TIP3   OH235007   5.531   4.936   0.342 -0.4507 -0.0586 -0.2906
 4531TIP3    H135008   5.620   4.969   0.352 -1.0189  1.8256 -1.0903
 4531TIP3    H235009   5.542   4.844   0.320  1.3516  0.3788 -1.3831
 4532TIP3   OH235010   1.906   4.977  11.112  0.8401 -0.4633 -0.4295
 4532TIP3    H135011   1.850   5.019  11.046 -0.5373 -0.9946  0.3835
 4532TIP3    H235012   1.849   4.912  11.153  1.4270  0.4775  1.9048
 4533TIP3   OH235013   3.487   0.474  16.871 -0.2864  0.0869 -0.2579
 4533TIP3    H135014   3.458   0.506  16.786  0.3072  1.0513 -0.1021
 4533TIP3    H235015   3.580   0.493  16.874 -0.2253 -0.2953  0.4575
 4534TIP3   OH235016   5.291   4.865   5.067 -0.0372  0.3176 -0.2452
 4534TIP3    H135017   5.218   4.912   5.027 -0.9395 -0.0673  0.9215
 4534TIP3    H235018   5.285   4.887   5.160  0.1662 -1.2668  0.1552
 4535TIP3   OH235019   4.769   6.741   0.230 -0.1649 -0.5997 -0.8602
 4535TIP3    H135020   4.717   6.782   0.298  0.5027  0.2980 -0.8972
 4535TIP3    H235021   4.826   6.680   0.276  1.7395  1.4833 -0.3917
 4536TIP3   OH235022   5.277   3.487   5.869 -0.2195  0.1871 -0.4225
 4536TIP3    H135023   5.222   3.414   5.897  1.0889 -0.2125  1.1562
 4536TIP3    H235024   5.261   3.555   5.934 -0.6409  0.9458 -1.3036
 4537TIP3   OH235025   5.532   0.570  11.930 -0.2447  0.0917  0.4197
 4537TIP3    H135026   5.621   0.535  11.935  0.5203  2.2490  3.8962
 4537TIP3    H235027   5.543   0.660  11.902 -1.1404  0.8512  2.4079
 4538TIP3   OH235028   5.762   6.361   3.442  0.1694 -0.0982 -0.0684
 4538TIP3    H135029   5.673   6.346   3.411  0.2332 -0.7821  0.0678
 4538TIP3    H235030   5.818   6.330   3.371  0.3119 -1.3142  0.5715
 4539TIP3   OH235031   1.846   5.071   0.736 -0.0097  1.1631 -0.4887
 4539TIP3    H135032   1.756   5.083   0.706 -0.6190 -1.3935  0.1743
 4539TIP3    H235033   1.899   5.071   0.656 -0.6046  2.3569 -0.8980
 4540TIP3   OH235034   1.886   1.241   3.848  0.3262  0.4650  0.6277
 4540TIP3    H135035   1.958   1.288   3.808  0.2629  0.0769  0.0540
 4540TIP3    H235036   1.808   1.291   3.825  0.0837 -0.7724 -1.3215
 4541TIP3   OH235037   4.288   0.361  13.356  0.3874 -0.4633  0.3609
 4541TIP3    H135038   4.380   0.340  13.339  0.7940  1.3354  0.1799
 4541TIP3    H235039   4.239   0.302  13.298  1.3417 -2.4472  1.5055
 4542TIP3   OH235040   4.139   0.514   0.423 -0.2237  0.3706 -0.0546
 4542TIP3    H135041   4.119   0.421   0.409  0.2547  0.1638  0.6264
 4542TIP3    H235042   4.091   0.537   0.503 -0.1449  0.6510 -0.0889
 4543TIP3   OH235043   0.111   5.260   2.601 -0.1370 -0.3940 -0.2743
 4543TIP3    H135044   0.196   5.224   2.627 -0.6305 -0.1902  1.6893
 4543TIP3    H235045   0.064   5.185   2.565  0.7513 -0.5713 -1.1042
 4544TIP3   OH235046   0.087   2.010  10.539  0.1321 -0.3647 -0.1239
 4544TIP3    H135047   0.087   2.052  10.625 -1.7288  1.1859 -0.8588
 4544TIP3    H235048   0.142   1.932  10.551  0.7318  0.3688  2.1865
 4545TIP3   OH235049   5.368   2.205  11.166 -0.1643  0.3465 -0.3226
 4545TIP3    H135050   5.417   2.257  11.102 -3.4298  1.8877 -1.6608
 4545TIP3    H235051   5.394   2.241  11.251  1.3993  0.7397 -0.9388
 4546TIP3   OH235052   2.632   2.124  11.539 -0.3970 -0.1852 -0.1035
 4546TIP3    H135053   2.592   2.037  11.543  1.0347 -0.8383  0.1021
 4546TIP3    H235054   2.710   2.118  11.593  0.2518  0.9437 -0.8825
 4547TIP3   OH235055   0.375   0.795   1.177  0.5195  0.9752 -0.6268
 4547TIP3    H135056   0.320   0.794   1.099  0.4187  1.3025 -0.5598
 4547TIP3    H235057   0.313   0.786   1.250  0.6918 -0.3277 -0.6262
 4548TIP3   OH235058   2.052   0.225  11.692  0.7075 -0.4421  0.5362
 4548TIP3    H135059   2.136   0.262  11.665  1.3006 -1.6356  0.6928
 4548TIP3    H235060   2.003   0.299  11.728  0.8683  0.6933 -1.4631
 4549TIP3   OH235061   3.078   2.601   3.591  0.5750 -0.6300 -0.1362
 4549TIP3    H135062   3.143   2.607   3.661 -0.2353 -0.4056  0.5947
 4549TIP3    H235063   3.098   2.517   3.548  1.9246 -0.1394 -0.5025
 4550TIP3   OH235064   4.219   4.595  12.134  0.3389 -0.1670 -0.0225
 4550TIP3    H135065   4.276   4.636  12.069 -0.6866  5.8514  2.4745
 4550TIP3    H235066   4.268   4.601  12.216 -1.3930 -0.5070  1.0578
 4551TIP3   OH235067   5.333   1.315   2.701 -0.0495  0.1900  0.3431
 4551TIP3    H135068   5.423   1.348   2.693 -0.5418  1.0408 -2.0282
 4551TIP3    H235069   5.321   1.259   2.625 -1.3379 -0.4021  0.9719
 4552TIP3   OH235070   6.016   4.989   2.521  0.2943  0.3754 -0.3401
 4552TIP3    H135071   6.094   5.043   2.532 -0.1823  0.5160  3.0636
 4552TIP3    H235072   5.943   5.051   2.528 -0.1876 -0.2644  0.4286
 4553TIP3   OH235073   1.345   1.362   0.972 -0.4122  0.3381 -0.0588
 4553TIP3    H135074   1.264   1.328   0.935  0.5299 -0.7400 -1.1543
 4553TIP3    H235075   1.370   1.433   0.913  1.0538 -1.3365 -1.5040
 4554TIP3   OH235076   4.560   6.211  15.866  0.4272  0.1792 -0.1322
 4554TIP3    H135077   4.607   6.149  15.811 -0.3182 -0.1562 -0.4016
 4554TIP3    H235078   4.487   6.240  15.812 -0.1655  0.0406  0.5795
 4555TIP3   OH235079   2.340   4.408   1.607  0.0412  0.2510 -0.8506
 4555TIP3    H135080   2.287   4.424   1.684  0.3252  1.7405 -0.9569
 4555TIP3    H235081   2.360   4.314   1.611 -2.0150 -0.1902 -0.4675
 4556TIP3   OH235082   0.552   4.256  15.196  0.1264  0.1428 -0.3994
 4556TIP3    H135083   0.604   4.270  15.117  0.5154  0.7676 -0.0420
 4556TIP3    H235084   0.464   4.283  15.172  0.2307  0.2703 -0.6374
 4557TIP3   OH235085   5.560   6.094  15.571 -0.4074 -0.6055  0.2156
 4557TIP3    H135086   5.594   6.036  15.639  0.0086 -2.7275 -1.7167
 4557TIP3    H235087   5.587   6.052  15.489 -0.6342  2.0330 -1.2536
 4558TIP3   OH235088   5.574   6.656  16.657 -0.5695 -0.0835  0.3289
 4558TIP3    H135089   5.602   6.731  16.606 -0.0837 -0.6744 -0.2900
 4558TIP3    H235090   5.647   6.640  16.718 -0.0619 -0.8905 -0.4760
 4559TIP3   OH235091   3.494   4.639  14.159 -0.5699  0.0160 -0.2432
 4559TIP3    H135092   3.438   4.717  14.157  0.3274  0.7180  0.9318
 4559TIP3    H235093   3.539   4.645  14.243 -0.5701 -1.8436 -0.1019
 4560TIP3   OH235094   5.805   2.563  11.978  0.1405 -0.0490  0.4703
 4560TIP3    H135095   5.881   2.562  12.036  2.4032  0.0090 -2.3739
 4560TIP3    H235096   5.816   2.486  11.923 -1.5697  0.2793 -0.3620
 4561TIP3   OH235097   1.720   0.966  16.210 -0.2772 -0.3895 -0.1295
 4561TIP3    H135098   1.736   0.891  16.267 -1.4539  0.3494  1.1988
 4561TIP3    H235099   1.721   1.041  16.269 -1.1556  0.4180 -1.1400
 4562TIP3   OH235100   2.099   3.727  16.235 -0.1954 -0.2570 -0.7385
 4562TIP3    H135101   2.031   3.750  16.298 -0.8840 -0.5617 -1.3585
 4562TIP3    H235102   2.174   3.701  16.288 -0.0558  1.5459 -0.0470
 4563TIP3   OH235103   5.137   6.379  11.944 -0.1800  0.5704 -0.2451
 4563TIP3    H135104   5.043   6.395  11.932 -0.3903 -0.0452  0.5481
 4563TIP3    H235105   5.150   6.384  12.038  0.9475  2.5575 -0.4986
 4564TIP3   OH235106   3.086   1.326  10.660 -0.0024  0.0459 -0.9121
 4564TIP3    H135107   3.036   1.395  10.616  0.1613  0.8798  0.1783
 4564TIP3    H235108   3.108   1.264  10.591 -0.6403  0.8029 -1.8049
 4565TIP3   OH235109   1.301   6.547   0.505 -0.3411  0.5289 -0.2749
 4565TIP3    H135110   1.336   6.615   0.448 -1.1264  1.2895  0.1420
 4565TIP3    H235111   1.375   6.522   0.561  0.2527  0.2402 -1.1742
 4566TIP3   OH235112   5.624   2.982  12.140 -0.6693  0.2228  0.3914
 4566TIP3    H135113   5.636   2.890  12.160  0.1467  0.1510 -0.4193
 4566TIP3    H235114   5.617   3.025  12.226 -2.6879 -0.7885  0.7578
 4567TIP3   OH235115   3.282   0.323   3.911  0.3600 -0.0025 -0.6758
 4567TIP3    H135116   3.316   0.234   3.911  0.3411 -0.0255  1.4355
 4567TIP3    H235117   3.195   0.315   3.871  0.2783 -0.9551 -0.3112
 4568TIP3   OH235118   6.097   5.051  12.946  0.1444  0.5131  0.0081
 4568TIP3    H135119   6.002   5.037  12.938  0.0959  0.1556  1.1889
 4568TIP3    H235120   6.115   5.121  12.883 -0.9734  0.8789  0.0747
 4569TIP3   OH235121   2.097   1.447   5.746  0.0534  0.3454  0.3680
 4569TIP3    H135122   2.021   1.489   5.706 -0.2206 -0.5776 -0.1046
 4569TIP3    H235123   2.080   1.451   5.840 -1.0285 -0.6472  0.2349
 4570TIP3   OH235124   0.536   2.440  14.286  0.1170  0.0405 -0.1451
 4570TIP3    H135125   0.554   2.349  14.263  2.3093  0.0941  1.2405
 4570TIP3    H235126   0.560   2.447  14.378 -2.6794  1.3557  0.5645
 4571TIP3   OH235127   4.636   2.624  12.200 -0.5330 -0.5479  0.0439
 4571TIP3    H135128   4.576   2.566  12.154 -1.3713 -1.0408  1.7259
 4571TIP3    H235129   4.666   2.573  12.275 -2.3702  1.6399  2.3413
 4572TIP3   OH235130   5.651   4.129  15.061 -0.6455 -0.3287  0.4788
 4572TIP3    H135131   5.729   4.074  15.050 -1.2038 -0.7988 -1.3316
 4572TIP3    H235132   5.657   4.193  14.990 -1.4545  0.1783  0.8615
 4573TIP3   OH235133   6.044   4.401  13.092  0.0983  0.1807 -0.3875
 4573TIP3    H135134   5.990   4.367  13.163  0.3895  2.2626  0.8849
 4573TIP3    H235135   5.982   4.429  13.025 -0.3555  1.0292  0.3683
 4574TIP3   OH235136   5.230   0.125  16.001 -0.1287 -0.2262  0.2391
 4574TIP3    H135137   5.191   0.166  15.924 -3.0823 -1.7704  0.8341
 4574TIP3    H235138   5.205   0.182  16.074  0.0983 -0.3455  0.4101
 4575TIP3   OH235139   0.169   1.691  15.263  0.3968 -0.2640 -0.3181
 4575TIP3    H135140   0.191   1.780  15.235  1.8908 -0.3414  0.5106
 4575TIP3    H235141   0.228   1.635  15.213 -1.2399 -0.8863 -1.5881
 4576TIP3   OH235142   0.748   3.471  14.416 -0.3356  0.2889  0.4552
 4576TIP3    H135143   0.823   3.512  14.456  0.3648 -0.9683  0.4699
 4576TIP3    H235144   0.691   3.447  14.489 -0.0937 -0.0226  0.5404
 4577TIP3   OH235145   2.432   2.956  11.839  0.4538 -0.6825 -0.0638
 4577TIP3    H135146   2.434   2.868  11.877 -0.5481 -1.5449 -1.8843
 4577TIP3    H235147   2.340   2.970  11.816  1.3772 -1.5987 -5.0610
 4578TIP3   OH235148   2.807   5.965   3.687  0.2698  0.0915 -0.9324
 4578TIP3    H135149   2.821   5.934   3.777  2.7327 -0.3541 -1.4264
 4578TIP3    H235150   2.728   5.920   3.658  0.0899 -0.6386  0.6249
 4579TIP3   OH235151   0.375   2.066  16.155  0.1930  1.1378  0.2683
 4579TIP3    H135152   0.317   2.099  16.087 -0.1255  1.3659  0.6453
 4579TIP3    H235153   0.361   1.971  16.156  2.4528  0.7234 -2.0541
 4580TIP3   OH235154   4.130   0.563   0.939  0.1093 -0.0276 -0.2901
 4580TIP3    H135155   4.177   0.481   0.929 -1.1495 -0.8057  0.0762
 4580TIP3    H235156   4.196   0.631   0.921  1.1018 -1.1076 -0.7892
 4581TIP3   OH235157   4.779   5.034  15.428 -0.3606  0.2225 -0.6186
 4581TIP3    H135158   4.770   5.129  15.437  0.9994  0.1738  1.5068
 4581TIP3    H235159   4.871   5.021  15.406  0.2374 -0.7856  2.3002
 4582TIP3   OH235160   2.765   6.460  11.785 -0.1659  0.4306  0.4131
 4582TIP3    H135161   2.744   6.436  11.875 -0.4912  0.7542  0.4226
 4582TIP3    H235162   2.727   6.547  11.773 -1.6286 -0.3364 -0.5946
 4583TIP3   OH235163   1.900   1.525  12.771  0.0478 -0.2646 -0.7006
 4583TIP3    H135164   1.854   1.548  12.690  0.1084  0.5813 -0.5039
 4583TIP3    H235165   1.868   1.438  12.793  0.0286 -0.4966 -1.6355
 4584TIP3   OH235166   5.757   0.753   4.316  0.1242  0.9433 -0.8168
 4584TIP3    H135167   5.685   0.723   4.260  0.2879  1.0410 -1.0788
 4584TIP3    H235168   5.770   0.845   4.292  0.3043  0.9403 -0.7305
 4585TIP3   OH235169   0.742   5.839  12.876 -0.0385 -0.2073 -0.5041
 4585TIP3    H135170   0.822   5.830  12.927 -0.8960  1.4104  1.1621
 4585TIP3    H235171   0.703   5.751  12.877  1.5849 -0.9674 -1.1911
 4586TIP3   OH235172   6.642   1.055   4.037  0.5962  0.2144  0.4065
 4586TIP3    H135173   6.679   1.137   4.070  1.6335  0.5509 -1.5299
 4586TIP3    H235174   6.633   1.069   3.943 -1.7463 -0.9482  0.4250
 4587TIP3   OH235175   0.975   3.599   5.000 -0.2612  0.1915 -1.0633
 4587TIP3    H135176   0.902   3.538   4.984  1.3152 -2.1728  0.5005
 4587TIP3    H235177   1.030   3.591   4.923  0.7771 -1.6448 -0.1679
 4588TIP3   OH235178   4.968   1.441  15.069  0.3857 -0.1729  0.1028
 4588TIP3    H135179   5.052   1.395  15.068  0.1828 -0.5915  1.8725
 4588TIP3    H235180   4.991   1.533  15.082  0.5123 -0.4324  1.7616
 4589TIP3   OH235181   2.795   4.694   5.921 -0.3966 -0.7318  0.1763
 4589TIP3    H135182   2.708   4.670   5.952 -0.2373 -0.5104  0.8119
 4589TIP3    H235183   2.851   4.684   5.998  0.1869 -1.1396 -0.2979
 4590TIP3   OH235184   3.572   1.879  13.393 -0.5765  0.0007 -0.4336
 4590TIP3    H135185   3.482   1.890  13.425 -0.4007  1.6183 -0.4292
 4590TIP3    H235186   3.561   1.845  13.304 -1.2180  0.7511 -0.6482
 4591TIP3   OH235187   6.603   3.228  15.380 -0.7688 -0.1916 -0.2926
 4591TIP3    H135188   6.681   3.208  15.432 -0.4699  1.0553 -0.2453
 4591TIP3    H235189   6.566   3.142  15.358 -0.1281 -0.7587  0.8067
 4592TIP3   OH235190   3.343   6.127  14.572 -0.1543  0.1705  0.3610
 4592TIP3    H135191   3.310   6.057  14.515  0.9727  0.0038 -0.1018
 4592TIP3    H235192   3.416   6.086  14.619 -0.0677  0.7751  0.7559
 4593TIP3   OH235193   1.955   2.642   3.369 -0.0276  0.3789  0.0558
 4593TIP3    H135194   1.890   2.583   3.333  0.1871 -0.8525  1.6296
 4593TIP3    H235195   1.928   2.729   3.339 -2.0569 -0.1800  0.2023
 4594TIP3   OH235196   5.491   3.353  17.016  0.6976 -0.3063  0.2819
 4594TIP3    H135197   5.450   3.398  17.090  1.6846  2.0177 -0.5437
 4594TIP3    H235198   5.439   3.273  17.006 -1.9256  1.2135  0.9992
 4595TIP3   OH235199   5.177   1.373  12.229 -0.1230  0.1771  0.4546
 4595TIP3    H135200   5.186   1.365  12.324  1.0692  0.9420  0.4276
 4595TIP3    H235201   5.091   1.412  12.215 -1.0033 -1.4983  1.1304
 4596TIP3   OH235202   4.534   6.426   2.388 -0.6928  0.0133  0.0512
 4596TIP3    H135203   4.556   6.519   2.388 -0.4063 -0.0417 -1.2536
 4596TIP3    H235204   4.532   6.401   2.480  1.1466  0.8630  0.3432
 4597TIP3   OH235205   0.105   6.335  16.642  0.5264  0.6845 -0.3373
 4597TIP3    H135206   0.121   6.277  16.568 -0.3070  1.8253 -1.4208
 4597TIP3    H235207   0.074   6.417  16.603 -0.4724  1.1071  1.2889
 4598TIP3   OH235208   3.171   3.109  15.241 -0.2583  0.8323 -0.5171
 4598TIP3    H135209   3.201   3.045  15.306 -0.1129  1.8760  0.4660
 4598TIP3    H235210   3.092   3.147  15.280 -1.6964 -0.4278 -2.1622
 4599TIP3   OH235211   4.082   6.745   5.203  0.1939  0.0592  0.1106
 4599TIP3    H135212   4.132   6.696   5.269 -1.3582 -1.2732  0.3171
 4599TIP3    H235213   4.149   6.794   5.155  1.2251  2.3976  3.7069
 4600TIP3   OH235214   2.228   5.299   1.482 -0.0644 -0.6588 -0.4128
 4600TIP3    H135215   2.311   5.295   1.434  0.8687  0.0789  1.0617
 4600TIP3    H235216   2.217   5.393   1.501 -0.1552 -0.9827  1.2019
 4601TIP3   OH235217   4.203   0.094  14.588  0.2107  0.0636 -0.3670
 4601TIP3    H135218   4.262   0.154  14.634 -0.4037 -0.5158  1.2136
 4601TIP3    H235219   4.261   0.026  14.554  0.4425 -0.7677  1.5974
 4602TIP3   OH235220   0.887   3.347  10.360  0.1062  0.0594 -0.1472
 4602TIP3    H135221   0.861   3.331  10.451 -2.7164  1.0825 -0.6989
 4602TIP3    H235222   0.916   3.262  10.328 -1.2483 -0.8566  0.9933
 4603TIP3   OH235223   0.238   4.797   0.327 -0.2101  0.4680 -0.4241
 4603TIP3    H135224   0.237   4.792   0.232  0.3306 -1.7224 -0.3401
 4603TIP3    H235225   0.249   4.706   0.356  1.1659  1.2685  1.6962
 4604TIP3   OH235226   1.166   6.281  15.083  0.3025  0.5002  0.1796
 4604TIP3    H135227   1.125   6.196  15.066  0.5145 -0.0532  2.2231
 4604TIP3    H235228   1.250   6.277  15.038  1.5229 -1.4954  2.4988
 4605TIP3   OH235229   4.627   5.990  11.308  0.1590 -0.2259 -0.2254
 4605TIP3    H135230   4.603   6.081  11.324  2.6677  0.6489 -1.2542
 4605TIP3    H235231   4.620   5.979  11.213  0.3468 -0.9821 -0.1571
 4606TIP3   OH235232   0.342   3.109   4.868  0.1466 -0.2407 -0.0300
 4606TIP3    H135233   0.264   3.147   4.908 -1.0423 -0.8056 -1.7777
 4606TIP3    H235234   0.354   3.157   4.786  0.7247 -1.2001 -0.5171
 4607TIP3   OH235235   2.334   3.674  16.389  0.3351  0.6890 -0.4733
 4607TIP3    H135236   2.403   3.613  16.360  1.2596  1.7486 -0.5431
 4607TIP3    H235237   2.311   3.642  16.477 -0.4700 -0.8304 -1.2167
 4608TIP3   OH235238   3.782   5.235   0.234  0.5746 -0.6527  0.0084
 4608TIP3    H135239   3.714   5.239   0.301 -3.1354 -0.2497 -3.5440
 4608TIP3    H235240   3.794   5.142   0.216  0.9285 -0.7243  0.6186
 4609TIP3   OH235241   0.558   5.307   3.550 -0.1010  0.4534 -0.2170
 4609TIP3    H135242   0.464   5.290   3.550 -0.1531  0.7416 -0.0824
 4609TIP3    H235243   0.598   5.222   3.568 -0.3591  0.4800  0.4836
 4610TIP3   OH235244   4.103   0.156  12.197 -1.0823 -0.1385  0.6548
 4610TIP3    H135245   4.113   0.180  12.105 -0.6863  0.8815  0.9632
 4610TIP3    H235246   4.185   0.183  12.238 -1.6285  0.2449  1.4906
 4611TIP3   OH235247   0.720   6.758   3.839  0.1420  0.4903  0.1093
 4611TIP3    H135248   0.744   6.851   3.841  3.0926 -0.2378  2.4941
 4611TIP3    H235249   0.735   6.732   3.748  0.4282  2.0735 -0.3226
 4612TIP3   OH235250   2.457   5.183   4.894 -0.5740 -0.3653  0.1285
 4612TIP3    H135251   2.383   5.122   4.894 -0.7952 -0.1014  0.2347
 4612TIP3    H235252   2.416   5.270   4.894 -0.2575 -0.2033 -1.3873
 4613TIP3   OH235253   5.195   6.588  11.757  0.2184 -0.7956 -0.4036
 4613TIP3    H135254   5.160   6.589  11.846  0.0806 -0.5270 -0.4602
 4613TIP3    H235255   5.144   6.521  11.711  1.0177 -1.7034  0.0112
 4614TIP3   OH235256   6.716   0.204  16.710 -0.1515 -0.3271  0.0506
 4614TIP3    H135257   6.773   0.142  16.756 -0.5763 -1.0231 -0.3428
 4614TIP3    H235258   6.644   0.220  16.771 -0.6713 -1.1844 -0.3349
 4615TIP3   OH235259   1.938   2.867  14.431  0.8535 -0.2826  0.4468
 4615TIP3    H135260   1.857   2.872  14.381  1.0025  0.6690  0.3027
 4615TIP3    H235261   2.006   2.849  14.366  0.9519  0.2928  0.3881
 4616TIP3   OH235262   1.053   5.919   0.020 -0.1810  0.6352  0.0833
 4616TIP3    H135263   1.019   5.953  -0.063  2.0928  0.4549 -0.9488
 4616TIP3    H235264   1.125   5.862  -0.005  2.7943  3.2652  2.3255
 4617TIP3   OH235265   0.066   5.939   4.431 -0.3823  0.4327  0.9565
 4617TIP3    H135266   0.102   6.027   4.424 -0.1401  0.3187  0.7844
 4617TIP3    H235267  -0.029   5.952   4.437 -0.3586  0.6949  0.7613
 4618TIP3   OH235268   5.423   2.915   2.951 -0.0939 -0.1795  0.1855
 4618TIP3    H135269   5.473   2.967   3.014  0.3785 -0.2406 -0.1360
 4618TIP3    H235270   5.485   2.849   2.920  0.4638  1.4414 -2.2742
 4619TIP3   OH235271   3.140   0.608   2.441 -0.1159  0.6409 -0.4245
 4619TIP3    H135272   3.221   0.658   2.442  0.3624  0.1293 -4.6693
 4619TIP3    H235273   3.159   0.532   2.386 -2.6342 -1.0884  0.9585
 4620TIP3   OH235274   0.916   0.954   1.769 -0.2182 -0.2841 -0.2567
 4620TIP3    H135275   0.958   1.022   1.823 -0.8934 -0.6188  0.7086
 4620TIP3    H235276   0.855   1.002   1.713 -1.2963 -0.1497  0.9999
 4621TIP3   OH235277   3.301   2.915   3.241 -0.4503 -0.0525  0.3525
 4621TIP3    H135278   3.343   2.998   3.263 -0.1376 -0.3149  0.7462
 4621TIP3    H235279   3.220   2.915   3.291  0.1010 -0.4989  1.2682
 4622TIP3   OH235280   3.820   3.761  13.590 -0.0891 -0.3544 -0.2723
 4622TIP3    H135281   3.750   3.820  13.621 -0.2657 -1.8163  2.2659
 4622TIP3    H235282   3.824   3.776  13.496 -2.8156  0.8553 -0.2535
 4623TIP3   OH235283   5.421   5.247   3.253 -0.6137 -0.6054  0.1959
 4623TIP3    H135284   5.411   5.157   3.221  0.9032 -0.5013 -0.6250
 4623TIP3    H235285   5.336   5.288   3.237 -1.0449 -1.6519 -0.2196
 4624TIP3   OH235286   4.595   1.330  13.991  0.3470 -0.1616  0.1500
 4624TIP3    H135287   4.614   1.297  13.903  0.4882 -0.4348  0.2840
 4624TIP3    H235288   4.602   1.425  13.983 -1.8760 -0.0357 -0.6800
 4625TIP3   OH235289   2.417   3.351  17.219 -0.6329 -0.2887 -0.4363
 4625TIP3    H135290   2.347   3.290  17.243 -0.6253 -0.5572 -1.1048
 4625TIP3    H235291   2.463   3.309  17.147 -1.3262  0.9884 -1.6624
 4626TIP3   OH235292   0.031   2.227   2.170  0.0381 -0.1147 -0.3681
 4626TIP3    H135293   0.111   2.186   2.136 -0.1815 -0.5763 -0.3247
 4626TIP3    H235294  -0.033   2.156   2.175  0.3439 -0.2838  1.9429
 4627TIP3   OH235295   2.387   3.125  10.992 -0.1322  0.6449  0.3639
 4627TIP3    H135296   2.452   3.069  10.951 -0.1861  0.9663 -0.1594
 4627TIP3    H235297   2.399   3.211  10.952 -1.4877  0.4849 -0.4124
 4628TIP3   OH235298   0.352   1.416   1.499  0.5268 -0.0725  0.4685
 4628TIP3    H135299   0.276   1.474   1.509 -0.4681 -1.1167 -0.8966
 4628TIP3    H235300   0.411   1.466   1.443  1.0856  0.9338  1.9000
 4629TIP3   OH235301   0.827   4.266   2.475  0.0878 -0.1623  0.1263
 4629TIP3    H135302   0.838   4.195   2.538  1.0787 -0.1826 -0.0626
 4629TIP3    H235303   0.745   4.246   2.431  0.3566 -1.1998  0.0761
 4630TIP3   OH235304   5.568   1.463   3.726  0.0285  0.0445  0.3634
 4630TIP3    H135305   5.563   1.526   3.654 -0.6905  0.1202  0.4714
 4630TIP3    H235306   5.632   1.500   3.787 -0.0645  0.4471  0.2141
 4631TIP3   OH235307   5.092   4.656  11.568 -0.6629 -0.6085 -0.1950
 4631TIP3    H135308   5.033   4.693  11.502 -0.2898  0.7874  0.2433
 4631TIP3    H235309   5.052   4.572  11.591 -1.8675 -0.1934 -0.7296
 4632TIP3   OH235310   5.788   0.341  17.121 -0.4384  0.0298 -0.7714
 4632TIP3    H135311   5.725   0.285  17.168 -0.9381 -1.0255 -2.6459
 4632TIP3    H235312   5.742   0.424  17.109 -0.4512  0.1742  0.2513
 4633TIP3   OH235313   5.428   3.456   1.505 -0.2001  0.6699 -0.4563
 4633TIP3    H135314   5.480   3.376   1.493  0.9007  1.3235 -0.1804
 4633TIP3    H235315   5.373   3.461   1.427 -0.5070 -0.5235 -0.3239
 4634TIP3   OH235316   2.881   1.094  11.709  0.8617  0.2127 -0.7818
 4634TIP3    H135317   2.923   1.011  11.732 -1.5378 -0.7454  0.2728
 4634TIP3    H235318   2.928   1.159  11.762  1.9365 -0.6178 -0.6829
 4635TIP3   OH235319   6.170   0.477  12.286 -0.6924 -0.5823 -0.0956
 4635TIP3    H135320   6.099   0.515  12.338 -2.1821  0.4634 -2.8481
 4635TIP3    H235321   6.126   0.420  12.223  1.0311 -1.1247 -0.8361
 4636TIP3   OH235322   3.249   0.693  13.740 -0.4798  0.4491  0.0792
 4636TIP3    H135323   3.254   0.620  13.803 -2.0660  0.1662 -0.0918
 4636TIP3    H235324   3.166   0.736  13.760  0.5743  2.4228  0.3686
 4637TIP3   OH235325   3.274   6.570  11.596  0.1311 -0.1405  0.5268
 4637TIP3    H135326   3.206   6.622  11.554 -0.2525 -1.7519 -0.9068
 4637TIP3    H235327   3.354   6.590  11.548 -0.1678 -1.4368 -0.5359
 4638TIP3   OH235328   5.597   1.359  14.648  0.5793  0.2041  0.0606
 4638TIP3    H135329   5.692   1.364  14.641  0.7408 -1.5982  0.6322
 4638TIP3    H235330   5.580   1.366  14.742  0.3606 -2.0407  0.2209
 4639TIP3   OH235331   3.849   1.915   3.173 -0.3338 -0.1784  0.0098
 4639TIP3    H135332   3.893   1.984   3.124 -2.6373  1.0461 -0.3960
 4639TIP3    H235333   3.920   1.867   3.216  1.3253  2.1058 -0.1212
 4640TIP3   OH235334   1.317   1.936  12.525 -0.0109 -0.2715 -0.2126
 4640TIP3    H135335   1.235   1.902  12.491 -0.8541  0.5275  1.0062
 4640TIP3    H235336   1.303   2.030  12.534  0.2971 -0.4128  2.0148
 4641TIP3   OH235337   3.689   5.950  13.771  0.1667  0.5106  0.5683
 4641TIP3    H135338   3.760   5.897  13.808 -0.4171 -1.0442 -0.5252
 4641TIP3    H235339   3.610   5.900  13.790 -0.2198  0.0751 -2.0754
 4642TIP3   OH235340   4.827   5.480  12.384  0.6538 -0.3384  0.2898
 4642TIP3    H135341   4.811   5.472  12.290  0.0068  0.5095  0.3182
 4642TIP3    H235342   4.762   5.545  12.413  1.4319  0.0535  1.1562
 4643TIP3   OH235343   0.315   4.762   2.047  0.4627 -0.7683  0.2520
 4643TIP3    H135344   0.230   4.729   2.018 -0.6332  0.6167  1.7915
 4643TIP3    H235345   0.296   4.849   2.082  2.2058 -1.2005  2.3569
 4644TIP3   OH235346   1.321   4.381   6.072  0.1074  0.7288 -0.9760
 4644TIP3    H135347   1.405   4.350   6.104 -1.3227 -0.8891  1.3116
 4644TIP3    H235348   1.267   4.302   6.065 -1.6741  1.9232 -0.9917
 4645TIP3   OH235349   1.274   2.939   2.370  0.0884  0.3194 -0.8656
 4645TIP3    H135350   1.262   2.959   2.277 -0.1820  0.6673 -0.7556
 4645TIP3    H235351   1.367   2.954   2.386 -0.0819  1.3307 -0.8234
 4646TIP3   OH235352   0.189   3.087   4.589 -1.1908 -0.2578 -0.1880
 4646TIP3    H135353   0.278   3.068   4.559 -0.9746 -1.0543  0.8920
 4646TIP3    H235354   0.190   3.180   4.608 -0.7899 -0.1223 -0.8470
 4647TIP3   OH235355   2.852   1.657  16.082  0.7661 -0.5115 -0.2678
 4647TIP3    H135356   2.824   1.726  16.022  1.7840  0.0985 -0.0565
 4647TIP3    H235357   2.793   1.665  16.157  1.4918  0.7820  0.1856
 4648TIP3   OH235358   2.484   1.988  16.870 -0.5459 -0.2198  0.3964
 4648TIP3    H135359   2.438   1.920  16.820  1.8458 -0.5477 -1.4305
 4648TIP3    H235360   2.500   2.057  16.806  0.6390  0.2893  1.2327
 4649TIP3   OH235361   5.526   3.230  14.861  0.3796 -0.2568 -0.0015
 4649TIP3    H135362   5.509   3.324  14.860  0.6555 -0.2055 -0.5661
 4649TIP3    H235363   5.478   3.197  14.937  1.2531  0.5122  0.8922
 4650TIP3   OH235364   4.785   1.015   5.626 -0.4550 -0.6186  0.6603
 4650TIP3    H135365   4.819   0.952   5.690 -0.6388 -1.3809  0.0081
 4650TIP3    H235366   4.694   0.991   5.615 -1.2537  1.4236  2.4053
 4651TIP3   OH235367   4.509   1.507   4.047 -0.3182  0.5583 -0.1197
 4651TIP3    H135368   4.505   1.455   3.966 -2.1236 -1.1582  1.0210
 4651TIP3    H235369   4.493   1.597   4.019 -0.9047 -0.0155 -1.6959
 4652TIP3   OH235370   2.495   2.894  13.947 -0.2900 -0.0129 -0.4957
 4652TIP3    H135371   2.552   2.889  14.024 -0.2650  0.1400 -0.5034
 4652TIP3    H235372   2.485   2.803  13.918 -0.2176 -0.0598 -0.3726
 4653TIP3   OH235373   4.693   1.660  11.017 -0.2192  0.7078  0.0075
 4653TIP3    H135374   4.760   1.592  11.009 -0.6675  0.4268 -1.5847
 4653TIP3    H235375   4.676   1.687  10.927  0.2088  3.1901  0.6433
 4654TIP3   OH235376   0.306   6.194   2.290 -0.6708  0.1494  0.3739
 4654TIP3    H135377   0.333   6.284   2.273 -2.9071  0.5724 -1.1253
 4654TIP3    H235378   0.387   6.149   2.313  0.3439  2.7447  2.1142
 4655TIP3   OH235379   2.733   0.786  14.928 -0.1934  0.3228  0.5172
 4655TIP3    H135380   2.702   0.777  14.838 -0.8865 -1.2228  0.9005
 4655TIP3    H235381   2.787   0.709  14.943  1.0483  1.2680  0.9916
 4656TIP3   OH235382   3.585   2.940   2.203 -0.0006 -0.3345  0.3208
 4656TIP3    H135383   3.637   3.015   2.174 -0.8756  0.7480  1.4678
 4656TIP3    H235384   3.542   2.909   2.123 -1.1053  1.5955  0.1176
 4657TIP3   OH235385   2.980   5.351   4.352 -0.1524  0.9139  0.2833
 4657TIP3    H135386   3.046   5.312   4.410  0.0050 -1.4265 -1.4158
 4657TIP3    H235387   2.899   5.350   4.404 -0.0490 -1.3038  0.4547
 4658TIP3   OH235388   6.144   4.356  16.581  0.2376 -0.0281  0.2148
 4658TIP3    H135389   6.113   4.322  16.665  0.5061  0.8998  0.7034
 4658TIP3    H235390   6.079   4.421  16.556  1.5834  1.7287  1.1152
 4659TIP3   OH235391   1.426   1.325  11.364 -0.2409  0.4389 -0.8906
 4659TIP3    H135392   1.484   1.285  11.300  0.0002  0.9307 -0.9849
 4659TIP3    H235393   1.339   1.291  11.343  0.0829 -0.6555 -0.4530
 4660TIP3   OH235394   6.140   3.319  15.400 -0.5025 -0.6576  0.3742
 4660TIP3    H135395   6.098   3.364  15.473  0.4541  1.6917 -0.4848
 4660TIP3    H235396   6.078   3.249  15.377 -1.8115 -0.0877  2.0132
 4661TIP3   OH235397   2.342   6.724  11.011  0.3023 -0.1512  0.0249
 4661TIP3    H135398   2.273   6.787  11.027  3.4379  3.5143 -0.2303
 4661TIP3    H235399   2.327   6.694  10.922 -1.7427 -0.4843  0.4664
 4662TIP3   OH235400   6.120   1.669   0.431  0.0608 -0.5701 -0.1294
 4662TIP3    H135401   6.120   1.762   0.455 -0.8320 -0.4368 -0.6163
 4662TIP3    H235402   6.210   1.641   0.443  0.8173  0.9139 -2.0887
 4663TIP3   OH235403   4.812   5.146  12.302  0.1813  0.1271  0.5245
 4663TIP3    H135404   4.846   5.191  12.379  0.8222  0.1328  0.2423
 4663TIP3    H235405   4.719   5.132  12.321 -0.1124  1.8993  0.4591
 4664TIP3   OH235406   3.557   4.491  13.475 -0.3510 -0.6906  0.3799
 4664TIP3    H135407   3.622   4.439  13.523  1.1298  1.5567  0.9011
 4664TIP3    H235408   3.609   4.550  13.420 -1.9920 -0.2946 -0.7977
 4665TIP3   OH235409   1.407   2.367  11.805 -0.5116  0.8312  0.1710
 4665TIP3    H135410   1.459   2.336  11.732 -0.6529  0.4303  0.2393
 4665TIP3    H235411   1.319   2.380  11.768 -0.4099  1.3161  0.1018
 4666TIP3   OH235412   2.138   3.541   1.315 -0.3152  0.1396  0.0547
 4666TIP3    H135413   2.117   3.632   1.296  0.8785  0.5960  0.8553
 4666TIP3    H235414   2.183   3.544   1.399 -1.7383 -1.3642  0.9244
 4667TIP3   OH235415   3.594   5.881  15.202 -0.4413 -0.5158  0.1032
 4667TIP3    H135416   3.514   5.845  15.163 -0.6570 -1.4501  1.3600
 4667TIP3    H235417   3.563   5.950  15.261 -0.1883  0.2203 -0.6118
 4668TIP3   OH235418   4.029   3.959   3.009 -0.1182 -0.2997  0.0043
 4668TIP3    H135419   3.946   3.922   2.977  0.1446  0.3135 -1.3968
 4668TIP3    H235420   4.071   3.995   2.931 -0.1783  2.6038  1.2509
 4669TIP3   OH235421   0.017   1.623   6.132 -0.5811  0.2735 -0.3929
 4669TIP3    H135422  -0.072   1.655   6.121 -1.4244 -1.6667  0.5218
 4669TIP3    H235423   0.064   1.696   6.173 -2.4269  0.4087  1.5913
 4670TIP3   OH235424   0.288   1.495  12.418 -0.3896 -0.2268 -0.2602
 4670TIP3    H135425   0.217   1.527  12.472  0.1298  0.4455  0.0331
 4670TIP3    H235426   0.334   1.431  12.472 -0.3676 -0.1629 -0.2026
 4671TIP3   OH235427   0.434   4.423   4.451 -0.3583 -0.2781  0.0957
 4671TIP3    H135428   0.404   4.423   4.542 -1.9540  0.7211 -0.4073
 4671TIP3    H235429   0.490   4.501   4.444 -1.0877  0.2393 -0.0366
 4672TIP3   OH235430   6.007   1.964  13.222  0.1157 -0.3784 -0.5497
 4672TIP3    H135431   5.973   2.002  13.141 -1.5469  0.3194  0.4794
 4672TIP3    H235432   6.087   2.014  13.240 -0.7770  1.0356 -0.4886
 4673TIP3   OH235433   0.663   4.588   4.477 -0.0916  0.2137  0.3783
 4673TIP3    H135434   0.669   4.635   4.394  0.0462 -0.3184  0.0860
 4673TIP3    H235435   0.644   4.656   4.541 -0.2293  0.6258 -0.0931
 4674TIP3   OH235436   0.888   5.374   1.018  0.0936 -0.2900  0.5715
 4674TIP3    H135437   0.922   5.299   1.068  0.7805  0.3958  1.1341
 4674TIP3    H235438   0.953   5.387   0.948 -0.3437 -0.6025  0.1015
 4675TIP3   OH235439   4.753   1.984  11.801  0.0275  0.4283 -0.0474
 4675TIP3    H135440   4.798   2.054  11.754 -0.4095  2.9949  3.1483
 4675TIP3    H235441   4.672   1.970  11.752  0.6800  1.3141 -1.4102
 4676TIP3   OH235442   2.308   4.754  15.706  0.2576 -0.3553 -0.3757
 4676TIP3    H135443   2.305   4.848  15.687  0.3119  0.2849  2.5839
 4676TIP3    H235444   2.220   4.722  15.689 -0.1549  0.5371  0.1025
 4677TIP3   OH235445   3.004   1.614  13.102  0.6030  0.3749 -0.4787
 4677TIP3    H135446   3.058   1.680  13.145  0.5358 -0.3884  0.7928
 4677TIP3    H235447   3.062   1.539  13.091  0.1982  0.0455 -0.3907
 4678TIP3   OH235448   0.386   4.169  14.711  0.4187 -0.1318 -0.7822
 4678TIP3    H135449   0.314   4.231  14.719  0.6913  0.0309  0.5330
 4678TIP3    H235450   0.460   4.221  14.681  0.6296  0.1853  0.2578
 4679TIP3   OH235451   0.167   0.393   0.691  0.4356 -0.5992  0.0780
 4679TIP3    H135452   0.164   0.298   0.684 -1.0752 -0.6214  0.8514
 4679TIP3    H235453   0.078   0.418   0.717 -0.0238  1.2588 -2.9962
 4680TIP3   OH235454   1.911   1.039  13.854  0.5969 -0.6622  0.5247
 4680TIP3    H135455   1.938   0.956  13.814 -0.0446 -0.2071 -0.8939
 4680TIP3    H235456   1.851   1.014  13.923 -0.4651 -1.3460 -0.6254
 4681TIP3   OH235457   3.521   6.664   2.905 -0.2079  0.0858  0.6818
 4681TIP3    H135458   3.523   6.682   2.811 -2.0511  2.1343  0.9950
 4681TIP3    H235459   3.603   6.618   2.922 -0.2823 -1.1986 -2.0843
 4682TIP3   OH235460   2.078   3.009   0.906  0.4066 -0.0192  0.1040
 4682TIP3    H135461   2.001   3.039   0.857  1.4204 -0.0254 -1.5345
 4682TIP3    H235462   2.043   2.983   0.991 -1.4148 -0.0628 -0.6219
 4683TIP3   OH235463   0.224   1.588   1.879 -0.1318  0.5473  0.5007
 4683TIP3    H135464   0.309   1.579   1.923  0.5617  0.9103 -0.7615
 4683TIP3    H235465   0.171   1.517   1.915  0.2752  1.1105  2.2709
 4684TIP3   OH235466   3.143   3.714   5.248 -0.2950  0.0642  0.7552
 4684TIP3    H135467   3.076   3.755   5.195  1.4832 -0.1663 -1.7699
 4684TIP3    H235468   3.168   3.780   5.313  0.6281  2.0193 -1.5373
 4685TIP3   OH235469   0.710   4.149  14.282 -0.0204  0.6360  0.1298
 4685TIP3    H135470   0.646   4.079  14.276  0.0319  0.4884  1.2642
 4685TIP3    H235471   0.729   4.171  14.191 -1.5370  0.5657 -0.2169
 4686TIP3   OH235472   0.220   6.757  15.837  0.1077  0.0498  0.3347
 4686TIP3    H135473   0.253   6.757  15.927 -0.1907  0.9371  0.4470
 4686TIP3    H235474   0.233   6.846  15.807 -1.2185  0.1371  0.0129
 4687TIP3   OH235475   0.925   4.007   1.040  0.6353  0.1799  0.2621
 4687TIP3    H135476   0.865   4.020   0.966  1.2810 -0.4744 -0.3886
 4687TIP3    H235477   0.901   3.922   1.076  0.9930  0.0288  0.1534
 4688TIP3   OH235478   1.647   6.129   0.198 -0.7219  0.0245 -0.2443
 4688TIP3    H135479   1.575   6.066   0.190  0.4441 -1.1908 -1.5612
 4688TIP3    H235480   1.659   6.162   0.109  1.7700 -1.4276 -0.4907
 4689TIP3   OH235481   4.041   1.625   2.410 -0.3340 -0.2196 -0.6690
 4689TIP3    H135482   3.967   1.668   2.368 -1.5981 -0.1884  1.4841
 4689TIP3    H235483   4.053   1.544   2.361 -1.3488  0.1091 -1.4778
 4690TIP3   OH235484   2.804   4.265  16.973 -0.8333  0.2847 -0.4386
 4690TIP3    H135485   2.711   4.264  16.951 -1.6617 -2.0288  2.7692
 4690TIP3    H235486   2.810   4.324  17.049  0.1177 -0.3725  0.0111
 4691TIP3   OH235487   3.677   6.329   0.091  0.1318 -0.0120  0.6543
 4691TIP3    H135488   3.731   6.299   0.164  1.3318  1.3590  0.3505
 4691TIP3    H235489   3.628   6.403   0.127  0.1620  0.1869  0.2891
 4692TIP3   OH235490   0.176   0.450   1.003  0.0127 -0.0506 -0.4213
 4692TIP3    H135491   0.180   0.545   1.015 -0.2210  0.2812 -2.6614
 4692TIP3    H235492   0.092   0.435   0.960  0.3288 -1.2040 -0.6496
 4693TIP3   OH235493   3.665   0.410  17.106 -0.0689 -0.4680  0.1523
 4693TIP3    H135494   3.623   0.340  17.055  0.1949  0.3593 -1.2113
 4693TIP3    H235495   3.593   0.467  17.132 -0.0516 -0.2284 -0.3292
 4694TIP3   OH235496   2.200   6.600   2.939 -0.1791  0.4281 -0.3457
 4694TIP3    H135497   2.286   6.640   2.939 -0.5863  1.3142  0.2401
 4694TIP3    H235498   2.215   6.509   2.912  0.8550  0.7342 -0.8045
 4695TIP3   OH235499   1.564   3.631  10.952 -0.1349 -0.0312 -0.3919
 4695TIP3    H135500   1.568   3.678  11.036  1.5393  0.0063 -0.4671
 4695TIP3    H235501   1.612   3.549  10.969 -0.8080 -0.5507 -0.9881
 4696TIP3   OH235502   3.412   0.073   3.961  0.4030 -0.7132  0.0869
 4696TIP3    H135503   3.377  -0.010   3.930  1.5135 -1.1320 -0.0866
 4696TIP3    H235504   3.403   0.069   4.056 -1.1518 -0.2836 -0.0353
 4697TIP3   OH235505   1.757   1.580   1.913 -0.6394 -0.3016  0.2426
 4697TIP3    H135506   1.838   1.584   1.862 -0.3587  0.8736  0.7705
 4697TIP3    H235507   1.765   1.500   1.965 -0.5720 -1.0876 -0.9552
 4698TIP3   OH235508   5.283   5.423   1.216  0.1726  0.5006 -0.2756
 4698TIP3    H135509   5.336   5.358   1.262  1.0301  0.3819 -1.4372
 4698TIP3    H235510   5.345   5.475   1.166 -0.8402 -0.0435 -2.1540
 4699TIP3   OH235511   3.811   3.886   5.285 -0.3041  0.4481 -0.4596
 4699TIP3    H135512   3.811   3.796   5.317  0.4561  0.9202  0.9115
 4699TIP3    H235513   3.719   3.903   5.263 -0.6262 -0.3288  0.2288
 4700TIP3   OH235514   4.621   3.829   3.718  0.0348 -0.2771 -0.0953
 4700TIP3    H135515   4.665   3.800   3.638  2.2861 -1.2520  1.4253
 4700TIP3    H235516   4.567   3.755   3.745  0.9295 -0.7628  0.4036
 4701TIP3   OH235517   1.620   4.142   3.240 -0.0087  0.3867  0.1196
 4701TIP3    H135518   1.705   4.174   3.270  1.2287 -1.6816 -1.0931
 4701TIP3    H235519   1.568   4.221   3.227  1.9377  1.7186  0.2426
 4702TIP3   OH235520   1.397   0.573  12.496 -0.3706 -0.1717  0.2585
 4702TIP3    H135521   1.373   0.657  12.535  0.1327  0.1132 -0.0310
 4702TIP3    H235522   1.314   0.528  12.481 -0.5784 -0.2692  1.6074
 4703TIP3   OH235523   0.118   2.077   1.451 -0.0064  0.1727 -0.2113
 4703TIP3    H135524   0.149   2.167   1.460 -1.8702  0.7648  0.5582
 4703TIP3    H235525   0.023   2.085   1.446 -0.3031 -1.8416  1.4124
 4704TIP3   OH235526   0.588   3.381   5.517 -0.0517  0.3139  0.1080
 4704TIP3    H135527   0.677   3.402   5.547 -0.6187  0.7620  1.5138
 4704TIP3    H235528   0.573   3.291   5.547 -1.2588  1.3622  2.7124
 4705TIP3   OH235529   4.900   6.126  11.627 -0.2507 -0.2935  0.8010
 4705TIP3    H135530   4.833   6.060  11.647 -0.4285 -0.0231  1.0884
 4705TIP3    H235531   4.914   6.117  11.532 -0.0482 -0.9565  0.8906
 4706TIP3   OH235532   1.402   3.010  13.190 -0.3863 -0.7252  0.2303
 4706TIP3    H135533   1.445   2.993  13.106 -0.8076  2.6127 -0.7357
 4706TIP3    H235534   1.465   3.060  13.240 -0.5926 -1.6901  1.4853
 4707TIP3   OH235535   6.431   2.873  14.265  0.0875 -0.1071 -0.1777
 4707TIP3    H135536   6.380   2.944  14.302  0.4994 -0.1996  0.5705
 4707TIP3    H235537   6.520   2.908  14.257 -0.6435  1.1173 -4.3163
 4708TIP3   OH235538   3.884   6.111  14.028 -0.2903 -0.0978  0.4133
 4708TIP3    H135539   3.874   6.095  13.934  0.5037 -1.6101  0.5587
 4708TIP3    H235540   3.849   6.198  14.042 -1.0479 -0.1347 -1.1799
 4709TIP3   OH235541   2.488   5.418  13.576 -0.1857 -0.6425  0.1011
 4709TIP3    H135542   2.400   5.385  13.593 -0.0244 -0.5420  1.2017
 4709TIP3    H235543   2.529   5.420  13.663  0.8474 -0.5556 -0.3893
 4710TIP3   OH235544   1.409   5.406  16.981 -0.2734 -0.1519 -0.6157
 4710TIP3    H135545   1.482   5.440  17.033 -0.2111 -0.0537 -0.7676
 4710TIP3    H235546   1.349   5.480  16.974 -1.0128 -0.6230  0.6471
 4711TIP3   OH235547   4.103   6.728  13.698 -0.0945 -0.0268 -0.2991
 4711TIP3    H135548   4.198   6.744  13.692  0.2140  0.3697  3.9539
 4711TIP3    H235549   4.096   6.645  13.745 -1.8824 -0.4496 -1.2807
 4712TIP3   OH235550   4.731   4.329   4.976 -0.1607 -0.2236 -0.1122
 4712TIP3    H135551   4.810   4.382   4.988 -0.3971 -0.2540  1.6743
 4712TIP3    H235552   4.690   4.365   4.897  1.0888  0.4676 -0.4564
 4713TIP3   OH235553   4.721   0.828   2.260 -0.0841 -0.0205 -0.0276
 4713TIP3    H135554   4.810   0.802   2.236  0.2799  0.8096  0.4170
 4713TIP3    H235555   4.730   0.867   2.347 -1.0790 -1.0777  0.5571
 4714TIP3   OH235556   1.932   1.159   3.467 -0.1275 -0.4043 -0.0692
 4714TIP3    H135557   1.847   1.191   3.437  0.4432  0.5048 -0.7371
 4714TIP3    H235558   1.959   1.221   3.534  1.2339  0.8397 -1.7519
 4715TIP3   OH235559   3.246   5.707  13.619  0.7164  0.7549  0.1281
 4715TIP3    H135560   3.191   5.702  13.698  0.7740  0.3032  0.1441
 4715TIP3    H235561   3.281   5.618  13.609  0.2994  0.6787 -0.6974
 4716TIP3   OH235562   0.985   3.674   3.271 -0.0564  0.4271 -0.0965
 4716TIP3    H135563   0.956   3.760   3.240  0.0797  0.8558  0.9559
 4716TIP3    H235564   1.080   3.675   3.259 -0.0521  0.4300 -0.0619
 4717TIP3   OH235565   5.616   3.006  15.743 -0.1138 -0.0971  0.3467
 4717TIP3    H135566   5.708   3.021  15.719 -0.2919  0.0133 -0.2853
 4717TIP3    H235567   5.581   3.094  15.757 -0.2755 -0.1058  0.0049
 4718TIP3   OH235568   1.471   3.830  15.007 -0.0235 -0.3493  0.1334
 4718TIP3    H135569   1.443   3.920  14.994 -1.6282 -0.9443 -0.6737
 4718TIP3    H235570   1.552   3.822  14.955 -0.5520  0.2891 -0.8014
 4719TIP3   OH235571   3.642   3.889   0.514  0.1853 -0.1289  0.1960
 4719TIP3    H135572   3.613   3.980   0.520  0.7370  0.0426  0.2956
 4719TIP3    H235573   3.570   3.839   0.553 -0.2713  0.2307 -0.1690
 4720TIP3   OH235574   6.403   6.204  15.699 -0.0751  0.0850  0.2007
 4720TIP3    H135575   6.469   6.266  15.730 -2.3473  2.4291  0.5050
 4720TIP3    H235576   6.345   6.192  15.773 -0.3248 -1.5026 -0.2420
 4721TIP3   OH235577   1.817   3.278  13.379  0.1811  0.1365 -0.1884
 4721TIP3    H135578   1.812   3.204  13.318  1.1532 -0.8318  0.8711
 4721TIP3    H235579   1.726   3.296  13.402 -0.0643 -0.7136 -0.4796
 4722TIP3   OH235580   0.188   5.700  16.663  0.6079 -0.6222 -0.1953
 4722TIP3    H135581   0.171   5.610  16.691  2.8027 -1.3687 -1.1165
 4722TIP3    H235582   0.111   5.725  16.612  0.2939 -2.2362 -0.5332
 4723TIP3   OH235583   3.170   6.765  10.739 -0.1864  0.4491  0.6065
 4723TIP3    H135584   3.143   6.694  10.680 -1.1269  0.8317  0.5780
 4723TIP3    H235585   3.089   6.809  10.762  0.1256  0.0447  2.5487
 4724TIP3   OH235586   3.302   4.876  11.247 -0.5797 -0.2860  0.1700
 4724TIP3    H135587   3.311   4.918  11.162  0.0374 -1.7724 -0.5112
 4724TIP3    H235588   3.360   4.800  11.243 -1.0324 -0.7325  1.6795
 4725TIP3   OH235589   1.649   3.651  16.190  0.7751  0.0751  0.2055
 4725TIP3    H135590   1.736   3.611  16.185  0.2966 -1.1773  1.7558
 4725TIP3    H235591   1.659   3.719  16.257  0.3429 -0.6553  1.0183
 4726TIP3   OH235592   5.615   2.646   2.725 -0.3586  0.2498  0.3669
 4726TIP3    H135593   5.533   2.631   2.772 -0.2468  1.9579  1.1466
 4726TIP3    H235594   5.589   2.695   2.647  0.0960  2.2318  1.4418
 4727TIP3   OH235595   1.491   1.092   1.505  0.2828 -0.2366  1.0328
 4727TIP3    H135596   1.449   1.156   1.563 -0.7090 -0.9248  1.0776
 4727TIP3    H235597   1.574   1.073   1.548  0.3282  0.5817  1.3277
 4728TIP3   OH235598   3.000   3.453   0.387 -0.3361 -0.3076  0.5663
 4728TIP3    H135599   3.000   3.357   0.379 -1.2460 -0.2249 -0.5048
 4728TIP3    H235600   2.954   3.483   0.309 -0.4225  0.9929  1.1162
 4729TIP3   OH235601   2.684   3.558   2.745  0.0062  0.7171  1.0296
 4729TIP3    H135602   2.609   3.551   2.803 -1.1779  0.9427 -0.4543
 4729TIP3    H235603   2.758   3.529   2.798 -1.2089 -0.0648  2.3264
 4730TIP3   OH235604   2.197   1.163  15.875  0.2782  0.4352 -0.4317
 4730TIP3    H135605   2.288   1.186  15.858  0.4878  1.2336  1.5975
 4730TIP3    H235606   2.156   1.245  15.903 -0.5451 -0.3303  0.6506
 4731TIP3   OH235607   2.504   2.814   2.219 -0.1176  0.2498  0.2690
 4731TIP3    H135608   2.486   2.733   2.266  0.3296  0.4661  0.8208
 4731TIP3    H235609   2.533   2.875   2.287 -1.9478  1.3402  0.0989
 4732TIP3   OH235610   1.679   6.117   2.046 -0.0044  0.0880 -0.4048
 4732TIP3    H135611   1.613   6.179   2.076 -0.5865 -0.1070 -1.2581
 4732TIP3    H235612   1.753   6.172   2.021 -0.1874  0.3756 -0.3171
 4733TIP3   OH235613   2.797   2.639   4.334  0.1160 -0.2117  0.1274
 4733TIP3    H135614   2.774   2.567   4.276 -0.2986  1.1783 -1.4832
 4733TIP3    H235615   2.892   2.648   4.326  0.2831 -1.1393  1.0152
 4734TIP3   OH235616   6.408   3.564  14.508  0.1761  0.1723  0.1319
 4734TIP3    H135617   6.326   3.603  14.537  0.8842  1.3233  0.5966
 4734TIP3    H235618   6.465   3.568  14.584  1.3891  1.3851 -0.8141
 4735TIP3   OH235619   6.044   6.389  15.401 -0.2707 -0.1645 -0.6717
 4735TIP3    H135620   6.088   6.337  15.333 -0.4574 -0.5514 -0.4973
 4735TIP3    H235621   5.978   6.438  15.353 -0.1486 -0.1501 -0.8275
 4736TIP3   OH235622   2.490   5.141  14.575  0.5584  0.0762  0.3280
 4736TIP3    H135623   2.459   5.227  14.602 -0.1440 -0.1261  0.1641
 4736TIP3    H235624   2.436   5.079  14.624  0.6891 -0.2784  0.0273
 4737TIP3   OH235625   6.184   6.302   2.968  0.3539 -0.5112 -0.6719
 4737TIP3    H135626   6.252   6.338   3.025 -1.2330  0.5530  0.6021
 4737TIP3    H235627   6.163   6.372   2.907 -0.2112 -0.5282 -0.5009
 4738TIP3   OH235628   0.192   2.820   5.400  0.1676  0.2861  0.1715
 4738TIP3    H135629   0.242   2.773   5.332 -0.3455 -1.1673  0.7832
 4738TIP3    H235630   0.168   2.903   5.359 -0.4063 -0.7086 -1.5405
 4739TIP3   OH235631   4.738   4.788  13.303 -0.1593 -0.1074 -0.3286
 4739TIP3    H135632   4.820   4.747  13.329  0.5497  1.6263  0.2337
 4739TIP3    H235633   4.760   4.881  13.291 -2.3887  0.7136  1.5528
 4740TIP3   OH235634   6.037   3.506   2.171 -0.6419  0.2559 -0.3320
 4740TIP3    H135635   5.960   3.450   2.181 -1.7000  1.4636 -1.4167
 4740TIP3    H235636   6.086   3.466   2.099 -0.7219 -0.0118 -0.2399
 4741TIP3   OH235637   6.773   0.705   3.769  1.2411 -0.5085  1.0437
 4741TIP3    H135638   6.854   0.654   3.767  1.5668  0.0148  0.7740
 4741TIP3    H235639   6.796   0.789   3.729 -0.2234 -1.5179 -2.0800
 4742TIP3   OH235640   5.640   3.593   5.918  0.1102 -0.8931  0.6162
 4742TIP3    H135641   5.569   3.545   5.961 -0.1406 -0.5754  0.5597
 4742TIP3    H235642   5.687   3.635   5.990  0.3420 -1.2412  0.6674
 4743TIP3   OH235643   0.243   3.588   0.381  0.1662 -0.4588  0.4357
 4743TIP3    H135644   0.330   3.566   0.413 -0.6776 -0.6394  2.6499
 4743TIP3    H235645   0.255   3.672   0.337  1.2268  0.1177  1.7938
 4744TIP3   OH235646   1.091   0.130   5.071 -0.1279  0.4413 -0.1428
 4744TIP3    H135647   1.141   0.181   5.134  0.9687  1.3242 -1.7062
 4744TIP3    H235648   1.155   0.100   5.007 -1.4384  0.8279 -1.6818
 4745TIP3   OH235649   2.608   4.591   2.822  0.1288  0.1989  0.5288
 4745TIP3    H135650   2.598   4.503   2.787 -0.5957 -0.2897  1.9105
 4745TIP3    H235651   2.703   4.603   2.829  0.2769  0.1679 -1.1874
 4746TIP3   OH235652   1.156   4.865   2.223 -0.1159 -0.2738  0.3743
 4746TIP3    H135653   1.179   4.794   2.282 -0.1299 -0.6195 -0.0361
 4746TIP3    H235654   1.062   4.852   2.205  0.6142 -2.1830 -2.4201
 4747TIP3   OH235655   3.902   0.425  14.743  0.0461  0.2671 -0.0030
 4747TIP3    H135656   3.964   0.467  14.802  0.8756 -0.5680 -0.2636
 4747TIP3    H235657   3.943   0.431  14.657 -0.1394 -0.4460 -0.1508
 4748TIP3   OH235658   3.846   0.666   3.783  0.1002  0.1132  0.4872
 4748TIP3    H135659   3.816   0.723   3.854  3.0352  1.7611  0.4819
 4748TIP3    H235660   3.806   0.703   3.704  0.7613  1.2373  0.6798
 4749TIP3   OH235661   6.084   2.500   3.017 -0.3870 -0.1790  0.7455
 4749TIP3    H135662   6.108   2.498   2.924  0.8216  0.4833  1.0234
 4749TIP3    H235663   6.144   2.437   3.058 -1.0514 -0.6136  1.0458
 4750TIP3   OH235664   4.065   5.741   6.164  0.3284 -0.9345  0.6040
 4750TIP3    H135665   3.998   5.810   6.163  0.3551 -0.8876  1.3110
 4750TIP3    H235666   4.132   5.772   6.103  1.2668  0.6308  2.3659
 4751TIP3   OH235667   3.789   3.467   4.741 -0.6201 -0.3087  0.3686
 4751TIP3    H135668   3.874   3.505   4.719 -1.4297  0.5655 -1.3773
 4751TIP3    H235669   3.789   3.461   4.837  0.4031  2.0654  0.5481
 4752TIP3   OH235670   5.747   0.425   3.617  0.3679  0.2494  0.2534
 4752TIP3    H135671   5.660   0.392   3.591 -0.0909  0.4375  1.5166
 4752TIP3    H235672   5.806   0.352   3.600 -0.0525  0.0726 -0.4984
 4753TIP3   OH235673   4.662   4.244  15.153  0.1696 -0.8215  0.4211
 4753TIP3    H135674   4.596   4.314  15.148  0.0605 -0.9595 -0.2009
 4753TIP3    H235675   4.639   4.195  15.232 -0.2860 -0.6722  0.3851
 4754TIP3   OH235676   0.326   0.541  11.181  0.6973 -0.0213  0.0642
 4754TIP3    H135677   0.314   0.489  11.260 -0.1639  0.0131 -0.0358
 4754TIP3    H235678   0.248   0.523  11.128  0.1703  1.6910  0.2252
 4755TIP3   OH235679   1.640   5.850   3.194  0.3365  0.6598  0.0256
 4755TIP3    H135680   1.567   5.864   3.253  0.9857  3.1147  0.3127
 4755TIP3    H235681   1.602   5.857   3.106  0.1075  1.2593  0.1710
 4756TIP3   OH235682   4.570   2.406  15.607  0.1795  0.0528  0.4092
 4756TIP3    H135683   4.582   2.394  15.513  1.3679  1.4349  0.3513
 4756TIP3    H235684   4.530   2.325  15.638 -2.1128  0.3786 -1.6044
 4757TIP3   OH235685   2.943   3.059  10.547 -0.0536 -0.0984 -0.6003
 4757TIP3    H135686   3.026   3.029  10.511  0.7957  1.3094  0.1303
 4757TIP3    H235687   2.930   3.006  10.625  0.0679 -0.4444 -0.8148
 4758TIP3   OH235688   6.606   4.716   4.999 -0.1662  0.2849  0.3820
 4758TIP3    H135689   6.515   4.711   4.971 -0.5991 -1.1737  1.9240
 4758TIP3    H235690   6.657   4.707   4.919 -1.3853  0.7430 -0.4429
 4759TIP3   OH235691   3.465   4.496   2.036  0.4272  0.2105  0.0108
 4759TIP3    H135692   3.404   4.566   2.009 -0.7127 -0.4763  0.7562
 4759TIP3    H235693   3.521   4.482   1.959 -0.4492  0.7570 -0.7395
 4760TIP3   OH235694   0.887   2.719  13.799  0.1775  0.4977  0.0042
 4760TIP3    H135695   0.920   2.630  13.786  0.6650  0.6247  0.3491
 4760TIP3    H235696   0.915   2.767  13.720 -1.0284  0.0817 -0.6919
 4761TIP3   OH235697   2.468   0.446   1.516  0.4126  0.0075  0.3549
 4761TIP3    H135698   2.411   0.386   1.468  2.4575 -1.7781  0.0515
 4761TIP3    H235699   2.418   0.527   1.523 -1.7653 -1.2088 -0.6913
 4762TIP3   OH235700   6.507   2.460  16.735  0.1547 -0.2472  0.5981
 4762TIP3    H135701   6.588   2.419  16.766 -0.2421 -2.0246 -0.5924
 4762TIP3    H235702   6.519   2.466  16.640 -0.2639  1.4149  0.6435
 4763TIP3   OH235703   3.631   5.183  13.176  0.3303  0.8486 -0.2202
 4763TIP3    H135704   3.595   5.220  13.256 -0.1701 -1.4355  0.6432
 4763TIP3    H235705   3.562   5.195  13.111 -0.4558 -0.0216  0.4517
 4764TIP3   OH235706   1.949   5.363  10.688 -0.4450 -0.2023 -0.6340
 4764TIP3    H135707   2.025   5.411  10.656  1.4334 -1.0898  2.3311
 4764TIP3    H235708   1.877   5.427  10.684  0.9049  1.3055 -1.4214
 4765TIP3   OH235709   4.946   1.162   5.176 -0.0019  1.1763  0.0185
 4765TIP3    H135710   5.022   1.221   5.166 -0.2899  1.5029 -0.2579
 4765TIP3    H235711   4.957   1.097   5.107  0.4794  0.7260  0.5143
 4766TIP3   OH235712   3.167   3.633   3.860  0.6194  0.2186  0.5139
 4766TIP3    H135713   3.226   3.636   3.785  0.8485  0.1811  0.6920
 4766TIP3    H235714   3.223   3.608   3.934  0.4817  0.6832  0.7796
 4767TIP3   OH235715   6.384   2.800  14.004  0.5191  0.4450 -0.0414
 4767TIP3    H135716   6.384   2.811  14.099  0.0665  0.2651 -0.0191
 4767TIP3    H235717   6.370   2.888  13.970  1.1688  0.5806  0.0478
 4768TIP3   OH235718   5.545   3.686   0.564 -0.1996  0.2542 -0.0746
 4768TIP3    H135719   5.629   3.644   0.545 -0.4910  0.0372 -0.9194
 4768TIP3    H235720   5.547   3.769   0.516  0.5835  1.4720  2.0117
 4769TIP3   OH235721   0.984   6.265  12.291 -0.4629  0.8594  0.3214
 4769TIP3    H135722   1.066   6.294  12.251  0.3194  0.8325  1.8638
 4769TIP3    H235723   0.951   6.342  12.337 -1.2742  0.8516 -0.2361
 4770TIP3   OH235724   5.760   3.462   3.596  0.3585 -0.9352  0.1473
 4770TIP3    H135725   5.691   3.445   3.532 -0.2780 -0.7987  0.7808
 4770TIP3    H235726   5.713   3.498   3.672  1.3266  0.8276 -0.0683
 4771TIP3   OH235727   5.519   2.521   2.023 -0.1912 -0.4644 -0.8032
 4771TIP3    H135728   5.427   2.494   2.019 -0.4748  0.1627  1.2272
 4771TIP3    H235729   5.517   2.615   2.003 -0.3486  0.1936  2.1329
 4772TIP3   OH235730   3.237   2.619   1.893 -0.4416  0.6391  0.2593
 4772TIP3    H135731   3.319   2.604   1.939  0.3362  1.4208 -0.8347
 4772TIP3    H235732   3.173   2.637   1.962  0.5214  0.9782  1.0699
 4773TIP3   OH235733   1.912   5.455   4.886  0.1539 -0.1553  0.4041
 4773TIP3    H135734   1.944   5.425   4.971  2.1951 -2.7883 -1.2066
 4773TIP3    H235735   1.916   5.550   4.891  3.1190 -0.3137  2.2165
 4774TIP3   OH235736   4.417   2.396  12.164 -0.3848 -0.1233 -0.2099
 4774TIP3    H135737   4.455   2.336  12.228  1.0590  0.3517 -0.5834
 4774TIP3    H235738   4.399   2.342  12.087  2.7993  0.2340 -1.2874
 4775TIP3   OH235739   0.599   1.473  15.779 -0.5497  0.0017 -0.1333
 4775TIP3    H135740   0.678   1.419  15.783 -0.6757 -0.2537 -1.0642
 4775TIP3    H235741   0.527   1.410  15.773 -0.6976  0.2659 -1.2217
 4776TIP3   OH235742   5.551   5.923  16.929 -0.1671 -0.6783 -0.0737
 4776TIP3    H135743   5.554   5.860  17.001 -1.9994 -1.1138 -0.3502
 4776TIP3    H235744   5.636   5.967  16.932 -0.8072  0.5293  3.4640
 4777TIP3   OH235745   1.510   6.367   6.254  0.0575 -0.0220  0.1379
 4777TIP3    H135746   1.569   6.316   6.309  0.1007  0.8098  0.8674
 4777TIP3    H235747   1.425   6.361   6.297 -0.8428 -2.6588 -1.8187
 4778TIP3   OH235748   4.808   6.681   4.387  0.2860  0.1455 -0.8290
 4778TIP3    H135749   4.830   6.760   4.339  0.9323  1.0622  0.9121
 4778TIP3    H235750   4.819   6.705   4.479 -2.6847 -1.0097 -0.1068
 4779TIP3   OH235751   4.684   0.770  16.210 -0.3056  0.1729  0.0975
 4779TIP3    H135752   4.687   0.865  16.221  1.6278  0.2631 -0.9002
 4779TIP3    H235753   4.610   0.742  16.263  0.3527  2.0108  2.0713
 4780TIP3   OH235754   2.476   5.712   3.761  0.1780 -0.0766 -0.1128
 4780TIP3    H135755   2.495   5.785   3.702 -2.1377  1.2181  0.6951
 4780TIP3    H235756   2.529   5.639   3.728  0.3976  1.1855 -2.5920
 4781TIP3   OH235757   0.909   0.441  12.519  0.1786  0.5647  0.3832
 4781TIP3    H135758   0.861   0.359  12.524 -1.0553  1.3304  1.1573
 4781TIP3    H235759   0.912   0.473  12.609  1.3650  0.9739  0.2136
 4782TIP3   OH235760   4.121   3.732  14.664 -0.6676 -0.0294 -0.7807
 4782TIP3    H135761   4.129   3.652  14.612 -2.3239 -0.4568 -0.3879
 4782TIP3    H235762   4.134   3.802  14.601 -1.0976 -0.5727 -1.4805
 4783TIP3   OH235763   1.857   3.580  13.527  0.9263  0.0283  0.6774
 4783TIP3    H135764   1.843   3.493  13.490 -0.0556  0.4645  0.0116
 4783TIP3    H235765   1.947   3.578  13.560  1.9563 -0.2353 -2.0698
 4784TIP3   OH235766   6.489   4.401  14.602 -0.4354 -0.4005 -0.2279
 4784TIP3    H135767   6.562   4.437  14.552 -0.0256 -2.3536 -1.0567
 4784TIP3    H235768   6.411   4.426  14.551 -0.0729 -1.7124 -1.4458
 4785TIP3   OH235769   4.103   1.674  12.280 -0.2311  0.3195  0.4119
 4785TIP3    H135770   4.115   1.765  12.304 -0.3221  0.0416  1.5356
 4785TIP3    H235771   4.129   1.625  12.358  0.2384 -0.6300 -0.3268
 4786TIP3   OH235772   6.477   6.210  13.169  0.0305  0.2194 -0.8434
 4786TIP3    H135773   6.431   6.294  13.174  0.9480  0.6529  0.5266
 4786TIP3    H235774   6.413   6.147  13.202  0.2646  0.7739  0.7099
 4787TIP3   OH235775   2.755   0.642  16.542  0.6018  0.0553  0.6666
 4787TIP3    H135776   2.742   0.728  16.502  0.1607 -0.2162  0.2296
 4787TIP3    H235777   2.769   0.583  16.468  0.4748 -0.3239  0.9438
 4788TIP3   OH235778   1.076   4.462  11.545 -0.1466  0.1688 -0.6011
 4788TIP3    H135779   1.067   4.415  11.629  1.5525 -1.2870 -1.2160
 4788TIP3    H235780   1.075   4.554  11.570 -0.8623 -0.2173  0.9092
 4789TIP3   OH235781   2.813   1.120  16.033 -0.1060 -0.6921  0.1415
 4789TIP3    H135782   2.807   1.214  16.048  1.0905  0.3243 -4.8773
 4789TIP3    H235783   2.895   1.095  16.076 -0.6641  0.4065  1.9176
 4790TIP3   OH235784   6.220   6.089   5.668 -0.6808  0.1968 -0.3177
 4790TIP3    H135785   6.281   6.132   5.729 -1.3550 -0.7687  1.0745
 4790TIP3    H235786   6.242   5.996   5.674  0.9493  0.3301 -3.5165
 4791TIP3   OH235787   3.825   2.826   1.532 -0.4623 -0.4458 -0.3358
 4791TIP3    H135788   3.812   2.741   1.575  0.2314 -0.2342  0.3168
 4791TIP3    H235789   3.916   2.824   1.502  0.2694  0.9307  1.6773
 4792TIP3   OH235790   5.199   1.633  15.087  0.1019 -0.0312 -0.4452
 4792TIP3    H135791   5.295   1.639  15.084  0.2006 -1.6755 -1.5405
 4792TIP3    H235792   5.171   1.714  15.128  2.1647 -0.9576  3.0447
 4793TIP3   OH235793   1.890   2.487  13.474 -0.3935  0.1952 -0.1591
 4793TIP3    H135794   1.828   2.422  13.508  0.0875 -1.1836 -1.8111
 4793TIP3    H235795   1.907   2.545  13.548 -1.2308 -1.2699  1.2224
 4794TIP3   OH235796   5.192   2.003   1.958 -0.2634  0.2540  0.2214
 4794TIP3    H135797   5.126   2.003   2.028  0.0574 -0.7607  0.5302
 4794TIP3    H235798   5.248   1.928   1.978  0.6395  0.7635 -0.3700
 4795TIP3   OH235799   2.501   5.534   3.382 -0.0225 -0.4015 -0.0366
 4795TIP3    H135800   2.420   5.585   3.390  0.8934  0.8433  1.6649
 4795TIP3    H235801   2.552   5.580   3.316  0.8321  0.9877  1.5457
 4796TIP3   OH235802   3.795   6.422   4.380 -0.2672 -0.0669 -0.1835
 4796TIP3    H135803   3.792   6.517   4.380  0.7812 -0.0195  0.3525
 4796TIP3    H235804   3.808   6.398   4.289 -3.1491  0.1743 -0.7052
 4797TIP3   OH235805   3.281   6.711  13.164  0.4990  0.4038  0.3572
 4797TIP3    H135806   3.275   6.752  13.078  1.0078  1.3616  0.7582
 4797TIP3    H235807   3.330   6.630  13.149 -0.5437 -0.0766 -0.4614
 4798TIP3   OH235808   3.935   2.694   3.418 -0.3818 -0.0349  1.0843
 4798TIP3    H135809   3.934   2.648   3.334 -1.7262  1.6192  0.1736
 4798TIP3    H235810   4.028   2.708   3.437 -0.0993  0.2655 -0.4922
 4799TIP3   OH235811   3.208   3.992  12.329 -0.4357 -0.1418  0.3201
 4799TIP3    H135812   3.226   3.943  12.410  0.4544 -1.8913 -0.8921
 4799TIP3    H235813   3.120   4.026  12.340  0.2721  1.0444  2.7097
 4800TIP3   OH235814   4.178   4.145  16.044 -0.0796  0.4860  0.0776
 4800TIP3    H135815   4.161   4.220  16.100 -3.2922 -0.7683  0.8780
 4800TIP3    H235816   4.207   4.183  15.961 -1.4292  2.6113  0.5436
 4801TIP3   OH235817   4.592   5.428  14.791  0.2136 -0.2084 -0.0186
 4801TIP3    H135818   4.533   5.355  14.811  1.6398 -0.8081  2.1012
 4801TIP3    H235819   4.540   5.506  14.805  0.5142 -0.6529  4.1443
 4802TIP3   OH235820   0.037   3.601  11.597  0.1179  0.5294 -0.2850
 4802TIP3    H135821   0.111   3.541  11.607 -0.9485 -0.8894 -0.6317
 4802TIP3    H235822   0.066   3.665  11.532  0.7944 -0.4474 -0.9673
 4803TIP3   OH235823   4.280   1.352  11.328 -0.1806 -0.0042 -0.6070
 4803TIP3    H135824   4.358   1.303  11.351 -0.5176 -0.3575 -0.2262
 4803TIP3    H235825   4.308   1.444  11.329 -0.3024  0.0357  1.6733
 4804TIP3   OH235826   6.622   1.289  12.245 -0.2964 -0.6296 -0.8595
 4804TIP3    H135827   6.668   1.282  12.161  0.3445  0.6072 -0.6240
 4804TIP3    H235828   6.614   1.199  12.276  0.6821 -0.9731 -1.5886
 4805TIP3   OH235829   4.617   0.916   1.751 -0.2600 -0.2169 -0.0678
 4805TIP3    H135830   4.689   0.902   1.690  0.2943 -0.3997  0.6284
 4805TIP3    H235831   4.644   0.873   1.832 -0.9428  0.1214  0.3508
 4806TIP3   OH235832   6.599   3.894   4.570  0.5548  0.4390  0.2354
 4806TIP3    H135833   6.650   3.941   4.504 -0.5784 -1.1744 -1.8106
 4806TIP3    H235834   6.581   3.809   4.531  0.0822 -0.6553  2.7325
 4807TIP3   OH235835   1.300   5.408  14.072 -0.2189 -0.1347  0.4626
 4807TIP3    H135836   1.336   5.492  14.044  2.1118 -2.1298 -2.8565
 4807TIP3    H235837   1.306   5.410  14.168 -0.7361  3.6554  0.4756
 4808TIP3   OH235838   5.799   0.718  12.214 -0.6372  0.0165  0.4466
 4808TIP3    H135839   5.747   0.721  12.134  1.3114  1.3315 -0.8241
 4808TIP3    H235840   5.806   0.625  12.235 -0.6404 -0.3987 -1.2801
 4809TIP3   OH235841   0.376   0.597  16.268 -0.5932 -0.2189 -0.2494
 4809TIP3    H135842   0.439   0.596  16.341 -1.2694  0.8393  0.3509
 4809TIP3    H235843   0.422   0.553  16.197  1.0516  1.0184  0.0133
 4810TIP3   OH235844   5.614   5.537   3.716 -0.1649  0.2526  0.1742
 4810TIP3    H135845   5.545   5.472   3.729  0.1230 -0.0671  0.1410
 4810TIP3    H235846   5.583   5.592   3.645 -0.6062  0.4157  0.4991
 4811TIP3   OH235847   5.510   1.966  15.726  0.6120  0.1199  0.1930
 4811TIP3    H135848   5.604   1.974  15.742  0.9037  0.9518 -1.8204
 4811TIP3    H235849   5.470   2.026  15.789  1.5992  1.6142 -0.5672
 4812TIP3   OH235850   2.545   4.955  16.288 -0.0703  0.2257  0.5844
 4812TIP3    H135851   2.573   4.980  16.200 -0.4431 -2.9330 -0.4901
 4812TIP3    H235852   2.620   4.911  16.326 -1.0227 -1.4266  0.5759
 4813TIP3   OH235853   4.365   3.083  14.540  0.4034  0.3791 -0.4855
 4813TIP3    H135854   4.273   3.059  14.526  0.4818 -0.0229 -0.3227
 4813TIP3    H235855   4.402   3.009  14.589  0.9649  0.2661 -1.0643
 4814TIP3   OH235856   4.400   5.259   2.907 -0.3795 -0.1153  0.8738
 4814TIP3    H135857   4.317   5.296   2.938 -0.3261 -0.0378  0.9226
 4814TIP3    H235858   4.405   5.288   2.815  0.0737  0.7197  1.1550
 4815TIP3   OH235859   3.032   5.558  11.936  0.4358 -0.2097  0.4825
 4815TIP3    H135860   3.015   5.491  11.869 -1.2691  1.6618 -1.0206
 4815TIP3    H235861   2.988   5.525  12.014 -1.0544 -0.5055 -0.4600
 4816TIP3   OH235862   0.325   1.922   2.305  0.3290 -0.1143  0.0304
 4816TIP3    H135863   0.377   1.952   2.230 -0.4240 -1.8862 -1.2551
 4816TIP3    H235864   0.349   1.830   2.315  0.1759  0.0161  1.7919
 4817TIP3   OH235865   1.710   1.509   3.066 -0.2810  0.2824 -0.7843
 4817TIP3    H135866   1.804   1.528   3.071 -0.6240  1.7182  1.0416
 4817TIP3    H235867   1.690   1.512   2.973  1.6372 -0.8795 -1.2656
 4818TIP3   OH235868   3.943   4.660   3.516  0.3521  0.0699 -0.5429
 4818TIP3    H135869   3.884   4.730   3.489 -0.8129 -0.3266  0.9016
 4818TIP3    H235870   4.012   4.704   3.566 -0.8067  0.1238  1.0440
 4819TIP3   OH235871   6.080   6.424   0.060  0.1670 -0.5425 -0.2448
 4819TIP3    H135872   6.066   6.350   0.120  2.5670 -0.8273  0.0137
 4819TIP3    H235873   5.995   6.438   0.020 -1.2920 -0.9432  2.5457
 4820TIP3   OH235874   6.467   5.940  16.167  0.3104  0.0876 -0.4467
 4820TIP3    H135875   6.449   5.946  16.073  0.8032  1.0461 -0.4825
 4820TIP3    H235876   6.563   5.942  16.173  0.2515  3.2593  0.2722
 4821TIP3   OH235877   5.100   2.819   3.702  0.5698  0.1878  0.2965
 4821TIP3    H135878   5.193   2.811   3.680  0.1142 -0.4457 -1.4919
 4821TIP3    H235879   5.067   2.887   3.643 -0.4499 -0.7645 -0.2504
 4822TIP3   OH235880   0.147   2.233   6.382  0.1090  0.2186 -0.4573
 4822TIP3    H135881   0.214   2.171   6.353  0.5485  1.1758 -1.5015
 4822TIP3    H235882   0.064   2.192   6.356  0.2315 -1.2061  1.2823
 4823TIP3   OH235883   0.083   0.216  11.731  0.5907 -0.1776 -0.2259
 4823TIP3    H135884  -0.012   0.211  11.733  0.4080  2.5601  0.4232
 4823TIP3    H235885   0.106   0.210  11.638 -0.3646  1.0331 -0.5468
 4824TIP3   OH235886   5.277   4.442   2.286 -0.6357 -0.1643 -0.9518
 4824TIP3    H135887   5.271   4.397   2.370  0.3246  0.0013 -0.7885
 4824TIP3    H235888   5.230   4.385   2.224 -0.0879 -0.9988 -0.5962
 4825TIP3   OH235889   2.322   1.836  12.523  0.3440  0.1247  0.1614
 4825TIP3    H135890   2.392   1.883  12.569  0.3336 -1.2799  1.6909
 4825TIP3    H235891   2.318   1.875  12.436  0.7284  2.5171  1.2054
 4826TIP3   OH235892   5.041   5.211  13.590  0.3261  0.2928 -0.1391
 4826TIP3    H135893   4.954   5.182  13.565 -0.2858  1.4504  0.6130
 4826TIP3    H235894   5.040   5.306  13.579  1.8882  0.1975 -1.3245
 4827TIP3   OH235895   2.226   6.137  14.721 -0.3234  0.0362  0.2962
 4827TIP3    H135896   2.162   6.078  14.761 -1.8692  0.6802 -1.1796
 4827TIP3    H235897   2.259   6.190  14.794 -2.9366  1.0426  0.7743
 4828TIP3   OH235898   5.245   4.990   5.556  0.3353  0.0356  0.8262
 4828TIP3    H135899   5.279   5.026   5.474 -1.3059 -0.6544 -0.2061
 4828TIP3    H235900   5.238   4.896   5.539 -0.1936 -0.0855  1.6972
 4829TIP3   OH235901   2.918   2.682   2.596  0.1262  0.4509  0.2265
 4829TIP3    H135902   2.831   2.647   2.578  0.5108  0.2494 -1.3710
 4829TIP3    H235903   2.939   2.653   2.684 -0.7367 -0.9280 -0.0164
 4830TIP3   OH235904   5.005   0.706   5.612  0.5030 -0.7387  0.4001
 4830TIP3    H135905   5.038   0.788   5.649  0.8894 -0.5683 -0.3064
 4830TIP3    H235906   5.056   0.638   5.656  1.7742 -0.4812 -0.6184
 4831TIP3   OH235907   1.422   5.788  11.604  0.4504 -0.2163 -0.2357
 4831TIP3    H135908   1.405   5.711  11.659  0.0385 -0.5882 -0.8844
 4831TIP3    H235909   1.490   5.759  11.543  2.5053  0.8399  1.4498
 4832TIP3   OH235910   3.753   0.138  12.086 -0.1120 -0.2280  0.4194
 4832TIP3    H135911   3.791   0.152  12.173  1.8904 -2.6498  0.0036
 4832TIP3    H235912   3.810   0.187  12.027  0.9993 -1.8881  0.0653
 4833TIP3   OH235913   0.833   1.309   6.531  0.4889  0.2744 -0.2556
 4833TIP3    H135914   0.830   1.375   6.461  2.2352 -0.3213 -0.9155
 4833TIP3    H235915   0.901   1.341   6.590 -1.8110  1.4082  1.8563
 4834TIP3   OH235916   6.747   0.525   5.072 -0.0483  1.2237  0.2015
 4834TIP3    H135917   6.807   0.598   5.090  1.6140 -0.1792  0.5347
 4834TIP3    H235918   6.794   0.470   5.009 -0.5843 -0.3777  1.1555
 4835TIP3   OH235919   2.869   0.584  15.065 -0.1450 -0.2144  0.5516
 4835TIP3    H135920   2.950   0.626  15.036 -1.1019  0.9176 -0.5242
 4835TIP3    H235921   2.897   0.520  15.130  1.5593  0.5813  0.6181
 4836TIP3   OH235922   5.705   1.621   0.577  0.6758  0.0398  0.4451
 4836TIP3    H135923   5.654   1.551   0.537 -1.5412 -0.7002  4.2679
 4836TIP3    H235924   5.791   1.583   0.593  0.8768 -0.3434 -1.5319
 4837TIP3   OH235925   2.617   3.530  14.001 -0.4087  0.2149 -0.4096
 4837TIP3    H135926   2.666   3.516  13.920  0.8336 -0.8539  0.5335
 4837TIP3    H235927   2.541   3.473  13.993 -0.2097 -0.0023 -0.7507
 4838TIP3   OH235928   1.595   6.607  15.443 -0.1769 -0.1500  1.0288
 4838TIP3    H135929   1.605   6.512  15.442 -0.1817 -0.1519 -0.5593
 4838TIP3    H235930   1.502   6.622  15.457 -0.5353 -0.4307 -0.9273
 4839TIP3   OH235931   5.921   4.757   4.060 -0.2402  0.0994 -0.2762
 4839TIP3    H135932   5.956   4.683   4.011  0.4147  0.5040 -0.4234
 4839TIP3    H235933   5.850   4.791   4.006 -0.1817 -0.0744 -0.4624
 4840TIP3   OH235934   4.428   2.004  12.866 -0.3705 -0.4805  0.2884
 4840TIP3    H135935   4.337   1.977  12.860 -0.1356 -1.0169 -1.1726
 4840TIP3    H235936   4.451   2.031  12.777  0.8580 -0.2184  0.6650
 4841TIP3   OH235937   3.651   5.214   6.876  0.3224 -0.0387  0.2080
 4841TIP3    H135938   3.745   5.210   6.855  0.4150 -1.5259  0.8669
 4841TIP3    H235939   3.638   5.303   6.910  1.3498  0.4157 -0.5517
 4842TIP3   OH235940   6.776   1.178   2.414  0.1925 -0.1578 -0.5571
 4842TIP3    H135941   6.800   1.165   2.506 -0.5729 -2.1765 -0.6150
 4842TIP3    H235942   6.842   1.238   2.380  0.3751  0.7821  1.3557
 4843TIP3   OH235943   1.620   4.323  15.066 -0.3615  0.2133 -0.4998
 4843TIP3    H135944   1.557   4.372  15.014  0.9070  0.6312 -1.6866
 4843TIP3    H235945   1.695   4.312  15.007 -0.1992 -2.1894  0.1356
 4844TIP3   OH235946   4.248   3.351  13.539 -0.1584  0.1635  0.2858
 4844TIP3    H135947   4.186   3.424  13.535 -1.7089 -1.1266 -0.0007
 4844TIP3    H235948   4.283   3.344  13.450 -0.2068  0.3961  0.2499
 4845TIP3   OH235949   1.938   4.666  14.401  0.4731 -0.2080 -0.2414
 4845TIP3    H135950   1.925   4.731  14.332 -1.9428 -0.4680 -0.0774
 4845TIP3    H235951   2.027   4.681  14.432  0.5172  1.9263 -1.3167
 4846TIP3   OH235952   3.468   5.192   3.355  0.4725 -0.0676  0.2062
 4846TIP3    H135953   3.391   5.136   3.355  1.6057 -1.6450  1.1046
 4846TIP3    H235954   3.530   5.149   3.297  0.8261  1.0062 -0.2349
 4847TIP3   OH235955   0.151   4.209   0.699  0.3366 -0.0049 -0.7046
 4847TIP3    H135956   0.069   4.257   0.685 -0.2813 -1.2828 -1.5959
 4847TIP3    H235957   0.150   4.186   0.792  0.2976  1.0813 -0.4310
 4848TIP3   OH235958   3.915   3.284   0.954  0.2938  0.1244 -0.0841
 4848TIP3    H135959   3.958   3.343   0.891 -0.0348  0.0313 -0.3995
 4848TIP3    H235960   3.945   3.315   1.040  1.5125 -0.3627 -0.3234
 4849TIP3   OH235961   4.798   2.750   5.023  0.2960 -0.0916 -0.1566
 4849TIP3    H135962   4.802   2.841   5.052 -1.0553  0.1664 -0.7092
 4849TIP3    H235963   4.842   2.701   5.092  0.6190  0.9340  0.3831
 4850TIP3   OH235964   3.546   1.402   2.971  0.6263  0.4401 -0.2968
 4850TIP3    H135965   3.578   1.491   2.954 -1.0119  1.3978  1.4833
 4850TIP3    H235966   3.569   1.386   3.063 -0.3151 -0.4501 -0.2150
 4851TIP3   OH235967   2.568   1.406   3.176 -0.4558 -0.2008  0.8874
 4851TIP3    H135968   2.584   1.398   3.082 -0.0545 -3.0189  1.1724
 4851TIP3    H235969   2.654   1.396   3.216 -0.5721  1.3102  1.5831
 4852TIP3   OH235970   4.071   0.889   2.859  0.3319  0.0444 -0.4654
 4852TIP3    H135971   3.995   0.852   2.813 -0.9283  2.3617 -0.3545
 4852TIP3    H235972   4.071   0.845   2.944 -0.7359 -0.1760 -0.5637
 4853TIP3   OH235973   2.580   0.553   2.009  0.4406  0.0998 -0.0843
 4853TIP3    H135974   2.645   0.606   1.963  0.1979 -1.2686 -2.0614
 4853TIP3    H235975   2.497   0.574   1.967  0.1150 -0.7169  0.1348
 4854TIP3   OH235976   5.201   1.884   1.648 -0.5892  0.0876 -0.0854
 4854TIP3    H135977   5.182   1.835   1.728 -1.9869  0.8796  0.0943
 4854TIP3    H235978   5.157   1.835   1.579  0.1177 -0.2735 -0.2782
 4855TIP3   OH235979   3.989   2.983  13.388 -0.2425  0.4764  0.3168
 4855TIP3    H135980   3.951   2.943  13.310  0.7380  0.4975 -0.1742
 4855TIP3    H235981   3.927   3.051  13.413 -0.8511  0.0729 -0.0975
 4856TIP3   OH235982   3.477   5.629  15.580 -0.7063 -0.1060  0.5929
 4856TIP3    H135983   3.447   5.566  15.514 -0.5962 -0.5858  0.9959
 4856TIP3    H235984   3.403   5.639  15.640 -0.8336  0.3878  0.3507
 4857TIP3   OH235985   3.753   2.729   0.304 -0.4231 -0.4231  0.0419
 4857TIP3    H135986   3.787   2.759   0.220  2.4055 -1.4835  0.7590
 4857TIP3    H235987   3.689   2.662   0.281 -2.3872  1.8144 -1.3396
 4858TIP3   OH235988   6.462   2.936   3.277  0.2148  0.1693  0.2237
 4858TIP3    H135989   6.481   2.889   3.196 -1.6076 -0.5072  0.1622
 4858TIP3    H235990   6.530   2.907   3.338  0.1168 -1.2623 -0.3238
 4859TIP3   OH235991   0.558   5.550  12.076 -0.2741  0.1557  0.5181
 4859TIP3    H135992   0.520   5.505  12.151 -2.2586  2.1104  0.7406
 4859TIP3    H235993   0.533   5.642  12.088  0.7448  0.7581 -1.6950
 4860TIP3   OH235994   1.752   2.127   2.766  0.1835 -0.1632 -0.3235
 4860TIP3    H135995   1.768   2.196   2.703 -1.4153 -0.0949 -0.6823
 4860TIP3    H235996   1.697   2.064   2.719 -0.4966 -0.4179  0.7859
 4861TIP3   OH235997   2.354   2.075   4.064  0.4528  0.4185 -0.0381
 4861TIP3    H135998   2.334   2.150   4.007 -2.0406 -0.0849  0.1039
 4861TIP3    H235999   2.428   2.032   4.022  1.0875  2.2355 -0.8349
 4862TIP3   OH236000   3.776   5.974  12.424  0.2152  0.0316  0.0180
 4862TIP3    H136001   3.767   5.888  12.464  0.7191 -0.0674 -0.0703
 4862TIP3    H236002   3.687   6.002  12.405 -0.0945  0.4880  2.0568
 4863TIP3   OH236003   5.720   2.444   2.346 -0.6079  0.4122 -0.4402
 4863TIP3    H136004   5.686   2.355   2.338 -1.9058  0.8983 -0.4861
 4863TIP3    H236005   5.720   2.462   2.440  2.8604 -0.8250 -0.1336
 4864TIP3   OH236006   4.954   6.253   4.074 -0.0464  0.0149 -0.5026
 4864TIP3    H136007   4.990   6.224   3.990 -0.4814 -1.7622 -0.0965
 4864TIP3    H236008   5.013   6.323   4.102  0.8366 -0.2310 -1.6805
 4865TIP3   OH236009   0.152   1.847   0.027  0.1693  0.0845  0.0637
 4865TIP3    H136010   0.071   1.804  -0.002  0.5501 -0.5043 -0.1427
 4865TIP3    H236011   0.172   1.910  -0.042 -1.5354  2.1328  1.3624
 4866TIP3   OH236012   5.501   1.428  12.756  0.4508 -0.0179 -0.2816
 4866TIP3    H136013   5.538   1.405  12.842 -1.5002  1.7048  1.0786
 4866TIP3    H236014   5.527   1.519  12.743 -0.0820  0.0232 -1.0575
 4867TIP3   OH236015   0.310   1.043   3.520  0.2572  0.2561  0.0030
 4867TIP3    H136016   0.239   1.094   3.482  1.3419  1.4344 -0.4549
 4867TIP3    H236017   0.343   0.989   3.449 -0.5111 -0.6822  0.3458
 4868TIP3   OH236018   4.051   3.079   1.934 -0.4523 -0.3742  0.5220
 4868TIP3    H136019   3.972   3.108   1.889  0.4376  1.5878  0.1576
 4868TIP3    H236020   4.032   3.091   2.027 -0.7182 -0.2587  0.4513
 4869TIP3   OH236021   5.277   4.557  15.128 -0.1956 -0.2020 -0.0363
 4869TIP3    H136022   5.183   4.564  15.109 -0.4340  0.0193  1.1185
 4869TIP3    H236023   5.304   4.474  15.089 -1.0016 -0.5306  0.0899
 4870TIP3   OH236024   4.078   3.683   4.051 -0.1996 -1.0201 -0.0046
 4870TIP3    H136025   4.036   3.725   3.977 -0.1751 -1.9979 -0.5820
 4870TIP3    H236026   4.141   3.748   4.083  0.1729 -0.7937 -1.1720
 4871TIP3   OH236027   4.679   4.980   0.762  0.7559  0.1627  0.0919
 4871TIP3    H136028   4.684   4.939   0.676 -0.6290 -0.4730  0.2924
 4871TIP3    H236029   4.622   4.922   0.813  0.5042  1.2095  1.0300
 4872TIP3   OH236030   0.789   5.542   0.717 -0.4404  0.0674  0.0251
 4872TIP3    H136031   0.857   5.600   0.752  0.1944 -1.6610  1.7758
 4872TIP3    H236032   0.714   5.598   0.703  0.1192  1.3055  1.7899
 4873TIP3   OH236033   4.869   2.474   2.701 -0.1690 -1.0510  0.1020
 4873TIP3    H136034   4.943   2.477   2.762  0.8392 -1.0431 -1.1124
 4873TIP3    H236035   4.794   2.452   2.756  0.6902 -0.8119  1.3874
 4874TIP3   OH236036   4.893   6.713  11.649 -0.3326 -0.8072  0.3499
 4874TIP3    H136037   4.900   6.621  11.675 -0.2521 -0.6400  0.9257
 4874TIP3    H236038   4.974   6.731  11.601 -0.1880 -0.9409  0.5434
 4875TIP3   OH236039   3.423   2.218  15.038 -0.0940  0.0716  0.2422
 4875TIP3    H136040   3.474   2.138  15.052  0.7155  0.5356 -0.0415
 4875TIP3    H236041   3.432   2.267  15.120 -2.3642 -1.0958  1.2292
 4876TIP3   OH236042   6.498   5.099  13.589  0.1026 -0.1586  0.3172
 4876TIP3    H136043   6.532   5.170  13.534  1.0770  0.0458  1.1503
 4876TIP3    H236044   6.429   5.059  13.537 -0.7725  1.6992  0.0198
 4877TIP3   OH236045   6.195   1.053   5.103  0.3134  0.0246  0.5081
 4877TIP3    H136046   6.224   1.138   5.072 -0.8779  0.5804  0.8754
 4877TIP3    H236047   6.264   1.022   5.161  1.1391  0.3576 -0.2996
 4878TIP3   OH236048   4.433   6.380   4.231  0.0816  0.1017  0.4572
 4878TIP3    H136049   4.511   6.431   4.252 -1.3637  3.5620 -2.1446
 4878TIP3    H236050   4.449   6.347   4.143 -0.8916 -0.2440  0.4083
 4879TIP3   OH236051   5.246   3.102   4.203  0.3626  0.2284 -0.0469
 4879TIP3    H136052   5.246   3.010   4.230 -2.0355  0.2167  0.0198
 4879TIP3    H236053   5.158   3.118   4.169  0.2723  2.8921  1.2810
 4880TIP3   OH236054   1.894   2.737   4.999  0.1294 -0.4956 -0.0441
 4880TIP3    H136055   1.830   2.758   4.931 -1.1326 -2.4644  0.4714
 4880TIP3    H236056   1.859   2.658   5.040  0.9306  0.5950  2.8166
 4881TIP3   OH236057   4.820   6.071  14.638 -0.1932 -0.5029 -0.4471
 4881TIP3    H136058   4.889   6.005  14.640 -0.4666 -0.7740  0.9430
 4881TIP3    H236059   4.756   6.040  14.703 -1.7134 -0.3578 -1.8282
 4882TIP3   OH236060   4.446   0.575  14.469 -0.1321  0.0533  0.5117
 4882TIP3    H136061   4.426   0.617  14.385  0.2303  0.3197  0.5615
 4882TIP3    H236062   4.388   0.498  14.471 -0.2249  0.1093  0.0697
 4883TIP3   OH236063   5.517   4.594  12.526  0.0808 -0.0835  0.3697
 4883TIP3    H136064   5.525   4.507  12.488  1.3848  0.0969  0.2246
 4883TIP3    H236065   5.447   4.586  12.591 -1.2723 -0.7090 -1.1462
 4884TIP3   OH236066   0.616   2.832  14.465 -0.5801 -0.2068  0.1108
 4884TIP3    H136067   0.609   2.777  14.387 -0.6174 -0.9917  0.6647
 4884TIP3    H236068   0.644   2.773  14.535 -1.6020  0.2630  0.9438
 4885TIP3   OH236069   0.838   3.090   2.293  0.3486  0.1657 -0.5115
 4885TIP3    H136070   0.923   3.093   2.337  0.5092  0.0768 -0.8144
 4885TIP3    H236071   0.803   3.003   2.313  0.0677  0.4123  0.0962
 4886TIP3   OH236072   5.669   2.182   2.354 -0.0768 -0.4451  0.3894
 4886TIP3    H136073   5.720   2.121   2.407 -1.5146 -2.3526 -0.3495
 4886TIP3    H236074   5.678   2.149   2.264  1.9205  2.4591 -0.5115
 4887TIP3   OH236075   2.594   0.897   3.249  0.7472 -0.1742 -0.2789
 4887TIP3    H136076   2.562   0.821   3.200  2.3762  0.4223 -2.3108
 4887TIP3    H236077   2.681   0.913   3.214  1.3428  1.2010  1.7961
 4888TIP3   OH236078   2.577   2.375   1.060  0.2718  0.3578  0.4131
 4888TIP3    H136079   2.494   2.346   1.097 -0.6350  0.6669 -1.3153
 4888TIP3    H236080   2.642   2.358   1.129 -0.9008 -1.7591  1.0298
 4889TIP3   OH236081   5.166   0.239   1.419  0.1945 -0.1614  0.2471
 4889TIP3    H136082   5.214   0.290   1.354  1.1108 -0.3406  0.7689
 4889TIP3    H236083   5.229   0.227   1.490 -1.5878  2.3149  2.3702
 4890TIP3   OH236084   4.650   1.161  10.799  0.5017  0.1163  0.3365
 4890TIP3    H136085   4.588   1.213  10.749 -0.7943 -1.0233  0.7440
 4890TIP3    H236086   4.735   1.179  10.758  0.0010  2.0694  0.0971
 4891TIP3   OH236087   2.602   5.932  14.439 -0.1117 -0.6417  0.2407
 4891TIP3    H136088   2.670   5.991  14.470  0.4901 -0.1017 -1.9828
 4891TIP3    H236089   2.521   5.984  14.441  0.7014  0.9334 -3.3703
 4892TIP3   OH236090   3.410   4.238   2.162 -0.0378 -0.6624 -0.2624
 4892TIP3    H136091   3.405   4.327   2.127 -0.4599  0.1393  1.7608
 4892TIP3    H236092   3.498   4.231   2.198 -0.6555 -0.3801  1.3242
 4893TIP3   OH236093   4.575   1.448   6.122 -0.0769  0.2328 -0.0146
 4893TIP3    H136094   4.637   1.459   6.050 -0.1713 -1.5189 -0.4058
 4893TIP3    H236095   4.601   1.513   6.187  4.7179 -2.9613  1.5470
 4894TIP3   OH236096   5.884   4.842   1.835 -0.1729  0.3918 -0.0519
 4894TIP3    H136097   5.978   4.823   1.831 -0.6549 -2.8155  2.0744
 4894TIP3    H236098   5.863   4.839   1.928 -2.8338 -1.5975 -0.6616
 4895TIP3   OH236099   4.035   5.554  16.471  0.7780  0.6174  0.2323
 4895TIP3    H136100   4.032   5.626  16.534  2.4283  0.9955 -0.1020
 4895TIP3    H236101   4.026   5.475  16.524  1.0072  0.9856  0.8197
 4896TIP3   OH236102   1.519   6.076   5.913  0.1067  0.4639  0.3730
 4896TIP3    H136103   1.440   6.125   5.890  0.8588  2.5602  2.0538
 4896TIP3    H236104   1.519   6.074   6.009  2.3877  1.0731  0.4306
 4897TIP3   OH236105   1.796   3.134   5.463 -0.4761 -0.6703  0.5354
 4897TIP3    H136106   1.873   3.124   5.408  0.1900 -0.4961  1.4144
 4897TIP3    H236107   1.754   3.048   5.462 -1.1827 -0.3169 -1.2578
 4898TIP3   OH236108   0.147   5.860   0.371 -0.9139  0.5736  0.1979
 4898TIP3    H136109   0.059   5.887   0.398 -0.1204  1.3852  2.0422
 4898TIP3    H236110   0.199   5.940   0.375 -0.0147  0.0406 -0.5852
 4899TIP3   OH236111   0.719   2.413   2.872  0.2805  0.1381 -1.0112
 4899TIP3    H136112   0.719   2.320   2.848  0.6368 -0.2362  0.3613
 4899TIP3    H236113   0.811   2.434   2.885 -0.0225 -0.3562  2.4164
 4900TIP3   OH236114   1.193   6.458  13.609  0.0446 -0.0335 -0.2032
 4900TIP3    H136115   1.220   6.383  13.661  0.2214  0.2027  0.0452
 4900TIP3    H236116   1.100   6.442  13.591 -0.4218  0.6176  1.4728
 4901TIP3   OH236117   3.155   0.579   3.198  0.4181  0.3733 -0.7981
 4901TIP3    H136118   3.077   0.598   3.249  0.6787  0.7979 -0.5572
 4901TIP3    H236119   3.194   0.665   3.180  0.4768  0.2116 -1.4682
 4902TIP3   OH236120   5.291   4.666   4.229  0.2791  0.0049  0.3561
 4902TIP3    H136121   5.260   4.744   4.274 -0.9230 -0.0674 -0.3299
 4902TIP3    H236122   5.382   4.685   4.208  0.4422  0.5910  1.5699
 4903TIP3   OH236123   3.186   3.909  13.343  0.8976 -0.1306 -1.1535
 4903TIP3    H136124   3.127   3.902  13.268 -0.4124 -1.9460  0.0020
 4903TIP3    H236125   3.147   3.851  13.410  2.2408  1.1382  0.7781
 4904TIP3   OH236126   5.436   1.704   1.310 -0.2697 -0.2433  0.1518
 4904TIP3    H136127   5.358   1.759   1.318  0.6283  0.9987  0.5320
 4904TIP3    H236128   5.402   1.617   1.292 -1.6775  0.6699 -1.7690
 4905TIP3   OH236129   3.206   0.436  10.985  0.3183 -0.1802 -0.1405
 4905TIP3    H136130   3.259   0.513  10.966 -0.4106  0.7476  1.5823
 4905TIP3    H236131   3.117   0.460  10.958 -0.3276  0.3899  2.3578
 4906TIP3   OH236132   1.156   5.300  14.879  0.0116  0.0624 -0.1525
 4906TIP3    H136133   1.157   5.233  14.810 -2.3883  0.0636 -0.2117
 4906TIP3    H236134   1.134   5.252  14.959  0.5594  0.4245  0.2189
 4907TIP3   OH236135   2.499   4.615  16.342 -0.3726 -0.1483  0.0646
 4907TIP3    H136136   2.563   4.663  16.289 -1.1867 -0.3195 -1.0941
 4907TIP3    H236137   2.509   4.651  16.430  1.2985 -0.1576 -0.1090
 4908TIP3   OH236138   4.986   6.460  12.441  0.6461 -0.4629 -0.4611
 4908TIP3    H136139   4.950   6.545  12.464  2.7260  0.7835 -1.6493
 4908TIP3    H236140   4.914   6.415  12.395  0.3736  1.7280 -2.2783
 4909TIP3   OH236141   1.610   1.645  11.949 -0.4666  0.5870  0.1861
 4909TIP3    H136142   1.583   1.735  11.969 -0.8576  0.4265  0.3750
 4909TIP3    H236143   1.540   1.590  11.984 -0.8453  0.2695 -1.0356
 4910TIP3   OH236144   6.776   6.535  13.854  0.7927  0.1743 -0.1070
 4910TIP3    H136145   6.816   6.623  13.850  1.2447 -0.0300 -0.1214
 4910TIP3    H236146   6.751   6.516  13.764  1.0559  0.1231 -0.1698
 4911TIP3   OH236147   5.649   3.838  14.325 -0.2822  0.0494  0.0665
 4911TIP3    H136148   5.656   3.748  14.295 -0.6848 -0.1496  0.5620
 4911TIP3    H236149   5.731   3.853  14.373  0.2675  0.3032 -0.9506
 4912TIP3   OH236150   6.164   0.528  13.883  1.0922 -0.1560 -0.5636
 4912TIP3    H136151   6.183   0.436  13.900  2.8380  0.9661  4.4705
 4912TIP3    H236152   6.250   0.570  13.876  0.4040  1.6836  1.3147
 4913TIP3   OH236153   5.325   2.804  13.338 -0.0196  0.2337  0.1787
 4913TIP3    H136154   5.313   2.898  13.350  3.5363  0.2936  4.0814
 4913TIP3    H236155   5.403   2.796  13.284 -0.7070 -0.5262 -0.7344
 4914TIP3   OH236156   3.940   2.218  15.184 -0.0996  0.5742  0.2635
 4914TIP3    H136157   3.959   2.193  15.093  2.3947  3.8141 -0.2176
 4914TIP3    H236158   3.863   2.275  15.177  0.8615  1.8605 -0.0094
 4915TIP3   OH236159   0.561   1.085  11.805 -0.1689  0.5958  0.4538
 4915TIP3    H136160   0.479   1.131  11.788 -1.6480 -1.1046  2.6183
 4915TIP3    H236161   0.534   0.994  11.821  1.9729  0.2789  2.5200
 4916TIP3   OH236162   3.333   6.330  13.784 -0.5677 -0.0156 -0.4262
 4916TIP3    H136163   3.376   6.356  13.865  2.6427  0.9951 -2.3365
 4916TIP3    H236164   3.329   6.234  13.788  1.2233 -0.0917  0.1739
 4917TIP3   OH236165   5.729   2.986  13.339 -0.0978  0.0885 -0.4201
 4917TIP3    H136166   5.675   3.053  13.298 -0.8087 -0.0194  0.3259
 4917TIP3    H236167   5.796   3.035  13.387 -2.0055  0.3702  2.0602
 4918TIP3   OH236168   2.791   5.732   3.167  0.3292  0.4797 -0.0581
 4918TIP3    H136169   2.768   5.639   3.164  0.8456  0.3256  0.9278
 4918TIP3    H236170   2.797   5.758   3.074 -0.9246 -0.1836 -0.3396
 4919TIP3   OH236171   0.369   6.233   5.652  0.0604 -0.1078 -0.6234
 4919TIP3    H136172   0.347   6.326   5.650  1.7943  0.3041 -0.6753
 4919TIP3    H236173   0.345   6.205   5.740 -2.3769 -0.1033 -1.2475
 4920TIP3   OH236174   1.514   2.558   1.970 -0.2222 -0.1225  0.0566
 4920TIP3    H136175   1.535   2.643   2.010  0.9346 -0.6854  0.6581
 4920TIP3    H236176   1.468   2.510   2.038  2.1185 -1.2403  0.9262
 4921TIP3   OH236177   1.952   4.923   1.635  0.5174 -0.4319 -0.4866
 4921TIP3    H136178   2.028   4.875   1.668  1.7128  0.7617 -1.4713
 4921TIP3    H236179   1.927   4.982   1.706  1.1714 -0.0686 -0.5596
 4922TIP3   OH236180   5.595   0.605   1.301 -0.1376  0.4892  0.2797
 4922TIP3    H136181   5.557   0.608   1.389 -0.3890  0.4214  0.1736
 4922TIP3    H236182   5.666   0.668   1.304  0.4906 -0.2245  0.8331
 4923TIP3   OH236183   3.752   3.672  12.224  0.1521  1.1837 -0.1843
 4923TIP3    H136184   3.712   3.587  12.204  0.8185  1.4401 -2.7611
 4923TIP3    H236185   3.680   3.734  12.214 -0.0425  1.0575  0.4405
 4924TIP3   OH236186   1.805   4.429   4.614  0.6573 -0.3471  0.1870
 4924TIP3    H136187   1.830   4.483   4.689  0.3837  1.0154 -0.6770
 4924TIP3    H236188   1.710   4.423   4.619  0.5657  0.4258 -0.4908
 4925TIP3   OH236189   1.990   4.038   4.902 -0.1348  0.2598 -0.0709
 4925TIP3    H136190   1.975   4.131   4.886  0.5625  0.6816  1.6341
 4925TIP3    H236191   2.080   4.033   4.934 -0.2606 -0.9759  0.1275
 4926TIP3   OH236192   5.497   3.322   3.049 -0.3254 -0.1958  0.1420
 4926TIP3    H136193   5.583   3.281   3.059 -0.9783 -1.7958 -0.5755
 4926TIP3    H236194   5.501   3.365   2.963 -0.3411 -0.5256 -0.0240
 4927TIP3   OH236195   2.573   1.286   4.827  0.0964 -0.4628  0.2257
 4927TIP3    H136196   2.498   1.304   4.884 -0.1944 -4.9405  1.4190
 4927TIP3    H236197   2.536   1.238   4.753  1.7391 -2.9136  0.9287
 4928TIP3   OH236198   1.052   2.671   1.336  0.0498 -0.4595 -0.0287
 4928TIP3    H136199   1.102   2.646   1.413 -0.0502 -1.4510 -0.2862
 4928TIP3    H236200   1.034   2.765   1.348 -2.0967 -1.1246  2.3542
 4929TIP3   OH236201   1.348   3.068  14.258  0.4977 -0.6584  0.3846
 4929TIP3    H136202   1.324   3.144  14.310 -0.4354 -0.6481 -0.0605
 4929TIP3    H236203   1.394   3.011  14.320  1.4103  0.3578  0.6650
 4930TIP3   OH236204   5.668   6.641  11.047  0.2039 -0.3146  0.3190
 4930TIP3    H136205   5.763   6.654  11.052 -0.1816  2.4651  0.8468
 4930TIP3    H236206   5.646   6.596  11.128  1.2875 -2.6065 -0.6103
 4931TIP3   OH236207   4.881   6.204  12.627  0.1850 -0.7556  0.3786
 4931TIP3    H136208   4.798   6.222  12.583 -0.4156  0.1140  1.8253
 4931TIP3    H236209   4.944   6.263  12.584 -0.4168  0.1729  0.7505
 4932TIP3   OH236210   4.801   5.399   1.729 -1.1740  0.5862 -0.3617
 4932TIP3    H136211   4.765   5.442   1.651  0.1631  1.1679 -0.6695
 4932TIP3    H236212   4.896   5.400   1.715 -1.0788 -1.6727  0.0509
 4933TIP3   OH236213   6.429   6.705  15.838 -0.6628 -0.4872 -0.7587
 4933TIP3    H136214   6.438   6.628  15.895 -1.3994  1.5355  2.1579
 4933TIP3    H236215   6.359   6.756  15.877 -2.1253  0.3431 -4.2880
 4934TIP3   OH236216   6.536   4.712  16.743  0.2826  0.4726  0.6356
 4934TIP3    H136217   6.480   4.637  16.723  3.1654 -1.7825  0.6656
 4934TIP3    H236218   6.543   4.759  16.660  1.9041 -1.7251 -0.5234
 4935TIP3   OH236219   5.313   2.074  14.667  0.3259 -0.3643 -0.1144
 4935TIP3    H136220   5.360   2.121  14.735 -1.7641  1.6316  0.0360
 4935TIP3    H236221   5.280   2.143  14.609 -2.3755 -1.6729 -0.2000
 4936TIP3   OH236222   1.098   4.418  12.546  0.4658 -0.4389  0.5313
 4936TIP3    H136223   1.150   4.421  12.627  0.5443  0.7575  0.4554
 4936TIP3    H236224   1.115   4.332  12.509  1.4792 -0.4998  1.1150
 4937TIP3   OH236225   5.716   5.754   1.180 -0.1026 -0.3069  0.1640
 4937TIP3    H136226   5.708   5.670   1.226 -1.7411 -0.5666 -0.5490
 4937TIP3    H236227   5.796   5.793   1.216 -1.6969 -0.1417  3.8052
 4938TIP3   OH236228   1.598   5.612   0.412 -0.3270  0.3295  0.3176
 4938TIP3    H136229   1.563   5.700   0.423  0.2588  0.2732  2.7547
 4938TIP3    H236230   1.646   5.594   0.492 -0.9660 -2.4668  0.1501
 4939TIP3   OH236231   0.471   6.094   4.269 -0.2547  0.1493  0.1270
 4939TIP3    H136232   0.441   6.050   4.349  0.4674  0.4419  0.5665
 4939TIP3    H236233   0.392   6.108   4.217 -0.6509 -0.5572  0.5396
 4940TIP3   OH236234   0.883   5.498   0.429  0.0466  0.4662  0.8958
 4940TIP3    H136235   0.874   5.583   0.472 -0.0415  0.4630  0.8854
 4940TIP3    H236236   0.937   5.446   0.489 -0.4793  0.3041  1.2327
 4941TIP3   OH236237   5.390   2.994   5.555 -0.1348  0.3787 -0.0732
 4941TIP3    H136238   5.412   2.979   5.463  1.3884  1.0900  0.1579
 4941TIP3    H236239   5.298   2.967   5.563  0.7840 -3.1348 -0.9512
 4942TIP3   OH236240   1.061   3.871   4.673 -0.0407  1.1701 -0.3196
 4942TIP3    H136241   1.011   3.789   4.670  1.3055  0.3685 -1.1488
 4942TIP3    H236242   1.038   3.915   4.591 -0.1037  1.2321 -0.2687
 4943TIP3   OH236243   1.070   3.535  13.298 -0.6413 -0.2508 -0.0609
 4943TIP3    H136244   1.131   3.534  13.224 -1.6754 -1.2521 -0.9157
 4943TIP3    H236245   1.125   3.559  13.373  1.2794 -3.3415 -0.3873
 4944TIP3   OH236246   6.568   1.126   5.354 -0.9912  0.0517 -0.2783
 4944TIP3    H136247   6.640   1.156   5.298 -1.3673  1.2718 -0.1355
 4944TIP3    H236248   6.572   1.031   5.350  0.7345  0.1062 -0.1379
 4945TIP3   OH236249   5.426   3.962  11.566 -0.4124  0.5920  0.8925
 4945TIP3    H136250   5.410   4.028  11.498 -1.4801  0.7511  1.2988
 4945TIP3    H236251   5.518   3.938  11.554 -0.6537  0.4315 -0.7859
 4946TIP3   OH236252   4.362   5.134  15.589 -0.0332  0.2016  0.8187
 4946TIP3    H136253   4.409   5.063  15.545 -1.7645 -0.0241 -0.7758
 4946TIP3    H236254   4.430   5.185  15.633  1.5711 -0.7101 -0.5351
 4947TIP3   OH236255   4.011   5.861   2.024  0.6592 -0.3126 -0.0470
 4947TIP3    H136256   3.985   5.949   1.996 -0.9982 -0.6649  0.3242
 4947TIP3    H236257   3.944   5.803   1.988  2.1818 -1.5397 -0.9813
 4948TIP3   OH236258   4.323   6.559  12.922  0.1871  0.5467  0.0139
 4948TIP3    H136259   4.399   6.504  12.900  0.4141  0.8465  0.0440
 4948TIP3    H236260   4.297   6.597  12.839  0.2032  0.6147  0.0403
 4949TIP3   OH236261   3.172   0.833   1.194  0.3444 -0.0141 -0.7645
 4949TIP3    H136262   3.200   0.866   1.279  2.0971 -1.4904 -0.7382
 4949TIP3    H236263   3.234   0.870   1.132  0.1646 -0.4001 -1.1748
 4950TIP3   OH236264   3.389   0.116   3.380  0.6595 -0.4755  0.2765
 4950TIP3    H136265   3.467   0.167   3.359  0.8470 -0.0912  1.9252
 4950TIP3    H236266   3.321   0.181   3.398  0.3456 -0.8179  0.3385
 4951TIP3   OH236267   2.789   6.058   1.256  0.2336 -0.3682  0.0151
 4951TIP3    H136268   2.699   6.029   1.242  0.3820 -0.0932 -1.5501
 4951TIP3    H236269   2.832   5.982   1.296 -0.7824 -0.3638  1.1358
 4952TIP3   OH236270   4.507   0.264  17.125  0.3902  0.7143  0.4889
 4952TIP3    H136271   4.532   0.185  17.078 -0.1881 -0.5111  2.2039
 4952TIP3    H236272   4.590   0.301  17.155  0.6923  1.0067 -0.6939
 4953TIP3   OH236273   5.608   3.500  12.734 -0.5180 -0.0508 -0.2001
 4953TIP3    H136274   5.579   3.590  12.746  1.1013  0.2009  2.1302
 4953TIP3    H236275   5.634   3.495  12.642 -5.9068  0.2115 -1.9270
 4954TIP3   OH236276   5.291   4.118  12.169 -0.6545 -0.3083 -0.1052
 4954TIP3    H136277   5.287   4.101  12.075 -0.7288 -0.7354 -0.0280
 4954TIP3    H236278   5.200   4.114  12.198 -0.8746  2.0211 -0.3878
 4955TIP3   OH236279   6.404   3.684   5.246  0.2593  0.0010  0.2495
 4955TIP3    H136280   6.363   3.655   5.164  0.2206 -0.8940  0.5755
 4955TIP3    H236281   6.485   3.726   5.218 -0.9608  1.9565 -0.4118
 4956TIP3   OH236282   2.193   2.057  14.342 -0.3438  0.9597  0.2545
 4956TIP3    H136283   2.256   1.985  14.343 -1.7340 -0.2987 -0.0985
 4956TIP3    H236284   2.204   2.099  14.257 -0.6538  0.1387 -0.1891
 4957TIP3   OH236285   2.163   3.896  12.420 -0.2317 -0.2267 -0.0428
 4957TIP3    H136286   2.141   3.856  12.336 -0.1723 -3.3006  1.3445
 4957TIP3    H236287   2.079   3.921  12.457 -0.5758 -2.0972  0.5013
 4958TIP3   OH236288   4.499   1.984  15.966  0.2693 -0.5380  0.5374
 4958TIP3    H136289   4.534   2.009  15.880  1.4984 -1.3146  0.7972
 4958TIP3    H236290   4.468   2.066  16.004  0.3151 -0.0881 -0.3755
 4959TIP3   OH236291   3.258   2.215   4.340  0.1031  0.3666  0.1351
 4959TIP3    H136292   3.332   2.235   4.398  0.9386 -0.2603 -0.6881
 4959TIP3    H236293   3.239   2.298   4.296  0.6332  0.4161 -0.0028
 4960TIP3   OH236294   1.337   5.356  10.371 -0.4189  0.7023  0.4535
 4960TIP3    H136295   1.363   5.265  10.388 -1.5277  0.7696  2.6792
 4960TIP3    H236296   1.242   5.352  10.362 -0.7847  2.0158  3.3028
 4961TIP3   OH236297   0.838   2.902   3.086  0.9442 -0.7618 -0.4046
 4961TIP3    H136298   0.821   2.832   3.022  0.8700 -0.4767 -0.6984
 4961TIP3    H236299   0.776   2.971   3.063  1.8989 -0.0763 -0.9198
 4962TIP3   OH236300   1.794   5.043  12.047 -0.0723  0.8461  0.2337
 4962TIP3    H136301   1.866   5.105  12.037  1.0079 -0.0742  1.9821
 4962TIP3    H236302   1.716   5.098  12.056  0.8405  1.9686  1.6046
 4963TIP3   OH236303   3.608   4.160   7.040  0.7301 -0.3493  0.2681
 4963TIP3    H136304   3.630   4.067   7.030  1.3855 -0.1087 -0.7063
 4963TIP3    H236305   3.516   4.166   7.014  1.0837 -0.5142 -1.0890
 4964TIP3   OH236306   3.388   1.497  11.628  0.1361  0.7194 -0.3958
 4964TIP3    H136307   3.420   1.553  11.557  1.7383  2.2710  1.5025
 4964TIP3    H236308   3.356   1.558  11.694 -0.7824 -0.6947  0.4884
 4965TIP3   OH236309   5.146   1.903  13.509  0.5978  0.5666 -0.2520
 4965TIP3    H136310   5.174   1.989  13.539  3.9658 -0.3701 -0.4937
 4965TIP3    H236311   5.177   1.897  13.418 -1.5291 -0.0797 -0.9679
 4966TIP3   OH236312   4.900   0.691   1.348 -0.0283 -0.0174 -0.3743
 4966TIP3    H136313   4.907   0.610   1.397 -0.0323  0.6860  0.7991
 4966TIP3    H236314   4.939   0.671   1.263  1.1376 -0.8885  0.3490
 4967TIP3   OH236315   5.342   2.155   5.826 -0.3348 -0.1812 -0.8786
 4967TIP3    H136316   5.426   2.198   5.842 -0.0282 -0.1662 -2.4519
 4967TIP3    H236317   5.366   2.067   5.796 -0.9146 -0.6756  0.0733
 4968TIP3   OH236318   2.708   4.390   6.148 -0.2189  0.5995  0.5304
 4968TIP3    H136319   2.685   4.329   6.219  0.0520  2.1005  1.9466
 4968TIP3    H236320   2.643   4.460   6.155  0.0464  0.9450 -0.4687
 4969TIP3   OH236321   2.523   5.514  16.510  0.0152  0.0931  0.5066
 4969TIP3    H136322   2.498   5.593  16.557 -4.1118 -1.0658  0.4261
 4969TIP3    H236323   2.485   5.442  16.560 -1.5859 -1.4011 -2.6530
 4970TIP3   OH236324   6.192   5.652   4.668  0.6585  0.8218  0.0639
 4970TIP3    H136325   6.180   5.558   4.661  1.8661  0.7855 -1.7392
 4970TIP3    H236326   6.103   5.687   4.675  0.1805 -0.4124  0.2088
 4971TIP3   OH236327   3.766   0.827   6.286  0.8058 -0.6618 -0.6312
 4971TIP3    H136328   3.720   0.890   6.341  1.7849  0.2737 -0.8562
 4971TIP3    H236329   3.714   0.747   6.291 -0.4267  0.1548 -0.3041
 4972TIP3   OH236330   1.536   4.366  11.438  0.0261  0.4181 -0.2914
 4972TIP3    H136331   1.519   4.380  11.531 -1.2035 -0.3084 -0.3957
 4972TIP3    H236332   1.617   4.413  11.421  1.0078 -0.6119  1.4579
 4973TIP3   OH236333   2.196   2.705   3.739 -0.4483  0.2343  0.2599
 4973TIP3    H136334   2.142   2.763   3.686  1.1822  1.4443 -0.1123
 4973TIP3    H236335   2.250   2.658   3.676  0.1537  0.3026  0.7176
 4974TIP3   OH236336   5.414   3.057  13.677  0.6382 -0.7427 -0.3132
 4974TIP3    H136337   5.431   3.145  13.712  0.6553 -0.4377 -1.0603
 4974TIP3    H236338   5.437   2.998  13.748 -1.5718 -0.0668  1.0116
 4975TIP3   OH236339   1.159   3.693   5.659  0.1918 -0.2697  0.8982
 4975TIP3    H136340   1.071   3.664   5.685  0.3036 -0.4696  1.0536
 4975TIP3    H236341   1.217   3.623   5.689  0.5952  0.6514  2.2937
 4976TIP3   OH236342   1.783   2.348   0.709 -0.0682 -0.1107  0.4479
 4976TIP3    H136343   1.732   2.294   0.770 -1.7060  0.3656 -0.4628
 4976TIP3    H236344   1.808   2.425   0.759  0.3664 -0.6830  1.1136
 4977TIP3   OH236345   1.920   2.852  15.121 -0.1459  0.0908  0.3246
 4977TIP3    H136346   1.909   2.793  15.047 -0.8415  0.8428 -0.1832
 4977TIP3    H236347   1.832   2.885  15.139  0.1252  0.4324  1.0508
 4978TIP3   OH236348   2.511   5.614   0.013  0.0148  1.0633  0.1036
 4978TIP3    H136349   2.434   5.589  -0.038 -0.0698  0.9277  0.2979
 4978TIP3    H236350   2.545   5.531   0.046 -0.4759  1.2354  1.0508
 4979TIP3   OH236351   0.552   5.115   0.383  0.0367 -0.1290 -0.0357
 4979TIP3    H136352   0.567   5.023   0.406 -1.2909 -0.3213  0.0845
 4979TIP3    H236353   0.638   5.147   0.355  0.9840 -0.7737  2.0748
 4980TIP3   OH236354   6.130   2.370   3.524 -0.1658 -0.2798  0.5611
 4980TIP3    H136355   6.038   2.396   3.519 -0.2674 -0.1448  2.5747
 4980TIP3    H236356   6.128   2.283   3.563  0.5737 -0.0768  1.0719
 4981TIP3   OH236357   2.326   1.651  12.955 -0.0731  0.4720 -0.3195
 4981TIP3    H136358   2.329   1.742  12.985  0.8840  0.4288 -0.2772
 4981TIP3    H236359   2.316   1.600  13.036  1.1446  0.4406 -0.1748
 4982TIP3   OH236360   6.414   5.194   6.168 -0.1150 -0.5732 -0.7301
 4982TIP3    H136361   6.342   5.237   6.214  1.7283 -0.7872  2.4527
 4982TIP3    H236362   6.406   5.102   6.192  0.6928 -0.7471 -1.1286
 4983TIP3   OH236363   2.987   2.617   5.249 -0.0831 -0.3233  0.3624
 4983TIP3    H136364   3.052   2.681   5.221  0.1566 -0.3934  0.7652
 4983TIP3    H236365   3.026   2.532   5.227  0.3638 -0.4026  1.4711
 4984TIP3   OH236366   0.865   2.063   4.094  0.1246  0.8548  0.2682
 4984TIP3    H136367   0.955   2.037   4.113 -0.3642 -0.1574  1.2681
 4984TIP3    H236368   0.845   2.022   4.010  0.7102  1.3497 -0.1082
 4985TIP3   OH236369   3.227   2.091  17.158 -0.2599 -0.3579 -0.2213
 4985TIP3    H136370   3.312   2.085  17.113  0.8715  0.1557  1.7824
 4985TIP3    H236371   3.243   2.049  17.243 -2.1492 -0.6278  0.0111
 4986TIP3   OH236372   2.674   4.375   5.809  0.1265 -0.1621 -0.0936
 4986TIP3    H136373   2.665   4.363   5.903  3.1544 -2.6366 -0.0239
 4986TIP3    H236374   2.606   4.318   5.771 -1.0657  0.8044  0.5709
 4987TIP3   OH236375   5.970   5.595  13.875 -0.3804  0.1393 -0.3226
 4987TIP3    H136376   5.909   5.633  13.939  0.8665  0.1541  0.8850
 4987TIP3    H236377   6.009   5.671  13.832 -1.0854  0.1332 -0.9828
 4988TIP3   OH236378   1.199   4.827  11.360  0.0790 -0.0052  0.0907
 4988TIP3    H136379   1.215   4.760  11.294 -1.0191  0.0826 -0.2747
 4988TIP3    H236380   1.183   4.779  11.441 -1.9889 -0.2502 -0.4378
 4989TIP3   OH236381   0.885   6.221  16.416  0.6936 -0.2353 -0.4350
 4989TIP3    H136382   0.870   6.180  16.501 -0.6826 -0.0161 -0.5507
 4989TIP3    H236383   0.946   6.163  16.372  1.9117 -0.0170  0.9371
 4990TIP3   OH236384   4.090   4.413   5.718 -0.2646 -0.5247 -0.4611
 4990TIP3    H136385   4.134   4.491   5.752 -0.4218 -0.3717 -0.6178
 4990TIP3    H236386   4.088   4.353   5.793 -0.5864 -0.1929 -0.2081
 4991TIP3   OH236387   1.648   1.058  15.682 -0.4551 -0.3657 -0.1067
 4991TIP3    H136388   1.651   0.963  15.670 -1.8225 -0.5491  0.8216
 4991TIP3    H236389   1.554   1.079  15.683 -0.1432  1.1895 -1.6919
 4992TIP3   OH236390   6.390   0.199   4.496  0.0565  0.0782 -0.1267
 4992TIP3    H136391   6.485   0.191   4.490  0.1041  0.8433 -0.5116
 4992TIP3    H236392   6.366   0.148   4.573  0.9592  1.1657  0.8894
 4993TIP3   OH236393   5.352   2.226  13.982  0.3240  0.1509 -0.2322
 4993TIP3    H136394   5.309   2.152  14.024 -2.0513  1.8644  0.5195
 4993TIP3    H236395   5.341   2.210  13.888 -1.4442  0.2185 -0.0560
 4994TIP3   OH236396   2.383   4.804   3.811 -0.2989  0.3458  0.0131
 4994TIP3    H136397   2.475   4.780   3.803 -0.9266 -2.1545 -0.1569
 4994TIP3    H236398   2.382   4.875   3.875  1.6079 -0.5031  1.0191
 4995TIP3   OH236399   3.208   0.388   3.029 -0.0792 -0.1632 -0.6804
 4995TIP3    H136400   3.169   0.451   3.089  1.6286 -0.3697  0.6789
 4995TIP3    H236401   3.244   0.442   2.958 -0.1048  0.2682 -0.3675
 4996TIP3   OH236402   0.706   5.608   5.418  0.0459 -0.0432 -0.1469
 4996TIP3    H136403   0.612   5.620   5.408 -0.0886 -0.4619  0.5919
 4996TIP3    H236404   0.722   5.518   5.392  0.0755 -0.3194  0.8152
 4997TIP3   OH236405   4.409   6.147  14.666  0.2186 -0.0646 -0.0197
 4997TIP3    H136406   4.446   6.064  14.637 -1.9917 -1.3425  0.7792
 4997TIP3    H236407   4.436   6.210  14.599  1.4578 -1.5125 -0.9051
 4998TIP3   OH236408   5.203   3.722   5.394  0.3260  0.9462  0.0454
 4998TIP3    H136409   5.231   3.792   5.453 -1.9830  2.7451 -0.8973
 4998TIP3    H236410   5.140   3.671   5.444  1.0793  0.2597  0.3133
 4999TIP3   OH236411   0.846   4.423   3.772  0.3186 -0.4249 -0.4064
 4999TIP3    H136412   0.886   4.391   3.853  0.9074  1.8978  0.2355
 4999TIP3    H236413   0.845   4.346   3.714  1.1554 -1.7514  1.3113
 5000TIP3   OH236414   1.847   6.361   1.704  0.0020 -0.4410 -0.4937
 5000TIP3    H136415   1.771   6.342   1.758 -0.5902 -0.0960 -1.1957
 5000TIP3    H236416   1.813   6.412   1.631  0.8671 -0.4767 -0.9362
 5001TIP3   OH236417   1.012   1.506  12.220 -0.1852  0.5001 -0.1425
 5001TIP3    H136418   1.034   1.598  12.208 -0.5741  0.6706  0.4526
 5001TIP3    H236419   0.917   1.503  12.216 -0.2395  0.3066  1.0431
 5002TIP3   OH236420   1.236   4.636  14.302  0.5146 -0.0425 -0.3031
 5002TIP3    H136421   1.182   4.643  14.381  0.7786  2.0500 -0.3000
 5002TIP3    H236422   1.229   4.721  14.260  3.9142  0.3249 -0.2613
 5003TIP3   OH236423   2.302   0.361  12.233  0.2990  0.2523  0.5643
 5003TIP3    H136424   2.346   0.405  12.306  0.7886 -0.2905  0.5936
 5003TIP3    H236425   2.210   0.357  12.261  0.3059  0.9550  0.7049
 5004TIP3   OH236426   4.878   4.819   6.457  0.0042 -0.0023 -0.1442
 5004TIP3    H136427   4.890   4.753   6.526  2.2724  0.1615 -0.3346
 5004TIP3    H236428   4.783   4.830   6.451 -0.3944 -2.5805  0.5284
 5005TIP3   OH236429   1.243   3.619  11.819  0.3135  0.0369  0.1639
 5005TIP3    H136430   1.274   3.621  11.729 -1.0805 -0.1822 -0.3399
 5005TIP3    H236431   1.204   3.533  11.829 -5.0693  2.1158 -1.0019
 5006TIP3   OH236432   1.498   3.522   1.557  0.2356 -0.0982 -0.0835
 5006TIP3    H136433   1.553   3.483   1.625  0.6178 -1.7546 -1.2905
 5006TIP3    H236434   1.439   3.582   1.604 -0.3805 -2.1641  1.8779
 5007TIP3   OH236435   4.243   2.638  14.970  0.1646 -0.5020  0.1735
 5007TIP3    H136436   4.294   2.702  15.019 -1.4592  1.0478 -0.1175
 5007TIP3    H236437   4.166   2.621  15.024 -1.5623  1.0982 -1.6604
 5008TIP3   OH236438   6.480   5.763   4.482 -0.3587  0.0641  0.2556
 5008TIP3    H136439   6.533   5.842   4.471  0.1154 -0.1754  0.8353
 5008TIP3    H236440   6.401   5.793   4.527 -0.6909  0.4058 -0.5392
 5009TIP3   OH236441   2.762   6.502   3.893  0.0376 -0.1846  0.2419
 5009TIP3    H136442   2.670   6.523   3.876 -0.0344 -1.4396 -1.1215
 5009TIP3    H236443   2.793   6.464   3.810  2.1006  1.2502  0.3225
 5010TIP3   OH236444   6.242   2.381  13.865  0.0566  0.1013 -0.5390
 5010TIP3    H136445   6.193   2.428  13.932  0.2038 -0.9917  0.3432
 5010TIP3    H236446   6.333   2.409  13.878 -0.0546  0.7113 -0.9955
 5011TIP3   OH236447   1.181   2.184   5.666 -0.2250 -0.3680 -0.5130
 5011TIP3    H136448   1.161   2.131   5.743  0.1413 -1.9656 -1.4942
 5011TIP3    H236449   1.209   2.268   5.702 -2.4797 -0.2316  1.0328
 5012TIP3   OH236450   2.781   4.272  13.296  0.3222 -0.3820  0.5547
 5012TIP3    H136451   2.796   4.277  13.390  0.9387  0.2552  0.4343
 5012TIP3    H236452   2.809   4.358  13.263 -0.4464 -0.3877 -0.1300
 5013TIP3   OH236453   5.290   0.623   1.340  0.1913  0.3786 -0.3437
 5013TIP3    H136454   5.218   0.685   1.346 -1.2154 -1.1967 -0.6315
 5013TIP3    H236455   5.344   0.640   1.417 -0.5777  1.4404 -0.0377
 5014TIP3   OH236456   4.383   6.577  14.388 -0.1327  0.5649 -0.4386
 5014TIP3    H136457   4.430   6.656  14.416  2.1850 -0.2902 -1.7570
 5014TIP3    H236458   4.450   6.522  14.347 -2.1033 -1.1634 -1.4794
 5015TIP3   OH236459   6.106   6.075   4.875 -0.2516 -0.0625 -0.4467
 5015TIP3    H136460   6.168   6.112   4.812  0.8448 -0.4348  0.3822
 5015TIP3    H236461   6.069   6.151   4.919  0.9607  0.1304  0.2815
 5016TIP3   OH236462   5.905   3.349   0.002  0.4962  0.3583 -0.2063
 5016TIP3    H136463   5.889   3.285   0.070 -0.3808  0.1342 -0.6079
 5016TIP3    H236464   5.918   3.432   0.048  0.1704  0.1576  0.2434
 5017TIP3   OH236465   2.198   6.604  15.515  0.6886 -0.5918  0.3051
 5017TIP3    H136466   2.146   6.597  15.435  1.2353 -3.1330  0.1203
 5017TIP3    H236467   2.153   6.669  15.568 -1.1616 -0.7928 -0.9894
 5018TIP3   OH236468   0.993   3.703  13.869  0.1862 -0.0728  0.1118
 5018TIP3    H136469   0.937   3.780  13.873 -0.1492 -0.2380 -1.1436
 5018TIP3    H236470   1.070   3.733  13.820  0.2717 -0.4006  0.0451
 5019TIP3   OH236471   1.348   5.013  12.229 -0.0399  0.3587 -0.0456
 5019TIP3    H136472   1.422   5.043  12.282 -0.4872  1.5058 -0.0525
 5019TIP3    H236473   1.338   4.921  12.252  1.2545  0.2409  0.1179
 5020TIP3   OH236474   2.898   3.996  12.057 -0.4080  0.4208  0.1770
 5020TIP3    H136475   2.827   4.056  12.082 -1.9534 -0.4384 -1.9586
 5020TIP3    H236476   2.854   3.912  12.044  1.0671 -0.2097 -0.8671
 5021TIP3   OH236477   3.107   1.380  16.197  0.0319 -0.0391 -0.0919
 5021TIP3    H136478   3.185   1.364  16.144 -0.2326  0.7784 -0.7225
 5021TIP3    H236479   3.038   1.396  16.133 -0.1198  1.7498  0.4949
 5022TIP3   OH236480   2.170   4.588  13.898  0.2145 -0.1462  0.2790
 5022TIP3    H136481   2.133   4.671  13.926 -0.0898  0.0884 -0.7865
 5022TIP3    H236482   2.098   4.543  13.853  0.6914 -0.4847 -0.1587
 5023TIP3   OH236483   6.551   4.178  11.903  0.4899  0.2429 -0.5294
 5023TIP3    H136484   6.543   4.085  11.882  1.5668 -0.0208  0.1788
 5023TIP3    H236485   6.542   4.182  11.998  4.7528  0.3179 -0.0440
 5024TIP3   OH236486   4.351   2.476   4.444 -1.1446  0.0233 -0.6618
 5024TIP3    H136487   4.264   2.516   4.443 -0.4807  1.5023 -2.4029
 5024TIP3    H236488   4.337   2.387   4.412 -2.2848 -0.3809  0.9081
 5025TIP3   OH236489   5.969   6.182  13.368  0.1892  0.0874 -0.2696
 5025TIP3    H136490   5.874   6.176  13.376 -0.2734  2.2197 -3.3599
 5025TIP3    H236491   5.990   6.267  13.405  0.9372 -0.4466  0.5459
 5026TIP3   OH236492   5.735   6.180  15.063 -0.3801  0.0565 -0.1342
 5026TIP3    H136493   5.721   6.114  15.131 -2.8292  0.6713  0.0215
 5026TIP3    H236494   5.705   6.262  15.102 -0.2260  0.7261 -1.3775
 5027TIP3   OH236495   0.871   5.256   3.041 -1.2321  0.8135 -0.4082
 5027TIP3    H136496   0.806   5.187   3.055 -2.7530  2.5030  1.0459
 5027TIP3    H236497   0.907   5.273   3.128 -0.3031  1.3049 -0.8844
 5028TIP3   OH236498   3.119   0.687  15.018 -0.2932 -0.4067 -0.1066
 5028TIP3    H136499   3.096   0.682  15.111  0.8658  0.1385  0.2180
 5028TIP3    H236500   3.209   0.655  15.014  0.4169  1.5763 -0.7185
 5029TIP3   OH236501   0.943   1.061   3.691  0.5322  0.0062  0.2522
 5029TIP3    H136502   0.853   1.086   3.666  0.4895  0.1890  0.5929
 5029TIP3    H236503   0.953   0.973   3.656  0.7029  0.5164 -0.9990
 5030TIP3   OH236504   0.171   3.679   6.863 -0.3299  0.0811  0.1685
 5030TIP3    H136505   0.227   3.739   6.813  0.5009 -1.1658 -0.4549
 5030TIP3    H236506   0.100   3.657   6.803 -0.4760  0.2194  0.2913
 5031TIP3   OH236507   2.656   1.039   2.635  0.1927  0.0490  0.0779
 5031TIP3    H136508   2.657   0.980   2.710 -2.3637 -0.0843  0.0484
 5031TIP3    H236509   2.661   0.981   2.559 -2.0104 -0.1525  0.0567
 5032TIP3   OH236510   2.525   5.593   0.714  0.0395  0.0455 -0.6585
 5032TIP3    H136511   2.442   5.632   0.688  0.6149  2.0597  0.4136
 5032TIP3    H236512   2.500   5.517   0.766 -1.1263  0.6762 -0.2731
 5033TIP3   OH236513   2.314   0.789  16.999  0.3096  0.4554 -0.1194
 5033TIP3    H136514   2.272   0.868  16.964  2.4759  3.1076  2.9459
 5033TIP3    H236515   2.242   0.726  17.007 -2.0197  2.9774 -0.2279
 5034TIP3   OH236516   0.296   4.653   3.548 -0.0064 -0.1129  0.0794
 5034TIP3    H136517   0.285   4.738   3.591  1.4534  0.7166 -1.1374
 5034TIP3    H236518   0.218   4.644   3.493  0.4001  1.0135 -0.7031
 5035TIP3   OH236519   1.863   1.233  14.460  0.2281  0.4081 -0.2538
 5035TIP3    H136520   1.770   1.232  14.437  0.3243  1.4316 -0.7212
 5035TIP3    H236521   1.886   1.141  14.473 -0.9309  0.1849  0.2081
 5036TIP3   OH236522   4.444   1.472  14.530  0.1469  0.1212 -0.8779
 5036TIP3    H136523   4.367   1.421  14.504 -0.1653 -0.7307  1.5143
 5036TIP3    H236524   4.407   1.551  14.569  0.5880  1.2756 -2.7623
 5037TIP3   OH236525   5.792   1.888  16.568  0.3394 -0.5180 -0.4454
 5037TIP3    H136526   5.803   1.878  16.473  0.1796  1.3163 -0.6820
 5037TIP3    H236527   5.703   1.856  16.585  0.2283 -0.5073 -0.9754
 5038TIP3   OH236528   3.937   5.387   0.414 -0.6391 -0.1678  0.2418
 5038TIP3    H136529   3.897   5.454   0.469 -0.2084 -0.4366  0.8946
 5038TIP3    H236530   3.867   5.361   0.353 -1.2930 -0.2333  1.0032
 5039TIP3   OH236531   1.886   6.558  12.009 -0.0751  0.1252 -0.0518
 5039TIP3    H136532   1.938   6.525  11.935 -2.5769 -0.6193 -1.5543
 5039TIP3    H236533   1.902   6.653  12.009 -0.1125  0.1461 -1.6041
 5040TIP3   OH236534   1.861   3.013   5.183  0.1122  0.1449  0.4270
 5040TIP3    H136535   1.908   2.961   5.118 -0.3934  1.4572 -1.0037
 5040TIP3    H236536   1.772   2.978   5.182 -0.3429  1.2839 -0.8532
 5041TIP3   OH236537   5.314   5.015  13.562 -0.3845  0.0412  0.1696
 5041TIP3    H136538   5.373   5.061  13.622  2.0622  0.7339 -2.6540
 5041TIP3    H236539   5.369   4.948  13.522 -1.8403 -0.1056 -1.6334
 5042TIP3   OH236540   2.494   6.643  16.515  0.0033 -0.5438  0.2289
 5042TIP3    H136541   2.418   6.617  16.567 -1.2132 -1.9007 -2.1632
 5042TIP3    H236542   2.481   6.736  16.498 -0.6385 -0.5714  0.5660
 5043TIP3   OH236543   2.457   0.453   1.148  0.4377  0.2293 -0.1963
 5043TIP3    H136544   2.468   0.543   1.179  1.3984 -0.6303  2.0230
 5043TIP3    H236545   2.451   0.462   1.053  0.6096  2.6318 -0.0230
 5044TIP3   OH236546   6.257   0.443   0.649 -0.1034  0.6242  0.6766
 5044TIP3    H136547   6.294   0.378   0.589  1.7081  1.6433  0.6400
 5044TIP3    H236548   6.260   0.525   0.600  0.5135  1.2928  1.8070
 5045TIP3   OH236549   1.187   3.447  13.718 -0.0666  0.2490 -0.5635
 5045TIP3    H136550   1.234   3.376  13.760 -0.0996  1.2732  1.2519
 5045TIP3    H236551   1.095   3.424  13.727 -0.1497  1.2102  1.3685
 5046TIP3   OH236552   5.115   1.384   0.005 -0.3132  0.2365  0.0669
 5046TIP3    H136553   5.066   1.466   0.005 -1.5851 -0.4844 -1.1010
 5046TIP3    H236554   5.169   1.388   0.083 -2.4771  0.9398  1.5899
 5047TIP3   OH236555   4.381   4.859   0.017 -0.3187 -0.1866  0.2631
 5047TIP3    H136556   4.311   4.881  -0.044  0.5637 -0.6762 -0.9599
 5047TIP3    H236557   4.446   4.928   0.006 -0.4902  0.1308  1.2060
 5048TIP3   OH236558   1.446   0.715   1.577  0.1140  0.6721 -0.2005
 5048TIP3    H136559   1.431   0.620   1.574 -0.3041  0.7943 -2.6316
 5048TIP3    H236560   1.509   0.731   1.507  0.4330  2.1707  0.4159
 5049TIP3   OH236561   3.547   0.545  10.729  0.3503 -0.0496  0.7367
 5049TIP3    H136562   3.513   0.632  10.708 -2.5357 -1.3376 -0.2118
 5049TIP3    H236563   3.513   0.526  10.816  0.6873 -0.3662  0.7997
 5050TIP3   OH236564   4.371   2.200   0.292 -0.4702 -0.7802 -0.1751
 5050TIP3    H136565   4.350   2.117   0.334  0.2039 -0.8383  0.0498
 5050TIP3    H236566   4.395   2.258   0.364 -0.5662 -0.4988 -0.3666
 5051TIP3   OH236567   5.895   3.815  14.453 -0.5918  0.0277  0.3301
 5051TIP3    H136568   5.969   3.846  14.401 -0.3332 -0.2272  0.5487
 5051TIP3    H236569   5.927   3.737  14.497 -1.4876 -1.0573 -0.8845
 5052TIP3   OH236570   2.401   5.558   5.616 -0.2078  0.3186 -0.0001
 5052TIP3    H136571   2.436   5.558   5.705  1.6494 -0.8647 -0.7013
 5052TIP3    H236572   2.324   5.615   5.620 -0.5926 -0.3307  2.5367
 5053TIP3   OH236573   3.643   6.235  16.188  0.0610 -0.4641 -0.8295
 5053TIP3    H136574   3.584   6.169  16.151 -0.9039 -1.2208  1.9485
 5053TIP3    H236575   3.595   6.318  16.181 -0.3604 -0.7015 -0.7192
 5054TIP3   OH236576   3.972   5.960  13.110 -0.3372 -0.0442 -0.4598
 5054TIP3    H136577   3.896   5.901  13.105 -0.0823 -0.5260  1.0840
 5054TIP3    H236578   4.046   5.907  13.079 -0.2125 -0.3449  0.3495
 5055TIP3   OH236579   3.428   6.177  12.023  0.0480 -0.0621 -0.1579
 5055TIP3    H136580   3.470   6.261  12.006 -1.3226  0.6386 -0.1127
 5055TIP3    H236581   3.360   6.170  11.956 -0.2033 -0.8890  0.1759
 5056TIP3   OH236582   1.790   1.678  16.025  0.3280 -0.2026  0.4253
 5056TIP3    H136583   1.853   1.711  15.962 -0.1113 -0.9561 -0.4220
 5056TIP3    H236584   1.705   1.683  15.981  0.0613 -1.0528  0.8144
 5057TIP3   OH236585   0.347   2.111  12.643  0.1906 -0.1433  0.0383
 5057TIP3    H136586   0.353   2.016  12.633 -0.2889 -0.2214  0.5004
 5057TIP3    H236587   0.374   2.127  12.733 -1.1570  0.0245  0.4209
 5058TIP3   OH236588   4.953   1.977  13.894 -0.2306 -1.1267  0.7494
 5058TIP3    H136589   5.001   2.059  13.898 -1.2308 -0.4030 -1.2869
 5058TIP3    H236590   5.019   1.910  13.910  0.9260 -0.0099  0.7356
 5059TIP3   OH236591   3.879   1.894   4.391  0.6083  0.4117  0.0485
 5059TIP3    H136592   3.803   1.952   4.395  0.3691  0.0670  0.5919
 5059TIP3    H236593   3.877   1.847   4.474  0.3518 -0.9423 -0.7198
 5060TIP3   OH236594   1.992   5.479  14.696  0.1509 -0.4818  0.4523
 5060TIP3    H136595   1.977   5.406  14.756 -1.3391 -0.0743  0.6132
 5060TIP3    H236596   2.071   5.522  14.728  1.4699 -2.4833 -0.1030
 5061TIP3   OH236597   0.015   0.790   1.328  0.5422 -0.0160  0.1828
 5061TIP3    H136598   0.013   0.800   1.423 -0.6885  0.4284  0.1194
 5061TIP3    H236599   0.027   0.879   1.294 -1.3521  0.1527 -0.1254
 5062TIP3   OH236600   0.039   3.271   1.119 -0.2993  0.7786  0.4778
 5062TIP3    H136601   0.062   3.272   1.026  1.1582  2.6245  0.8357
 5062TIP3    H236602  -0.039   3.326   1.125  0.3205  1.6627  0.5106
 5063TIP3   OH236603   1.056   3.886   3.820  0.0749 -0.3972  0.2385
 5063TIP3    H136604   1.049   3.808   3.766  1.0849  0.0368 -0.5364
 5063TIP3    H236605   1.136   3.872   3.872  0.2724  0.1250  0.0789
 5064TIP3   OH236606   2.771   5.747   0.208  0.0203 -0.2036 -0.5246
 5064TIP3    H136607   2.835   5.757   0.278 -0.1577 -0.1443 -0.3716
 5064TIP3    H236608   2.711   5.821   0.218 -0.1054 -0.2887 -0.6329
 5065TIP3   OH236609   0.021   0.418  14.943  0.2594  0.5751 -0.2468
 5065TIP3    H136610  -0.032   0.340  14.959  1.3362 -0.0960  0.0762
 5065TIP3    H236611   0.024   0.426  14.847  1.3097 -0.5797 -0.3107
 5066TIP3   OH236612   6.091   6.334   1.463 -0.0129  0.0795  0.5515
 5066TIP3    H136613   6.007   6.381   1.461 -1.1341 -1.8889  0.0936
 5066TIP3    H236614   6.106   6.309   1.371  0.5266 -0.5252  0.8033
 5067TIP3   OH236615   6.752   1.807  17.036  0.6731  0.5822  0.2357
 5067TIP3    H136616   6.807   1.859  16.977 -0.2526  0.1628 -1.0312
 5067TIP3    H236617   6.679   1.865  17.058 -0.5083 -0.2202 -1.4068
 5068TIP3   OH236618   3.650   2.224  13.616  0.1306  0.4916 -0.3175
 5068TIP3    H136619   3.672   2.132  13.624 -1.6177  0.2783  2.7399
 5068TIP3    H236620   3.615   2.233  13.527 -1.8050 -2.2827  0.1129
 5069TIP3   OH236621   6.692   1.744   1.250  0.4475  0.3587  0.3665
 5069TIP3    H136622   6.694   1.652   1.277  1.5821  0.9071  2.2567
 5069TIP3    H236623   6.749   1.749   1.174 -2.0916 -1.0598 -1.7361
 5070TIP3   OH236624   2.589   4.805  12.513  0.8147  0.5568  0.0306
 5070TIP3    H136625   2.636   4.721  12.513 -1.4425 -0.7488 -1.1572
 5070TIP3    H236626   2.615   4.846  12.431  0.4313  0.1501 -0.2971
 5071TIP3   OH236627   4.231   3.998  12.385 -0.4651 -0.2040  0.1637
 5071TIP3    H136628   4.231   4.085  12.424 -0.1435  1.2591 -2.9592
 5071TIP3    H236629   4.323   3.978  12.370 -0.3914 -2.0195  2.7749
 5072TIP3   OH236630   2.825   4.602  14.792 -0.1722 -0.3360 -0.1581
 5072TIP3    H136631   2.781   4.659  14.727 -2.6175 -1.6994  0.2263
 5072TIP3    H236632   2.849   4.524  14.742 -0.8221 -0.8047  0.2490
 5073TIP3   OH236633   4.929   4.023  14.261 -0.4613 -0.3177 -0.6543
 5073TIP3    H136634   4.965   4.075  14.333 -0.8647  2.1283 -2.1278
 5073TIP3    H236635   5.005   3.989  14.215 -0.1271  0.1731 -0.4710
 5074TIP3   OH236636   2.884   5.739  11.758  0.5263  0.8656  0.0140
 5074TIP3    H136637   2.920   5.683  11.827  0.1204  0.1006 -0.3840
 5074TIP3    H236638   2.807   5.691  11.726  0.8234  1.1192 -1.0980
 5075TIP3   OH236639   2.583   5.534  15.440 -0.4359 -0.2625 -0.3925
 5075TIP3    H136640   2.589   5.617  15.394 -1.5222 -0.0336 -0.1349
 5075TIP3    H236641   2.493   5.532  15.475  0.2368 -0.5840  1.3915
 5076TIP3   OH236642   0.918   0.009   5.697 -0.0070 -0.1938 -0.3094
 5076TIP3    H136643   0.961   0.081   5.651  1.4068 -1.6017 -1.2772
 5076TIP3    H236644   0.990  -0.037   5.741 -0.7241 -1.6986 -0.6845
 5077TIP3   OH236645   6.397   5.350   0.380 -0.1472 -0.2672  0.4723
 5077TIP3    H136646   6.490   5.329   0.377 -0.0567 -0.4167  3.0958
 5077TIP3    H236647   6.368   5.321   0.467 -3.2097 -2.4872 -1.1719
 5078TIP3   OH236648   6.363   0.270   0.459 -0.1073 -0.3945 -0.0240
 5078TIP3    H136649   6.423   0.302   0.392  0.9871 -2.5884 -0.1449
 5078TIP3    H236650   6.331   0.186   0.425 -1.8249 -0.1249  0.8646
 5079TIP3   OH236651   4.747   5.695  13.181 -0.3426  0.1235 -0.4999
 5079TIP3    H136652   4.835   5.725  13.160  0.1006  0.7070  1.9755
 5079TIP3    H236653   4.718   5.753  13.252 -2.2429 -0.8175 -0.4698
 5080TIP3   OH236654   1.264   5.750  11.353  0.2059  0.0112 -0.7222
 5080TIP3    H136655   1.317   5.682  11.311  0.8955 -0.1828  0.4634
 5080TIP3    H236656   1.308   5.768  11.436 -0.9590  0.6478 -0.2299
 5081TIP3   OH236657   5.587   4.237   2.030 -0.1475 -0.0070 -0.5800
 5081TIP3    H136658   5.576   4.311   2.090  0.9428  0.3993 -0.8677
 5081TIP3    H236659   5.649   4.178   2.076 -0.5622 -0.4638 -0.6031
 5082TIP3   OH236660   0.954   4.509  14.150 -0.2571 -0.3513 -0.5917
 5082TIP3    H136661   0.869   4.509  14.106  0.3296  0.3611 -1.7819
 5082TIP3    H236662   0.946   4.574  14.219 -1.5120 -2.1929  1.0319
 5083TIP3   OH236663   0.320   4.198  15.433  0.2674 -0.0177  0.2277
 5083TIP3    H136664   0.308   4.291  15.417 -0.6056 -0.1233  0.2325
 5083TIP3    H236665   0.294   4.185  15.524  0.8901 -0.1786  0.3839
 5084TIP3   OH236666   2.184   5.879  13.042  0.4634  0.5626  0.4858
 5084TIP3    H136667   2.246   5.951  13.054  0.9227  0.1603  0.5589
 5084TIP3    H236668   2.218   5.809  13.097 -0.9685  0.8873  1.7976
 5085TIP3   OH236669   6.055   3.885   5.044  0.2849  0.1584  0.2800
 5085TIP3    H136670   5.991   3.817   5.064 -0.4591  0.2872 -1.5911
 5085TIP3    H236671   6.031   3.958   5.102 -1.1225  0.1283 -0.2548
 5086TIP3   OH236672   3.155   2.169  15.396  0.2771  0.1158  0.1301
 5086TIP3    H136673   3.136   2.234  15.463 -0.7327  2.3356 -2.2050
 5086TIP3    H236674   3.234   2.125  15.427 -0.5064  0.6619  3.0329
 5087TIP3   OH236675   0.850   5.590  10.861  0.2005 -0.0066  0.3160
 5087TIP3    H136676   0.879   5.658  10.800  1.5238 -0.9777 -0.1594
 5087TIP3    H236677   0.918   5.587  10.928  0.4314 -1.2377  0.0367
 5088TIP3   OH236678   6.270   3.491   1.551  0.3225  0.2220  0.3571
 5088TIP3    H136679   6.358   3.454   1.561  0.9509  1.6673  0.2087
 5088TIP3    H236680   6.235   3.494   1.640  0.5053 -0.1365  0.4419
 5089TIP3   OH236681   4.557   4.754   3.283  0.3612  0.5603  0.4611
 5089TIP3    H136682   4.614   4.681   3.260  0.1319  0.2591  0.8462
 5089TIP3    H236683   4.603   4.832   3.252  1.7228  0.4672  2.1877
 5090TIP3   OH236684   2.488   3.556   4.237 -0.6344 -0.4180 -0.2829
 5090TIP3    H136685   2.505   3.462   4.231 -1.4478 -0.6004  0.2435
 5090TIP3    H236686   2.464   3.571   4.328  0.0004  0.3912 -0.2432
 5091TIP3   OH236687   1.442   6.617  12.503  0.2032 -0.2584  0.2739
 5091TIP3    H136688   1.437   6.609  12.408 -1.5997 -0.8475  0.3977
 5091TIP3    H236689   1.447   6.711  12.519  0.3761 -0.1536 -0.3944
 5092TIP3   OH236690   0.438   2.840  11.895 -0.0784  0.7606 -0.2845
 5092TIP3    H136691   0.527   2.832  11.930  0.2158  1.6063 -0.8063
 5092TIP3    H236692   0.441   2.797  11.810 -1.1091 -2.3665  1.2079
 5093TIP3   OH236693   6.450   6.692   0.250 -0.0142  0.5871 -0.5091
 5093TIP3    H136694   6.471   6.691   0.157  2.4654 -0.8651  0.0099
 5093TIP3    H236695   6.533   6.713   0.293 -1.2020  1.6158  1.3654
 5094TIP3   OH236696   5.171   0.510  10.821 -0.2980  0.1728 -0.3316
 5094TIP3    H136697   5.098   0.450  10.837  0.5666 -0.7654  0.1554
 5094TIP3    H236698   5.130   0.596  10.809 -1.4787 -0.3594 -0.1263
 5095TIP3   OH236699   6.066   3.353  14.847 -0.0161  0.0814  0.3739
 5095TIP3    H136700   5.983   3.367  14.802 -1.1611 -0.3241  2.3517
 5095TIP3    H236701   6.063   3.411  14.922  1.3009 -0.2845  0.7216
 5096TIP3   OH236702   5.179   5.694   2.085  0.4600 -0.0510 -0.5122
 5096TIP3    H136703   5.200   5.785   2.064  0.2742 -0.3318 -1.9566
 5096TIP3    H236704   5.227   5.676   2.166  0.7083  1.2440 -0.3639
 5097TIP3   OH236705   1.901   5.883  13.127  0.3696 -0.0191 -0.5130
 5097TIP3    H136706   1.880   5.888  13.221 -1.3855 -0.2254 -0.8844
 5097TIP3    H236707   1.983   5.833  13.124 -0.0940 -0.8898  0.8479
 5098TIP3   OH236708   2.375   0.985   4.733  0.0642 -0.7594 -0.2538
 5098TIP3    H136709   2.336   1.016   4.652 -1.8404 -2.5047 -0.0399
 5098TIP3    H236710   2.441   0.922   4.705 -1.2136 -2.0412 -0.4567
 5099TIP3   OH236711   0.360   2.600   6.550 -0.2211  0.0410 -0.1236
 5099TIP3    H136712   0.350   2.635   6.639 -0.2846  2.2875 -1.0051
 5099TIP3    H236713   0.354   2.676   6.493 -1.1799 -1.5001 -2.1463
 5100TIP3   OH236714   1.003   5.273   3.275  0.2762  0.2507 -0.3973
 5100TIP3    H136715   1.055   5.296   3.352 -0.0795 -0.5790  0.0964
 5100TIP3    H236716   0.913   5.268   3.307  0.3715 -2.1263 -0.3959
 5101TIP3   OH236717   4.193   6.340  11.227 -0.0915 -0.1810  0.0762
 5101TIP3    H136718   4.264   6.382  11.276 -0.5231  0.0023  0.5450
 5101TIP3    H236719   4.215   6.356  11.135 -1.1347  2.5447  0.2617
 5102TIP3   OH236720   1.462   6.239   5.025 -0.2446 -0.1119  0.3857
 5102TIP3    H136721   1.485   6.330   5.012  1.0709 -0.3319  1.1861
 5102TIP3    H236722   1.389   6.241   5.088 -1.1655  0.4501 -0.6753
 5103TIP3   OH236723   5.414   1.706   0.060 -0.3614  0.1802 -0.1523
 5103TIP3    H136724   5.487   1.766   0.076 -0.8617  0.9706 -0.7841
 5103TIP3    H236725   5.441   1.624   0.100  1.1743  0.2723 -0.9519
 5104TIP3   OH236726   4.210   4.848  13.334 -0.3101  0.5050 -0.3040
 5104TIP3    H136727   4.288   4.894  13.302 -0.8412  0.6824 -1.3359
 5104TIP3    H236728   4.226   4.838  13.428  0.9569  0.5448 -0.5065
 5105TIP3   OH236729   2.724   5.392  16.777 -0.8059 -0.1201  0.8503
 5105TIP3    H136730   2.763   5.472  16.741 -1.0470 -0.1783  0.4640
 5105TIP3    H236731   2.686   5.419  16.861 -1.7942  0.3935  0.2443
 5106TIP3   OH236732   0.996   4.956   1.131  0.0247 -0.5489  0.4962
 5106TIP3    H136733   1.031   4.873   1.162 -0.3361 -0.4855  1.1018
 5106TIP3    H236734   1.012   4.957   1.037  2.3775 -0.1624  0.8794
 5107TIP3   OH236735   5.455   0.797  16.805  0.0344 -0.3822 -0.4083
 5107TIP3    H136736   5.512   0.866  16.838 -0.8790  0.4060 -0.4714
 5107TIP3    H236737   5.513   0.722  16.792  0.6539 -0.2702  1.6401
 5108TIP3   OH236738   0.740   5.912   2.289 -0.1953 -0.2289 -0.3439
 5108TIP3    H136739   0.724   5.842   2.353  0.7408 -1.2114 -1.1615
 5108TIP3    H236740   0.824   5.950   2.316  0.7741 -1.4080 -1.6480
 5109TIP3   OH236741   0.112   6.520   4.408 -0.3752  0.0851 -0.0584
 5109TIP3    H136742   0.164   6.516   4.328 -0.0832  1.7621  0.0253
 5109TIP3    H236743   0.170   6.485   4.476 -0.5925 -1.2527 -0.5344
 5110TIP3   OH236744   5.152   1.606   5.224 -0.0300 -0.2728  0.1698
 5110TIP3    H136745   5.145   1.524   5.272  1.2657 -1.0172 -0.9140
 5110TIP3    H236746   5.085   1.663   5.265 -0.6482 -1.7020  1.1848
 5111TIP3   OH236747   4.595   6.063  15.280  0.0015  0.0893  0.2377
 5111TIP3    H136748   4.610   6.134  15.342  1.0640 -0.7394  0.9539
 5111TIP3    H236749   4.554   5.994  15.333 -0.5211 -0.0372 -0.3298
 5112TIP3   OH236750   4.020   1.069  14.576  0.8732  0.2085 -0.0051
 5112TIP3    H136751   3.934   1.094  14.544  0.8066 -0.3321 -0.2575
 5112TIP3    H236752   4.072   1.054  14.497  0.9478 -0.3038  0.1360
 5113TIP3   OH236753   3.739   5.152   0.881  0.2134  0.4227 -0.1048
 5113TIP3    H136754   3.680   5.147   0.956  0.5939  1.5114  0.2834
 5113TIP3    H236755   3.799   5.079   0.892 -0.4471 -0.1034  0.0251
 5114TIP3   OH236756   1.442   3.724   0.628 -0.0910 -0.6416  0.2002
 5114TIP3    H136757   1.467   3.726   0.536  0.1534 -0.6171  0.2668
 5114TIP3    H236758   1.495   3.653   0.666 -1.1440 -1.5217  0.0492
 5115TIP3   OH236759   3.941   3.327  14.161 -0.5670 -0.1768 -0.3629
 5115TIP3    H136760   3.939   3.315  14.066  0.8418  1.0227 -0.5658
 5115TIP3    H236761   4.014   3.386  14.176 -2.5000  1.9040  1.2280
 5116TIP3   OH236762   5.805   6.179   1.224 -0.1265 -0.3843 -0.0365
 5116TIP3    H136763   5.893   6.216   1.231 -1.1963  2.3499 -0.2066
 5116TIP3    H236764   5.814   6.107   1.162  2.4089 -1.6216  1.6856
 5117TIP3   OH236765   4.623   4.840   6.488 -0.6252 -0.0366  0.7075
 5117TIP3    H136766   4.566   4.767   6.512 -2.0890  1.5177  2.0506
 5117TIP3    H236767   4.649   4.879   6.572  1.7150 -0.1762  0.0813
 5118TIP3   OH236768   1.717   3.084  15.676 -0.0988  0.1077  0.0348
 5118TIP3    H136769   1.661   3.064  15.752 -0.9100  0.6740 -0.4087
 5118TIP3    H236770   1.691   3.020  15.610  0.4244 -0.2179  0.1463
 5119TIP3   OH236771   0.848   3.164  10.560  0.0332  0.6153  0.1636
 5119TIP3    H136772   0.943   3.180  10.559  0.0154  0.7080 -2.3245
 5119TIP3    H236773   0.841   3.068  10.562  0.2292  0.5278 -1.8569
 5120TIP3   OH236774   5.205   3.097  11.073  0.4128  0.5392 -0.1600
 5120TIP3    H136775   5.134   3.094  11.137  0.2742 -0.3664 -0.3590
 5120TIP3    H236776   5.277   3.141  11.119 -0.0113  0.7496  0.2997
 5121TIP3   OH236777   3.644   4.525   3.379 -0.0392 -0.4784 -0.4409
 5121TIP3    H136778   3.683   4.580   3.311  0.2696  2.7923  2.2021
 5121TIP3    H236779   3.710   4.522   3.448 -1.5373 -1.0390  1.0181
 5122TIP3   OH236780   4.551   0.260   5.322 -0.0481 -0.1169 -0.5050
 5122TIP3    H136781   4.637   0.255   5.280 -0.8785 -0.3800 -2.2309
 5122TIP3    H236782   4.566   0.230   5.411  1.7452  0.3076 -0.6535
 5123TIP3   OH236783   0.544   0.425   3.722  0.6041  0.0882  0.3911
 5123TIP3    H136784   0.542   0.362   3.649 -3.0326  0.8153 -0.2079
 5123TIP3    H236785   0.577   0.374   3.796  0.5853 -1.7077 -0.7927
 5124TIP3   OH236786   3.409   3.462   2.218 -0.5545 -0.8008 -0.1396
 5124TIP3    H136787   3.426   3.414   2.300 -0.5874  2.3082  1.7614
 5124TIP3    H236788   3.313   3.466   2.214 -0.5396  0.8272  0.7843
 5125TIP3   OH236789   1.031   0.182   1.960  0.7020  1.0474 -0.7876
 5125TIP3    H136790   0.937   0.191   1.978  0.1739  1.8161 -3.6617
 5125TIP3    H236791   1.070   0.262   1.994  0.3127  0.7898  0.2902
 5126TIP3   OH236792   0.000   4.830  10.939  0.4625  0.4833 -0.1187
 5126TIP3    H136793   0.061   4.829  10.865  0.5941 -0.6465 -0.0082
 5126TIP3    H236794  -0.085   4.848  10.900  0.5953  0.2910 -0.5030
 5127TIP3   OH236795   5.062   1.049  14.239 -0.0634  0.0492  0.3405
 5127TIP3    H136796   5.086   1.109  14.309  0.9868  0.9748 -0.7861
 5127TIP3    H236797   4.972   1.074  14.215  0.6873  1.7920 -0.7344
 5128TIP3   OH236798   0.394   2.281  16.343 -0.0297  0.4991  0.2929
 5128TIP3    H136799   0.350   2.345  16.287 -2.1720 -0.8432  0.3981
 5128TIP3    H236800   0.428   2.215  16.283 -2.9869 -1.3410  0.5465
 5129TIP3   OH236801   1.815   4.871   1.240 -1.2191 -0.5491  0.3408
 5129TIP3    H136802   1.900   4.914   1.235  0.2189 -3.2795 -0.2581
 5129TIP3    H236803   1.751   4.941   1.228  1.0204  1.1733 -2.3135
 5130TIP3   OH236804   4.725   0.403   3.644  0.1247  0.3525 -0.2983
 5130TIP3    H136805   4.700   0.356   3.565  0.2246  0.0986 -0.1794
 5130TIP3    H236806   4.738   0.493   3.616  0.8962  0.1131 -0.7085
 5131TIP3   OH236807   0.973   2.206  14.292 -0.4979  0.0581  0.2601
 5131TIP3    H136808   0.888   2.168  14.270 -1.2754  1.7389  0.3341
 5131TIP3    H236809   0.962   2.240  14.381  1.5893 -3.6201  2.0282
 5132TIP3   OH236810   3.392   3.317   3.063  0.2855  0.2930  0.2522
 5132TIP3    H136811   3.316   3.259   3.062  1.5730 -1.4481 -2.0033
 5132TIP3    H236812   3.410   3.335   2.971  1.6036  2.0606  0.8229
 5133TIP3   OH236813   3.663   0.748   0.037 -0.1910  0.4736 -0.1490
 5133TIP3    H136814   3.723   0.719   0.106  0.6766  1.7182 -0.3636
 5133TIP3    H236815   3.596   0.680   0.033  1.2872 -1.0140 -0.0183
 5134TIP3   OH236816   5.060   0.032  15.510 -0.3861  0.3034  0.0170
 5134TIP3    H136817   5.092  -0.053  15.539 -1.2658  0.0222  0.2002
 5134TIP3    H236818   5.026   0.074  15.589 -1.4032  0.1618 -0.3326
 5135TIP3   OH236819   6.372   1.457  16.200  1.0753  0.5020  0.0756
 5135TIP3    H136820   6.436   1.397  16.162 -0.6363 -1.1488 -0.3169
 5135TIP3    H236821   6.289   1.410  16.193 -0.1325  2.4615  0.8442
 5136TIP3   OH236822   3.838   4.265   0.846 -0.2446 -0.0211  0.3857
 5136TIP3    H136823   3.887   4.245   0.767  0.9389  1.2690  0.7747
 5136TIP3    H236824   3.899   4.247   0.917 -0.8955 -0.0046  0.9491
 5137TIP3   OH236825   3.675   0.507  16.288 -0.4793  0.5319 -0.0811
 5137TIP3    H136826   3.685   0.477  16.378 -0.6325 -0.2464 -0.3232
 5137TIP3    H236827   3.695   0.601  16.292  2.6348 -0.1029  0.2216
 5138TIP3   OH236828   5.752   0.104   2.707 -0.4689 -0.1834  0.2401
 5138TIP3    H136829   5.795   0.189   2.720  0.4425 -0.7370  0.9218
 5138TIP3    H236830   5.673   0.124   2.657 -0.6913  1.1751  1.1198
 5139TIP3   OH236831   6.097   0.207   2.907 -0.2429  0.1190  0.5648
 5139TIP3    H136832   6.096   0.120   2.867 -0.8805  0.4471 -0.1373
 5139TIP3    H236833   6.172   0.251   2.867  0.9641 -0.5997  1.9942
 5140TIP3   OH236834   0.314   0.157  13.372  0.3818 -0.6352 -0.7752
 5140TIP3    H136835   0.237   0.106  13.397  1.3184  0.0689  4.0902
 5140TIP3    H236836   0.281   0.246  13.361  0.1222 -0.7639 -1.0504
 5141TIP3   OH236837   3.762   0.762   3.529  0.3284  0.1265  0.2465
 5141TIP3    H136838   3.690   0.821   3.507  1.1748  1.0493 -0.1111
 5141TIP3    H236839   3.840   0.807   3.498  0.8619 -1.8960 -1.4447
 5142TIP3   OH236840   4.353   0.395   4.513  0.2220 -0.4881  0.6335
 5142TIP3    H136841   4.287   0.376   4.580  0.3826  1.6092  1.4040
 5142TIP3    H236842   4.435   0.361   4.549  0.1228 -0.2808  1.0519
 5143TIP3   OH236843   2.619   5.077  16.041 -0.5877 -0.2420  0.1396
 5143TIP3    H136844   2.546   5.136  16.059 -1.5750 -1.3827 -0.0664
 5143TIP3    H236845   2.645   5.098  15.951 -1.9254 -1.1473 -0.4737
 5144TIP3   OH236846   1.733   2.436   4.808  0.0549  0.0408  0.5283
 5144TIP3    H136847   1.715   2.421   4.901 -1.9566 -1.0183  0.0135
 5144TIP3    H236848   1.803   2.374   4.787 -2.9839 -3.4498  0.2035
 5145TIP3   OH236849   2.646   3.104  16.758 -0.1919  0.3070  0.2954
 5145TIP3    H136850   2.657   3.103  16.663  1.9742  0.3656  0.5362
 5145TIP3    H236851   2.644   3.012  16.783 -0.9857  0.2866  0.1968
 5146TIP3   OH236852   5.200   2.317   3.226 -0.3429 -0.4788  0.4217
 5146TIP3    H136853   5.158   2.345   3.307 -0.7932  0.3440 -0.0871
 5146TIP3    H236854   5.286   2.360   3.227 -0.9437  0.7608 -0.2495
 5147TIP3   OH236855   1.692   3.183  13.842  0.5770  0.6587 -0.1129
 5147TIP3    H136856   1.680   3.158  13.933  2.7657 -0.0783 -0.0056
 5147TIP3    H236857   1.707   3.101  13.796 -2.4722  0.8138 -1.5162
 5148TIP3   OH236858   0.445   4.825   3.091 -0.2039  0.5739  0.1958
 5148TIP3    H136859   0.494   4.859   3.166  0.2655 -0.1352  0.2144
 5148TIP3    H236860   0.445   4.730   3.103  1.5068  0.3092 -1.6993
 5149TIP3   OH236861   3.669   0.327   4.068 -0.0304  0.0613  0.9115
 5149TIP3    H136862   3.725   0.395   4.105  0.4485 -0.6334  1.4673
 5149TIP3    H236863   3.726   0.251   4.058 -0.2522  0.1214 -0.9112
 5150TIP3   OH236864   5.968   4.104   5.193 -0.0122 -0.5300  0.8031
 5150TIP3    H136865   6.029   4.117   5.266  0.0340  0.5291  0.5876
 5150TIP3    H236866   5.891   4.155   5.217 -0.4478 -1.1063  0.6373
 5151TIP3   OH236867   5.346   1.572   4.264 -0.3266 -0.4401  0.1904
 5151TIP3    H136868   5.432   1.615   4.270 -0.0608 -0.8378 -0.6447
 5151TIP3    H236869   5.365   1.479   4.278 -1.0972 -0.1364  3.4564
 5152TIP3   OH236870   0.962   3.882   4.392 -0.1413  0.1537 -0.3237
 5152TIP3    H136871   0.931   3.877   4.302  0.0617  0.3601 -0.4029
 5152TIP3    H236872   0.924   3.805   4.434  0.7213 -0.5914 -0.8781
 5153TIP3   OH236873   0.364   5.774  16.397  1.0222  0.3790 -0.2336
 5153TIP3    H136874   0.347   5.740  16.485 -0.4432 -0.4030 -0.8010
 5153TIP3    H236875   0.458   5.792  16.396  1.2549 -0.6588  1.1204
 5154TIP3   OH236876   5.573   2.756  16.308 -0.5474  0.3136 -0.0471
 5154TIP3    H136877   5.645   2.818  16.298 -0.5634  0.2808 -0.3668
 5154TIP3    H236878   5.494   2.810  16.303 -0.5204  0.5909  1.9974
 5155TIP3   OH236879   0.909   6.220   5.233  0.4377 -0.1334 -0.2680
 5155TIP3    H136880   0.896   6.295   5.291 -0.3722 -0.2430 -0.3024
 5155TIP3    H236881   0.822   6.180   5.226  0.5044 -0.0526 -1.6617
 5156TIP3   OH236882   3.911   0.595  15.990  0.1367  0.0113 -0.1849
 5156TIP3    H136883   3.904   0.691  15.985 -0.1950 -0.0493 -1.0695
 5156TIP3    H236884   3.962   0.572  15.912 -0.1973 -0.5710 -0.2308
 5157TIP3   OH236885   3.249   0.598   3.942  1.1321  0.6293  0.5543
 5157TIP3    H136886   3.331   0.628   3.904  1.1700  0.8755  0.8225
 5157TIP3    H236887   3.263   0.506   3.962  0.5555  0.0626 -1.5356
 5158TIP3   OH236888   3.826   3.738  16.291  0.3341 -0.0090  0.2826
 5158TIP3    H136889   3.806   3.828  16.269 -0.5142 -0.1372  0.5221
 5158TIP3    H236890   3.893   3.744  16.360  2.1827  0.4005 -1.4772
 5159TIP3   OH236891   2.694   5.109  16.496  0.3562 -0.2151  0.2390
 5159TIP3    H136892   2.726   5.056  16.569  0.2137 -1.2947 -0.4630
 5159TIP3    H236893   2.623   5.057  16.458  1.5396 -0.4723 -1.6984
 5160TIP3   OH236894   0.104   2.432   4.047 -0.1108  0.0794  0.4211
 5160TIP3    H136895   0.095   2.511   3.993 -0.2147 -0.1385  0.1143
 5160TIP3    H236896   0.053   2.450   4.125 -1.1985 -0.1889 -0.2251
 5161TIP3   OH236897   0.123   0.512  11.007 -0.1856 -0.3550  0.0965
 5161TIP3    H136898   0.148   0.593  10.962 -0.1984 -2.0416 -3.1407
 5161TIP3    H236899   0.028   0.508  10.997 -0.1052 -1.1173 -0.4247
 5162TIP3   OH236900   2.108   3.043  10.447  0.2324 -0.0114 -0.0013
 5162TIP3    H136901   2.169   3.040  10.373  0.2967  1.5151 -0.0101
 5162TIP3    H236902   2.147   3.106  10.507 -0.8738  0.2747  0.4085
 5163TIP3   OH236903   6.427   1.426  14.219 -0.0558  0.0335  0.1009
 5163TIP3    H136904   6.487   1.420  14.144  1.6446 -0.9728  1.5033
 5163TIP3    H236905   6.418   1.520  14.234 -2.1627  0.3475 -2.6868
 5164TIP3   OH236906   3.835   5.102  14.377  0.5407 -0.7999 -0.4631
 5164TIP3    H136907   3.801   5.118  14.465  0.1533 -0.7266 -0.6230
 5164TIP3    H236908   3.893   5.176  14.359  0.9171 -1.0124 -0.1217
 5165TIP3   OH236909   0.674   2.699  15.530 -0.1867  0.3790 -0.2338
 5165TIP3    H136910   0.623   2.710  15.610  0.8855  1.5398  0.3234
 5165TIP3    H236911   0.757   2.744  15.549  0.7529 -0.8395 -1.3658
 5166TIP3   OH236912   5.907   5.754   4.673  0.7929  0.0557  0.1498
 5166TIP3    H136913   5.836   5.700   4.708  1.3388 -0.6283  0.2185
 5166TIP3    H236914   5.936   5.808   4.746  0.1126  0.5890  0.0293
 5167TIP3   OH236915   5.070   3.559  12.398  0.1027  0.3643 -0.1004
 5167TIP3    H136916   5.139   3.624  12.381 -1.7736  2.2210 -0.8299
 5167TIP3    H236917   4.996   3.589  12.345 -1.9385 -0.4376  2.2473
 5168TIP3   OH236918   5.900   4.974   3.762 -0.2705  0.0134  0.4600
 5168TIP3    H136919   5.962   5.038   3.795  0.4762 -0.6529  0.3773
 5168TIP3    H236920   5.950   4.923   3.698 -0.5834 -1.2230  1.1720
 5169TIP3   OH236921   5.653   5.344   5.040  0.2992  0.2787 -0.3842
 5169TIP3    H136922   5.595   5.269   5.050 -0.5855  0.6572 -2.4914
 5169TIP3    H236923   5.603   5.418   5.075 -0.3448  0.5306 -1.8106
 5170TIP3   OH236924   4.520   4.575   1.409  0.1318 -0.1536 -0.2342
 5170TIP3    H136925   4.459   4.504   1.388 -0.3305 -0.0811  0.8317
 5170TIP3    H236926   4.539   4.564   1.502  3.0384 -1.1370 -0.9094
 5171TIP3   OH236927   4.619   1.825   6.149  0.1195 -0.3105  0.2978
 5171TIP3    H136928   4.626   1.914   6.184 -0.5636 -0.1239 -0.0399
 5171TIP3    H236929   4.619   1.769   6.226  0.0077  0.0115  0.5334
 5172TIP3   OH236930   6.169   5.433   2.279 -0.3939  0.1577  0.0092
 5172TIP3    H136931   6.109   5.444   2.205  0.6815 -0.0233 -0.9079
 5172TIP3    H236932   6.144   5.502   2.340 -0.4958  1.1034 -1.0793
 5173TIP3   OH236933   3.642   5.471   3.223 -0.4799  0.1344 -0.5774
 5173TIP3    H136934   3.669   5.461   3.131 -1.2684  0.7369 -0.8755
 5173TIP3    H236935   3.597   5.555   3.226  2.3210  1.6673  1.0248
 5174TIP3   OH236936   6.710   3.816  12.143 -0.4696  0.7089 -0.0257
 5174TIP3    H136937   6.799   3.831  12.174 -0.1734 -2.2525  0.7056
 5174TIP3    H236938   6.720   3.806  12.048 -0.1116  0.8695 -0.0078
 5175TIP3   OH236939   0.060   4.927  12.839  0.1222 -0.1057  0.2736
 5175TIP3    H136940  -0.009   4.957  12.898  0.7117  0.0812  0.8721
 5175TIP3    H236941   0.060   4.831  12.849  1.9798  0.0957  2.5804
 5176TIP3   OH236942   2.369   6.600  14.717  0.5490  0.7378  0.8520
 5176TIP3    H136943   2.413   6.560  14.792  1.6283 -0.8043 -0.5641
 5176TIP3    H236944   2.275   6.585  14.733  0.8879 -1.7260  0.7417
 5177TIP3   OH236945   6.116   6.410   0.556  0.1728  0.5712 -0.1303
 5177TIP3    H136946   6.075   6.469   0.620  1.2779 -0.2487  1.3581
 5177TIP3    H236947   6.208   6.436   0.555  0.1443  0.6162 -1.4497
 5178TIP3   OH236948   4.271   1.796  13.118 -0.1914  0.2066 -0.2454
 5178TIP3    H136949   4.342   1.850  13.151  0.3766 -0.8409  0.2909
 5178TIP3    H236950   4.212   1.785  13.192  0.6905 -1.5034  0.2377
 5179TIP3   OH236951   5.018   4.877   5.038  0.2776 -0.0753  0.7900
 5179TIP3    H136952   5.028   4.942   5.107 -0.8892  0.7186  0.2283
 5179TIP3    H236953   5.054   4.797   5.075  1.9526  0.9493  1.3872
 5180TIP3   OH236954   4.957   5.707   4.313 -0.7141  0.5025  0.2826
 5180TIP3    H136955   4.993   5.619   4.300 -0.9411  0.3208  0.8763
 5180TIP3    H236956   4.862   5.694   4.316 -0.6945  0.6152  1.5396
 5181TIP3   OH236957   0.227   3.744  12.489 -0.0236 -0.1517 -0.1009
 5181TIP3    H136958   0.270   3.786  12.563 -0.2250 -0.0621 -0.0342
 5181TIP3    H236959   0.187   3.666  12.525 -1.0144  0.4437  0.0942
 5182TIP3   OH236960   2.853   3.599  15.369 -0.0708  0.4505  0.2441
 5182TIP3    H136961   2.868   3.513  15.330  0.6024  0.3420  0.7303
 5182TIP3    H236962   2.815   3.580  15.454  2.2575  0.5382  1.3457
 5183TIP3   OH236963   1.254   3.895   0.028  0.2319  0.2406  0.0572
 5183TIP3    H136964   1.199   3.908  -0.049 -0.9095 -0.7465  0.7020
 5183TIP3    H236965   1.215   3.951   0.095 -1.0326 -1.7867  1.0290
 5184TIP3   OH236966   4.229   2.712   3.372 -0.5403  0.6364 -0.0021
 5184TIP3    H136967   4.295   2.780   3.388  1.5370 -1.1747 -0.4977
 5184TIP3    H236968   4.229   2.660   3.452 -0.2400 -0.2606 -0.5793
 5185TIP3   OH236969   0.362   2.401  11.220  0.3062  0.0934 -0.2271
 5185TIP3    H136970   0.326   2.344  11.288 -1.7416 -0.4991 -1.7423
 5185TIP3    H236971   0.418   2.344  11.168  2.1379  0.6237  1.1323
 5186TIP3   OH236972   0.686   5.647  15.797  0.1693 -0.9564 -0.1139
 5186TIP3    H136973   0.725   5.711  15.856  3.1309 -2.7449 -0.0307
 5186TIP3    H236974   0.705   5.562  15.839 -1.3804 -2.0204 -1.5225
 5187TIP3   OH236975   1.031   2.109  14.753 -0.1722 -0.2483 -0.8383
 5187TIP3    H136976   0.967   2.039  14.766  1.0930 -1.4360 -0.7834
 5187TIP3    H236977   1.054   2.138  14.841 -0.5323  0.0748 -0.8532
 5188TIP3   OH236978   6.013   0.876   0.410 -0.1921 -0.1492 -0.3688
 5188TIP3    H136979   6.021   0.786   0.378 -0.5022 -0.1325 -0.4932
 5188TIP3    H236980   6.018   0.868   0.505 -1.9456 -0.4932 -0.2872
 5189TIP3   OH236981   4.954   4.653  13.426  0.4342  0.5359 -0.1359
 5189TIP3    H136982   5.041   4.688  13.445 -0.1858  0.8487  2.3457
 5189TIP3    H236983   4.941   4.585  13.492 -1.8775  1.6775  0.6626
 5190TIP3   OH236984   6.753   5.635   5.887  0.3298 -0.1612  0.4227
 5190TIP3    H136985   6.843   5.607   5.871 -0.1290 -0.7045 -1.3493
 5190TIP3    H236986   6.702   5.554   5.886 -0.2503  0.1939  0.8681
 5191TIP3   OH236987   6.591   5.351  10.473  0.3539 -0.0746 -0.0127
 5191TIP3    H136988   6.640   5.403  10.410 -0.1570 -0.2580 -0.5688
 5191TIP3    H236989   6.560   5.275  10.423 -2.1409  0.9985 -0.1952
 5192TIP3   OH236990   3.123   0.810  16.063  0.7202 -0.1321 -0.0954
 5192TIP3    H136991   3.070   0.835  16.139 -2.0488 -1.4247 -1.5605
 5192TIP3    H236992   3.177   0.737  16.095  0.5029  0.1583  0.9605
 5193TIP3   OH236993   3.258   1.414   2.714  0.0579 -0.2746  0.1850
 5193TIP3    H136994   3.173   1.370   2.714  0.7454 -1.6604  1.1864
 5193TIP3    H236995   3.275   1.434   2.622 -1.2456 -0.1796 -0.0401
 5194TIP3   OH236996   4.185   4.533  13.153 -0.1855  0.5138 -0.1572
 5194TIP3    H136997   4.128   4.583  13.211 -1.9397 -1.7926  0.1538
 5194TIP3    H236998   4.136   4.527  13.071 -0.3023 -1.2659  0.0287
 5195TIP3   OH236999   0.595   0.573   0.702 -0.1959  0.3111 -0.4272
 5195TIP3    H137000   0.632   0.526   0.777  0.7291  1.2506 -0.2889
 5195TIP3    H237001   0.634   0.532   0.626 -0.4191 -0.0217 -0.3666
 5196TIP3   OH237002   2.002   1.465  16.679 -0.7171 -0.2551  0.1853
 5196TIP3    H137003   1.928   1.439  16.625 -0.1510  1.7520 -1.6249
 5196TIP3    H237004   1.963   1.500  16.759 -1.7037  0.3668 -0.5637
 5197TIP3   OH237005   0.918   3.975   0.098  0.0104  0.7208 -0.1221
 5197TIP3    H137006   0.851   3.948   0.161 -0.7904 -0.3166 -1.3973
 5197TIP3    H237007   0.998   3.982   0.150 -0.6186 -0.1951  0.9882
 5198TIP3   OH237008   5.905   4.143   4.065 -0.1143  1.0384  0.0630
 5198TIP3    H137009   5.826   4.197   4.060 -0.0407  1.0657 -1.0259
 5198TIP3    H237010   5.876   4.060   4.104 -0.3045  1.7206  1.3732
 5199TIP3   OH237011   2.357   2.697  11.011 -0.7341  0.2686  0.4903
 5199TIP3    H137012   2.427   2.671  10.951  0.1242  0.4726  1.3854
 5199TIP3    H237013   2.277   2.692  10.958 -0.0695 -0.1201 -0.5017
 5200TIP3   OH237014   2.612   1.328  12.934 -0.0998  0.0425  0.3911
 5200TIP3    H137015   2.575   1.318  12.846  0.2238 -1.5106  0.4221
 5200TIP3    H237016   2.574   1.410  12.967 -0.4217  0.5051 -1.0905
 5201TIP3   OH237017   6.137   1.543   4.429  0.3353 -0.3575  0.1081
 5201TIP3    H137018   6.122   1.449   4.438  0.3896 -0.2792  1.0717
 5201TIP3    H237019   6.152   1.573   4.518  0.0158  0.6206 -0.1660
 5202TIP3   OH237020   6.012   6.665  11.785 -0.1865 -0.5282 -0.1867
 5202TIP3    H137021   6.001   6.724  11.859 -0.8874 -0.8109 -0.0590
 5202TIP3    H237022   5.924   6.629  11.770  0.4430 -2.3784  0.4576
 5203TIP3   OH237023   4.057   2.078   2.300  0.4066  0.0944 -0.1848
 5203TIP3    H137024   4.090   2.073   2.390  2.6729  1.6258 -0.9045
 5203TIP3    H237025   4.122   2.030   2.249 -0.5121 -0.1613 -1.1174
 5204TIP3   OH237026   3.494   3.683  15.799 -0.7201 -0.4949  0.3987
 5204TIP3    H137027   3.518   3.703  15.889  0.0544  0.7220 -0.0529
 5204TIP3    H237028   3.554   3.613  15.773 -1.9073 -1.8423  1.2758
 5205TIP3   OH237029   4.173   1.966   4.572 -0.1385  0.1456 -0.1325
 5205TIP3    H137030   4.186   1.977   4.478  0.2613 -0.2155 -0.1226
 5205TIP3    H237031   4.205   2.048   4.611 -0.5079  0.3830 -0.3239
 5206TIP3   OH237032   3.377   5.171   3.821  0.0557  0.3062 -0.5554
 5206TIP3    H137033   3.405   5.195   3.733 -0.1875 -0.4837 -0.8477
 5206TIP3    H237034   3.425   5.231   3.878 -1.9426  2.7906 -1.3694
 5207TIP3   OH237035   5.628   4.260  16.212 -0.1559 -0.2539  0.1995
 5207TIP3    H137036   5.663   4.320  16.278 -1.4461  0.0992  0.5723
 5207TIP3    H237037   5.617   4.315  16.134  0.5787 -0.4856 -0.0833
 5208TIP3   OH237038   5.176   1.935   2.328  0.0294  0.1176 -0.3171
 5208TIP3    H137039   5.176   2.031   2.330 -0.0795  0.1015  0.6948
 5208TIP3    H237040   5.233   1.910   2.401  1.1118 -0.5786 -1.3852
 5209TIP3   OH237041   4.779   0.616   4.302  0.0506 -0.2303  0.2404
 5209TIP3    H137042   4.757   0.676   4.230 -0.4750 -0.3563  0.2914
 5209TIP3    H237043   4.705   0.624   4.362 -0.6866 -1.9280 -0.3937
 5210TIP3   OH237044   1.111   5.828  14.550 -0.6161  0.3717 -0.0325
 5210TIP3    H137045   1.123   5.922  14.561  0.8441  0.2130 -0.2326
 5210TIP3    H237046   1.155   5.790  14.626  1.4695 -0.2885 -1.5314
 5211TIP3   OH237047   0.572   5.246  14.792 -0.3376 -0.7995 -0.9544
 5211TIP3    H137048   0.602   5.336  14.801  0.0856 -0.9188 -1.1485
 5211TIP3    H237049   0.477   5.251  14.804 -0.0738 -0.6399  1.3117
 5212TIP3   OH237050   1.669   0.793  15.268  0.1570 -0.1079  0.3184
 5212TIP3    H137051   1.750   0.807  15.317  0.0549  0.4307  0.3328
 5212TIP3    H237052   1.694   0.738  15.194  0.5436  0.1129  0.2884
 5213TIP3   OH237053   3.959   6.576   3.305 -0.0616  0.1942  0.1487
 5213TIP3    H137054   3.868   6.603   3.316 -0.6329 -1.6185  0.0605
 5213TIP3    H237055   3.980   6.600   3.215 -0.9941 -0.8536 -0.3685
 5214TIP3   OH237056   4.445   2.546  13.190  0.2025  0.5425 -0.2668
 5214TIP3    H137057   4.358   2.538  13.230  0.2308 -3.0608 -0.8101
 5214TIP3    H237058   4.504   2.565  13.263 -0.8650  2.0391  0.2371
 5215TIP3   OH237059   3.208   3.966   3.429 -0.2583 -0.2020  0.4906
 5215TIP3    H137060   3.185   4.038   3.488  1.7139 -2.4765  4.2325
 5215TIP3    H237061   3.151   3.894   3.455  0.2431 -1.0911 -0.8039
 5216TIP3   OH237062   1.974   1.862  14.492  0.1683 -0.1653  0.1787
 5216TIP3    H137063   1.947   1.954  14.497  0.4739 -0.0172 -0.9439
 5216TIP3    H237064   2.058   1.863  14.447  0.6692 -0.9125  1.0697
 5217TIP3   OH237065   2.282   2.968   5.047 -0.1195  0.4298 -0.2166
 5217TIP3    H137066   2.237   3.053   5.052 -0.3007  0.3691 -0.7928
 5217TIP3    H237067   2.322   2.967   4.960  0.3540  0.1564  0.0052
 5218TIP3   OH237068   4.378   0.350  11.851 -0.2031 -0.0772 -0.2285
 5218TIP3    H137069   4.467   0.317  11.833 -0.7196 -0.7244 -1.7342
 5218TIP3    H237070   4.375   0.436  11.807  0.0295  0.4463  0.7685
 5219TIP3   OH237071   2.080   1.800  15.200  0.1709 -0.6639 -0.4947
 5219TIP3    H137072   2.004   1.784  15.256  0.7546 -2.7361 -0.2279
 5219TIP3    H237073   2.044   1.814  15.113 -0.5528 -1.2939 -0.3004
 5220TIP3   OH237074   4.373   0.280  14.703 -0.1093  0.1056 -0.2705
 5220TIP3    H137075   4.466   0.267  14.723 -0.2744 -0.4341  0.1302
 5220TIP3    H237076   4.334   0.305  14.786 -0.1208  1.4889 -0.6634
 5221TIP3   OH237077   1.898   3.524  16.140  0.2480 -0.0848  0.2882
 5221TIP3    H137078   1.965   3.581  16.179 -0.7418  1.5020 -0.2964
 5221TIP3    H237079   1.925   3.435  16.165  2.4921  0.5285  0.1814
 5222TIP3   OH237080   5.795   2.810  11.432  0.5019  0.7161 -0.2416
 5222TIP3    H137081   5.757   2.841  11.515 -1.6131 -0.1842 -0.8241
 5222TIP3    H237082   5.768   2.876  11.368 -0.8669 -0.3767 -0.8174
 5223TIP3   OH237083   2.380   2.952  15.766  0.7450 -0.4131  0.1305
 5223TIP3    H137084   2.452   2.899  15.732  1.4215 -0.2113  1.2100
 5223TIP3    H237085   2.374   3.027  15.707  1.6797 -0.2315  0.2676
 5224TIP3   OH237086   2.751   4.216  11.048  0.4397  0.5779  0.2600
 5224TIP3    H137087   2.758   4.274  10.972  0.6151  0.4450  0.1730
 5224TIP3    H237088   2.657   4.211  11.066  0.3305  0.0083 -0.4169
 5225TIP3   OH237089   0.387   6.025   4.764 -0.0469 -0.6393  0.5864
 5225TIP3    H137090   0.293   6.019   4.780  0.1992 -0.9113  1.9924
 5225TIP3    H237091   0.425   6.044   4.850  1.3138 -2.1045  0.3377
 5226TIP3   OH237092   6.672   3.640   5.639 -0.6764  0.0070  0.0509
 5226TIP3    H137093   6.763   3.633   5.669 -0.7420 -0.7658  0.0832
 5226TIP3    H237094   6.628   3.692   5.706  0.4970  3.3234 -1.6513
 5227TIP3   OH237095   1.336   1.658  16.874  0.1631 -0.6647 -0.0218
 5227TIP3    H137096   1.420   1.676  16.833 -1.8266  2.3984 -2.9853
 5227TIP3    H237097   1.342   1.698  16.961  0.9572  1.5266 -1.0760
 5228TIP3   OH237098   5.323   3.012  10.596  0.0472  0.1437 -0.2576
 5228TIP3    H137099   5.316   3.108  10.598 -1.2190  0.0544 -0.1358
 5228TIP3    H237100   5.307   2.985  10.686  1.3808 -0.1325 -0.0933
 5229TIP3   OH237101   5.931   1.809  13.450 -0.0348  0.0476  0.6031
 5229TIP3    H137102   5.898   1.725  13.418  0.4424  0.1626 -0.1766
 5229TIP3    H237103   5.927   1.868  13.375  1.6068  0.1704  0.5948
 5230TIP3   OH237104   4.326   6.077   3.153 -0.4270  0.2666 -0.1452
 5230TIP3    H137105   4.304   6.135   3.226  3.3616 -1.4025  2.4760
 5230TIP3    H237106   4.353   5.995   3.195 -1.0138 -1.7745 -3.5727
 5231TIP3   OH237107   5.270   4.256   0.517  0.0999 -0.1279  0.0473
 5231TIP3    H137108   5.198   4.287   0.572  0.8380 -0.5483  1.2631
 5231TIP3    H237109   5.330   4.331   0.512  2.0846 -1.4065  3.3229
 5232TIP3   OH237110   4.298   2.673  10.590 -0.4552 -0.3214  0.1603
 5232TIP3    H137111   4.230   2.606  10.587  0.2201 -1.0617  0.8173
 5232TIP3    H237112   4.380   2.624  10.575 -0.0109  0.4469  0.0489
 5233TIP3   OH237113   2.297   0.582  11.808  0.0179 -0.9750  0.3116
 5233TIP3    H137114   2.211   0.614  11.834 -0.1034 -1.7976  0.9690
 5233TIP3    H237115   2.358   0.629  11.864 -0.0021 -0.3463 -0.1961
 5234TIP3   OH237116   4.622   6.133  13.010  0.0998 -0.1807  0.2564
 5234TIP3    H137117   4.555   6.078  13.050  0.4494 -1.6400 -1.0728
 5234TIP3    H237118   4.585   6.158  12.925 -0.0915  1.7518  0.8814
 5235TIP3   OH237119   6.489   2.593   1.179  0.2283 -0.0488 -0.6646
 5235TIP3    H137120   6.398   2.576   1.153  0.1233  2.1693 -1.9021
 5235TIP3    H237121   6.537   2.597   1.097  1.3368 -0.5729 -0.0467
 5236TIP3   OH237122   4.156   5.703  11.559  0.4525 -0.2150  0.1724
 5236TIP3    H137123   4.167   5.609  11.572 -1.5952 -0.4193  0.6284
 5236TIP3    H237124   4.197   5.743  11.636 -2.8101 -0.9718  2.3834
 5237TIP3   OH237125   1.588   2.866   1.176 -0.0726 -0.1759 -0.1573
 5237TIP3    H137126   1.641   2.804   1.227  1.8923  0.4322 -1.3925
 5237TIP3    H237127   1.511   2.817   1.151 -0.8343 -0.6668  2.9081
 5238TIP3   OH237128   4.533   2.281  12.373 -0.5119  0.2158 -0.0888
 5238TIP3    H137129   4.515   2.333  12.452 -0.9536  0.4073 -0.3121
 5238TIP3    H237130   4.628   2.271  12.372 -0.5692 -0.5289  0.9362
 5239TIP3   OH237131   0.319   6.200  14.365  0.0195  0.1233  0.2025
 5239TIP3    H137132   0.332   6.294  14.352  1.2031  0.0472  0.7880
 5239TIP3    H237133   0.361   6.159  14.289  1.4596 -0.0263  1.0620
 5240TIP3   OH237134   2.939   1.375   3.736  0.0707 -0.6585 -0.5877
 5240TIP3    H137135   3.009   1.437   3.718 -1.2771  0.9690 -0.2901
 5240TIP3    H237136   2.881   1.381   3.660 -1.3959  0.3339  0.5909
 5241TIP3   OH237137   4.694   5.760   3.988 -0.6286  0.8627 -0.4177
 5241TIP3    H137138   4.614   5.730   4.032 -0.0329  0.0326  0.1091
 5241TIP3    H237139   4.664   5.788   3.902 -1.8338  2.6495  0.5485
 5242TIP3   OH237140   2.258   0.094   5.278  0.0235  0.3098 -0.2982
 5242TIP3    H137141   2.287   0.076   5.367  1.5713 -0.0849 -0.8625
 5242TIP3    H237142   2.339   0.112   5.230 -0.7632  0.1065 -1.7149
 5243TIP3   OH237143   4.702   3.967  14.108  0.2216  0.2005 -0.5159
 5243TIP3    H137144   4.639   4.012  14.164 -0.1217 -2.6321  1.5205
 5243TIP3    H237145   4.786   3.979  14.153  0.0863 -1.3162  0.1808
 5244TIP3   OH237146   1.623   2.841   5.420 -0.2192 -0.5322 -0.5020
 5244TIP3    H137147   1.637   2.889   5.338  0.1100 -1.3058 -0.9035
 5244TIP3    H237148   1.528   2.835   5.429 -0.2797  0.9463 -0.0027
 5245TIP3   OH237149   2.091   2.918  11.245 -0.0447 -0.0147  0.6619
 5245TIP3    H137150   2.041   2.894  11.167  1.5165 -0.5416 -0.1945
 5245TIP3    H237151   2.177   2.943  11.212  0.0304  1.6297  2.0463
 5246TIP3   OH237152   0.773   1.221  11.904 -0.3139  0.0533 -0.3452
 5246TIP3    H137153   0.824   1.254  11.830  0.2038  0.1490  0.0504
 5246TIP3    H237154   0.701   1.173  11.864 -1.1733  1.7931 -0.9405
 5247TIP3   OH237155   6.078   3.045   3.640  0.2216 -0.2327 -0.1363
 5247TIP3    H137156   6.022   3.044   3.718 -0.5184  1.4205 -0.6167
 5247TIP3    H237157   6.133   3.123   3.652 -0.6080  0.6051 -1.7603
 5248TIP3   OH237158   0.528   1.641   4.225  0.4553 -0.4035  0.7399
 5248TIP3    H137159   0.478   1.570   4.266 -1.3555  1.8714  2.6505
 5248TIP3    H237160   0.597   1.661   4.289  0.7125 -0.1942  0.3950
 5249TIP3   OH237161   5.881   1.250  11.391  0.8050  0.3042 -0.0276
 5249TIP3    H137162   5.884   1.163  11.431  1.4268 -0.0127 -0.7535
 5249TIP3    H237163   5.865   1.233  11.298  0.7305  0.9738 -0.1396
 5250TIP3   OH237164   4.608   6.484  12.744  0.8829 -0.3502 -0.2371
 5250TIP3    H137165   4.674   6.469  12.812 -0.2222  0.4531  1.0491
 5250TIP3    H237166   4.644   6.556  12.692  1.6811 -0.8876 -0.4432
 5251TIP3   OH237167   6.018   0.906   4.030 -0.2418  0.2085 -0.0778
 5251TIP3    H137168   6.018   0.815   4.061  1.7758  0.0603 -0.4344
 5251TIP3    H237169   5.965   0.904   3.951  0.3339 -0.8045 -0.4495
 5252TIP3   OH237170   4.602   6.667   3.112  0.1669 -0.3576 -0.1357
 5252TIP3    H137171   4.631   6.599   3.051  1.7299  0.5804 -0.4429
 5252TIP3    H237172   4.635   6.638   3.197  3.5581  1.5462 -0.7315
 5253TIP3   OH237173   4.724   3.063   5.030 -0.1085 -0.2717  0.1553
 5253TIP3    H137174   4.695   3.114   5.106  0.7320  0.9152 -0.3070
 5253TIP3    H237175   4.714   3.122   4.956  1.5458 -0.5292 -0.3004
 5254TIP3   OH237176   4.810   4.234  16.570 -0.1873 -0.3364 -0.2142
 5254TIP3    H137177   4.863   4.160  16.542  1.1777 -0.1141  1.6630
 5254TIP3    H237178   4.869   4.310  16.564 -0.7718  0.1716  0.3271
 5255TIP3   OH237179   2.714   3.603   3.312 -0.0706  0.0523  0.1961
 5255TIP3    H137180   2.630   3.637   3.343 -0.0322  1.8867 -1.5872
 5255TIP3    H237181   2.738   3.535   3.375 -2.8278 -0.4058  0.7850
 5256TIP3   OH237182   6.444   5.731  14.383  0.1714 -0.2702  0.1538
 5256TIP3    H137183   6.526   5.780  14.386  0.1955 -0.3996  2.3342
 5256TIP3    H237184   6.470   5.641  14.368  0.1716  0.2076 -3.0741
 5257TIP3   OH237185   0.603   2.615   2.448  0.4390  0.5818 -0.2229
 5257TIP3    H137186   0.569   2.551   2.511  1.9292  1.0550  1.0866
 5257TIP3    H237187   0.578   2.700   2.483 -1.0110  0.7755 -1.6560
 5258TIP3   OH237188   1.970   3.062   4.882 -0.5614  0.1810 -0.4159
 5258TIP3    H137189   2.012   2.987   4.840  0.3335  0.6743 -0.3941
 5258TIP3    H237190   1.878   3.035   4.891 -0.4540 -0.5209 -1.3180
 5259TIP3   OH237191   1.173   2.479   0.989  0.2897  0.3135 -0.5824
 5259TIP3    H137192   1.158   2.458   1.081  3.4992 -0.3293 -0.1443
 5259TIP3    H237193   1.102   2.436   0.942 -0.6606 -0.4089  1.4825
 5260TIP3   OH237194   4.272   4.311   0.432 -0.2055 -0.4716  0.3919
 5260TIP3    H137195   4.289   4.405   0.431 -0.8654 -0.3492  0.5049
 5260TIP3    H237196   4.245   4.290   0.343 -2.4952 -0.0890  0.9567
 5261TIP3   OH237197   1.543   3.897  13.987  0.0450 -0.0619 -0.1934
 5261TIP3    H137198   1.576   3.815  14.023 -0.1141 -0.1771 -0.3072
 5261TIP3    H237199   1.549   3.959  14.060 -1.5982 -0.6420  0.4722
 5262TIP3   OH237200   3.546   6.036  14.720 -0.2963 -0.1884 -0.3748
 5262TIP3    H137201   3.617   6.093  14.693 -0.5642  0.0888 -0.4986
 5262TIP3    H237202   3.587   5.969  14.774 -0.2115  1.0274  1.0890
 5263TIP3   OH237203   1.563   6.007   1.103  0.0752 -0.2861  0.0184
 5263TIP3    H137204   1.588   5.931   1.156  0.6629 -1.3943 -1.7990
 5263TIP3    H237205   1.605   6.081   1.145 -0.3736 -0.9830  1.7307
 5264TIP3   OH237206   6.552   4.671  11.317 -0.0897  0.0232 -0.3304
 5264TIP3    H137207   6.514   4.757  11.302  0.9299  0.8319  1.5791
 5264TIP3    H237208   6.579   4.641  11.230  0.6188  2.1353 -0.8471
 5265TIP3   OH237209   0.166   6.206   4.501 -0.9049 -0.2774  0.0901
 5265TIP3    H137210   0.243   6.243   4.459  0.8911 -1.8483  1.8967
 5265TIP3    H237211   0.162   6.249   4.587 -2.5579  0.4433 -0.3338
 5266TIP3   OH237212   2.163   2.506  11.652 -0.1410 -0.0245  0.1394
 5266TIP3    H137213   2.224   2.443  11.614 -2.8589 -2.7103 -0.0387
 5266TIP3    H237214   2.097   2.451  11.695 -1.9575  2.7694  1.0439
 5267TIP3   OH237215   6.638   3.026   3.664 -0.2390 -0.0464 -0.1436
 5267TIP3    H137216   6.730   3.017   3.640 -0.4548  1.4750 -1.6529
 5267TIP3    H237217   6.637   3.091   3.735 -0.3851  2.2550 -2.1898
 5268TIP3   OH237218   4.027   3.750   4.466 -0.5358 -1.0893 -0.1361
 5268TIP3    H137219   4.068   3.716   4.546  0.4925 -0.9177 -0.5823
 5268TIP3    H237220   4.092   3.734   4.397 -1.3626 -1.1220 -0.9177
 5269TIP3   OH237221   1.789   0.315  13.549  0.1080 -0.1590  0.0372
 5269TIP3    H137222   1.871   0.340  13.592 -0.1530 -1.0532  1.0773
 5269TIP3    H237223   1.723   0.320  13.618 -0.9076  1.5229 -1.0325
 5270TIP3   OH237224   5.069   2.344   4.269 -0.7078 -0.3624 -0.1037
 5270TIP3    H137225   5.113   2.402   4.331 -1.9319 -0.5780  0.9917
 5270TIP3    H237226   5.052   2.399   4.193  1.2028 -0.2060 -0.4416
 5271TIP3   OH237227   1.060   4.865   0.196 -0.1623  0.4783  0.2091
 5271TIP3    H137228   0.965   4.860   0.183 -0.1404 -0.5427  0.3449
 5271TIP3    H237229   1.095   4.791   0.147  0.4909  0.3879  0.7938
 5272TIP3   OH237230   6.582   2.265   3.303 -0.5568  0.1164  0.1075
 5272TIP3    H137231   6.587   2.360   3.298  1.1375  0.0429  0.0980
 5272TIP3    H237232   6.604   2.245   3.394 -3.0258 -0.1712  0.6909
 5273TIP3   OH237233   4.104   3.131  15.596  0.0235 -1.1191  0.1398
 5273TIP3    H137234   4.020   3.104  15.633 -0.0196  0.4180  1.2267
 5273TIP3    H237235   4.169   3.085  15.648 -0.1244 -1.9602 -0.4083
 5274TIP3   OH237236   6.303   1.875   1.786  0.4604  0.3017 -0.1889
 5274TIP3    H137237   6.330   1.961   1.754 -1.8623  0.5193 -1.6653
 5274TIP3    H237238   6.261   1.892   1.870  0.4971  0.5258 -0.2160
 5275TIP3   OH237239   1.290   3.221   2.839 -1.0489 -0.2113 -0.0321
 5275TIP3    H137240   1.376   3.183   2.856 -0.4011  1.3504  0.2919
 5275TIP3    H237241   1.267   3.191   2.751  0.3887  0.3819 -0.6129
 5276TIP3   OH237242   6.408   4.906   2.395 -0.7843  0.4084  0.2042
 5276TIP3    H137243   6.390   4.814   2.376 -0.7691  0.1118  1.6021
 5276TIP3    H237244   6.328   4.952   2.367 -1.2423 -0.1602  0.5655
 5277TIP3   OH237245   1.636   0.305  11.717 -0.0329  0.4706  0.4149
 5277TIP3    H137246   1.589   0.303  11.634  2.4210  0.8414 -1.0043
 5277TIP3    H237247   1.670   0.216  11.728  0.2248  0.6013  0.6873
 5278TIP3   OH237248   6.040   5.007  16.180 -0.0983 -0.1006 -0.9497
 5278TIP3    H137249   6.126   5.016  16.221 -0.5688  0.0483  0.0132
 5278TIP3    H237250   5.977   5.020  16.251 -0.9062 -3.3530 -0.9737
 5279TIP3   OH237251   3.915   3.619   2.829 -0.3303  0.0305 -0.1223
 5279TIP3    H137252   3.930   3.553   2.896  3.2073 -0.1235 -0.9592
 5279TIP3    H237253   3.890   3.698   2.877  0.8891 -0.4197  1.2605
 5280TIP3   OH237254   0.372   5.663   4.127 -0.1354  0.0464  0.5341
 5280TIP3    H137255   0.313   5.698   4.193 -0.0555 -2.4975  2.0181
 5280TIP3    H237256   0.452   5.715   4.136 -1.6963  2.7706 -0.7406
 5281TIP3   OH237257   1.030   3.304  13.119  0.0619  0.0848 -0.2370
 5281TIP3    H137258   1.013   3.397  13.110 -0.7649 -0.1897 -1.7478
 5281TIP3    H237259   0.972   3.275  13.189 -0.2084  0.5629 -0.2636
 5282TIP3   OH237260   2.758   6.361  17.205  0.6227 -0.1148 -0.2762
 5282TIP3    H137261   2.833   6.416  17.229  1.4076 -1.4497  0.4240
 5282TIP3    H237262   2.699   6.366  17.280  0.1287  0.7383 -0.7239
 5283TIP3   OH237263   0.866   3.329  16.351 -0.2280 -0.3324 -0.4658
 5283TIP3    H137264   0.858   3.410  16.301 -0.2420 -0.3831 -0.5452
 5283TIP3    H237265   0.781   3.319  16.395  0.4469  0.7351  1.1027
 5284TIP3   OH237266   0.615   1.166   6.486 -0.6318 -0.1416 -0.1743
 5284TIP3    H137267   0.699   1.209   6.499  0.8332 -2.4522 -1.7140
 5284TIP3    H237268   0.562   1.229   6.437 -0.3299  1.8641  1.9736
 5285TIP3   OH237269   4.989   5.264  14.059 -0.3146  0.8116 -0.0003
 5285TIP3    H137270   5.038   5.304  14.130  0.7997 -1.1898  0.4126
 5285TIP3    H237271   5.039   5.286  13.980  0.0289  0.6754  0.1748
 5286TIP3   OH237272   4.779   4.826   6.028  0.1885 -0.2242  0.4501
 5286TIP3    H137273   4.856   4.824   6.085  0.4014 -0.8694  0.1396
 5286TIP3    H237274   4.712   4.870   6.080  0.9034  0.7606  0.5476
 5287TIP3   OH237275   0.184   3.964   5.889 -0.0672 -0.5818 -0.3488
 5287TIP3    H137276   0.167   4.057   5.909 -0.5584 -0.5206 -1.0352
 5287TIP3    H237277   0.163   3.918   5.971 -1.3123 -0.2471 -0.4667
 5288TIP3   OH237278   0.966   0.005  10.752 -0.0307 -0.1117 -0.1968
 5288TIP3    H137279   0.884  -0.014  10.797 -0.7255 -0.7253 -1.7086
 5288TIP3    H237280   0.942   0.063  10.680  1.0669  0.7899  0.1449
 5289TIP3   OH237281   4.584   6.638  11.592  0.5628 -0.6663 -0.1085
 5289TIP3    H137282   4.552   6.727  11.610  1.8609 -0.3906  0.9691
 5289TIP3    H237283   4.673   6.638  11.626  0.1274 -2.7893  1.1084
 5290TIP3   OH237284   5.794   0.443  15.755  0.0564  0.5031  0.7417
 5290TIP3    H137285   5.750   0.369  15.797  0.4506  0.0000  0.2734
 5290TIP3    H237286   5.723   0.500  15.726 -0.2681 -0.0950  0.3631
 5291TIP3   OH237287   3.469   1.650  11.431 -0.3737 -0.3191  0.0887
 5291TIP3    H137288   3.501   1.724  11.482 -0.1015 -1.5794  1.8055
 5291TIP3    H237289   3.548   1.611  11.393 -0.4346 -0.2474 -0.1150
 5292TIP3   OH237290   0.746   0.983  13.437 -0.2740 -0.8323  0.6339
 5292TIP3    H137291   0.797   1.042  13.381 -0.5026 -1.2479 -0.0056
 5292TIP3    H237292   0.810   0.950  13.501 -0.5314  1.6418  2.2637
 5293TIP3   OH237293   2.424   1.050   6.095 -1.1587 -0.4898 -0.1437
 5293TIP3    H137294   2.500   1.023   6.146 -1.5598  0.2004  0.8305
 5293TIP3    H237295   2.361   0.979   6.106 -2.1325  0.6851  2.2462
 5294TIP3   OH237296   4.037   0.666  10.419  0.1669 -0.1139 -0.0447
 5294TIP3    H137297   3.976   0.632  10.353  0.0867  2.0300 -1.0947
 5294TIP3    H237298   3.994   0.648  10.503 -2.4999  2.4232 -0.7886
 5295TIP3   OH237299   4.377   5.378   2.342  0.2880 -0.3622 -0.4446
 5295TIP3    H137300   4.400   5.320   2.415  3.8011  0.2588 -0.9932
 5295TIP3    H237301   4.457   5.427   2.323 -1.3080  1.4078 -2.9965
 5296TIP3   OH237302   4.930   3.441  16.889  0.5220  0.2434 -0.9118
 5296TIP3    H137303   4.922   3.391  16.808 -1.5099 -1.0201  0.0276
 5296TIP3    H237304   4.852   3.497  16.890  1.4395  1.5467 -0.6657
 5297TIP3   OH237305   3.674   2.533   5.720 -0.0664  0.3301  0.1257
 5297TIP3    H137306   3.683   2.530   5.625  0.0241 -0.4594  0.1540
 5297TIP3    H237307   3.598   2.588   5.736  0.7298  1.5851 -0.3560
 5298TIP3   OH237308   3.646   1.297  16.752 -0.1436  0.7939  0.0901
 5298TIP3    H137309   3.652   1.270  16.844 -1.4136 -2.3648 -0.7250
 5298TIP3    H237310   3.559   1.335  16.744 -1.1165 -1.5402 -0.4730
 5299TIP3   OH237311   6.538   1.818   3.973  0.2230 -0.6066 -0.5850
 5299TIP3    H137312   6.534   1.739   4.028  1.0755 -0.5808 -0.4780
 5299TIP3    H237313   6.619   1.861   4.000  0.1045 -0.0484 -1.1282
 5300TIP3   OH237314   0.899   3.276  12.072  0.3474 -0.1196 -0.2016
 5300TIP3    H137315   0.909   3.359  12.118 -1.3397 -0.1694  0.2929
 5300TIP3    H237316   0.815   3.241  12.103  0.5020 -1.4700 -1.2415
 5301TIP3   OH237317   5.049   1.296  12.695 -0.2882  0.7353  0.2407
 5301TIP3    H137318   5.124   1.280  12.752 -0.4236 -1.2663 -0.0782
 5301TIP3    H237319   4.973   1.272  12.748 -0.6601  1.9867  0.2956
 5302TIP3   OH237320   3.299   3.678  11.262 -0.0200  0.1701  0.2245
 5302TIP3    H137321   3.301   3.593  11.308 -1.3495  0.9726  1.8334
 5302TIP3    H237322   3.206   3.699  11.257  0.0746 -0.0372 -3.1999
 5303TIP3   OH237323   6.774   0.690  14.450 -0.1122  0.1776  0.0746
 5303TIP3    H137324   6.705   0.631  14.420  0.5609 -0.1838 -0.7884
 5303TIP3    H237325   6.806   0.651  14.531 -0.6699  0.1539  0.2879
 5304TIP3   OH237326   2.051   5.671  11.923 -0.2670  0.2600  0.1431
 5304TIP3    H137327   1.985   5.733  11.954 -0.1011 -0.3775  1.7728
 5304TIP3    H237328   2.078   5.706  11.838 -0.2507  2.3670  0.9991
 5305TIP3   OH237329   0.833   5.953   5.795 -0.3713 -0.1749  0.4313
 5305TIP3    H137330   0.745   5.943   5.831 -0.4074  1.1148  0.7234
 5305TIP3    H237331   0.841   5.882   5.730 -1.2195 -0.9568  1.1651
 5306TIP3   OH237332   6.000   3.669   4.787  0.0784  0.6598  0.0060
 5306TIP3    H137333   5.929   3.695   4.728 -0.1621  2.3052  0.9858
 5306TIP3    H237334   6.032   3.751   4.824  0.0567 -0.3580  2.3650
 5307TIP3   OH237335   0.430   4.204   4.990  0.5087  0.3697 -0.1396
 5307TIP3    H137336   0.460   4.268   4.926 -1.1442  0.4188 -0.8694
 5307TIP3    H237337   0.503   4.142   4.997  0.3978 -0.1147 -2.7087
 5308TIP3   OH237338   4.563   5.582   5.924  0.0203  0.0871 -0.0753
 5308TIP3    H137339   4.478   5.540   5.937  0.5641 -1.2990 -0.8710
 5308TIP3    H237340   4.547   5.674   5.945 -1.8615 -0.0091 -0.8955
 5309TIP3   OH237341   0.400   2.353  15.385  0.7779  0.2245  0.1938
 5309TIP3    H137342   0.370   2.431  15.432 -0.2716 -0.7895  1.2428
 5309TIP3    H237343   0.322   2.322  15.339  0.8747 -0.9032  0.7840
 5310TIP3   OH237344   6.223   1.505  11.726 -0.0497 -0.6317  0.1648
 5310TIP3    H137345   6.272   1.482  11.646  0.3609 -0.3280  0.3289
 5310TIP3    H237346   6.202   1.598  11.715 -0.1485 -0.6354  0.3265
 5311TIP3   OH237347   0.137   6.748  13.726 -0.4601  0.6701 -0.4355
 5311TIP3    H137348   0.189   6.744  13.646  0.1005  0.3346 -0.0555
 5311TIP3    H237349   0.170   6.824  13.772  0.3495 -0.0793  0.2469
 5312TIP3   OH237350   1.272   1.411  16.968  0.0302 -0.5673 -0.3136
 5312TIP3    H137351   1.319   1.393  17.050  0.8934 -0.6728 -0.8265
 5312TIP3    H237352   1.311   1.491  16.935 -1.3423  0.2920  0.1260
 5313TIP3   OH237353   3.936   5.588   0.842  0.5330 -0.3765 -0.6774
 5313TIP3    H137354   3.977   5.604   0.927  1.0640 -1.6472 -0.6797
 5313TIP3    H237355   3.859   5.535   0.863  0.8993 -1.0532 -1.0203
 5314TIP3   OH237356   5.913   0.179  15.275 -0.1100  0.5798 -0.5381
 5314TIP3    H137357   5.969   0.252  15.301  1.0422 -0.3434 -0.3252
 5314TIP3    H237358   5.830   0.195  15.318  0.2166  1.6293 -0.2906
 5315TIP3   OH237359   1.625   4.073  12.959 -0.1183 -0.3395 -0.2947
 5315TIP3    H137360   1.560   4.141  12.940 -0.1629  0.0064  1.0738
 5315TIP3    H237361   1.591   4.028  13.037 -0.4206 -2.3609 -1.5444
 5316TIP3   OH237362   0.830   2.167  16.256  0.2512  0.3643  0.1140
 5316TIP3    H137363   0.769   2.177  16.330 -0.3051  1.8615 -0.5321
 5316TIP3    H237364   0.866   2.254  16.243 -0.2168  0.2680 -1.8767
 5317TIP3   OH237365   1.601   0.831  12.033  0.3685  0.0225  0.2521
 5317TIP3    H137366   1.514   0.829  12.074  0.6744  2.6518  1.0989
 5317TIP3    H237367   1.592   0.891  11.960  1.7854  1.3249  1.1285
 5318TIP3   OH237368   0.185   4.160  16.877 -0.4685 -0.3122  0.6176
 5318TIP3    H137369   0.127   4.187  16.948 -0.4163  0.0516  0.5239
 5318TIP3    H237370   0.187   4.235  16.818  1.1015  0.1477  1.2437
 5319TIP3   OH237371   0.179   2.474  11.021  0.6662  0.2112  0.0005
 5319TIP3    H137372   0.231   2.426  11.085  1.7003  0.4857 -0.6220
 5319TIP3    H237373   0.242   2.528  10.974 -0.1854  0.5797 -0.7495
 5320TIP3   OH237374   1.662   2.892  16.931 -0.5544  0.0303  0.1443
 5320TIP3    H137375   1.751   2.859  16.937  0.8876  3.7291  0.4623
 5320TIP3    H237376   1.622   2.868  17.015  0.1314 -1.6142  0.0112
 5321TIP3   OH237377   5.821   4.525   0.947  0.0679  0.1220 -0.3456
 5321TIP3    H137378   5.750   4.502   0.887 -1.7094  0.5995  1.5134
 5321TIP3    H237379   5.834   4.447   1.000 -1.8115  1.2519  1.9143
 5322TIP3   OH237380   1.323   0.359   1.674 -0.3469 -0.3428  0.1809
 5322TIP3    H137381   1.378   0.281   1.670 -0.2283 -0.2473 -0.0793
 5322TIP3    H237382   1.344   0.399   1.758 -0.3492 -0.5499  0.2783
 5323TIP3   OH237383   1.008   6.551  11.309 -0.0177  0.1954 -0.0796
 5323TIP3    H137384   1.004   6.638  11.347  0.1996  0.4633 -0.6638
 5323TIP3    H237385   0.917   6.532  11.283 -0.6956 -1.1176  3.0390
 5324TIP3   OH237386   3.014   5.228   3.811 -0.0269 -0.2537  0.3862
 5324TIP3    H137387   2.984   5.311   3.774  0.9026 -0.0407  0.0970
 5324TIP3    H237388   2.965   5.220   3.893  0.5117  1.0161  0.8536
 5325TIP3   OH237389   4.846   5.178   0.895 -0.2934 -0.0054  0.2702
 5325TIP3    H137390   4.836   5.097   0.845 -3.2213  1.6783 -2.0271
 5325TIP3    H237391   4.923   5.221   0.857  0.2872 -0.9537  0.3844
 5326TIP3   OH237392   5.858   5.860  12.417  0.8884 -0.4599  0.1695
 5326TIP3    H137393   5.897   5.878  12.503  2.3932  0.8484 -0.7456
 5326TIP3    H237394   5.930   5.822  12.366 -0.0902 -1.5519 -0.4057
 5327TIP3   OH237395   1.873   4.840  14.212 -0.2080  0.1533  0.5996
 5327TIP3    H137396   1.802   4.903  14.200 -1.3505 -1.2429 -0.1225
 5327TIP3    H237397   1.885   4.801  14.126  2.5383  1.4801  0.3519
 5328TIP3   OH237398   5.295   1.691   4.741 -0.1978  0.5095 -0.3357
 5328TIP3    H137399   5.297   1.732   4.827  0.1603  0.4039 -0.2940
 5328TIP3    H237400   5.293   1.764   4.680  2.1496  0.6147 -0.3094
 5329TIP3   OH237401   1.800   5.876   4.364  0.1635  0.3360 -0.1041
 5329TIP3    H137402   1.832   5.963   4.388 -2.2205  1.0382  0.6855
 5329TIP3    H237403   1.794   5.828   4.446  2.5044 -0.9598 -0.6672
 5330TIP3   OH237404   4.304   1.304   3.464  0.2522 -0.6560  0.2555
 5330TIP3    H137405   4.286   1.212   3.485  0.6556 -0.6900  0.4677
 5330TIP3    H237406   4.256   1.320   3.384  0.1431 -1.0449  0.2414
 5331TIP3   OH237407   6.290   0.583  16.792 -0.4056 -0.1828 -0.0958
 5331TIP3    H137408   6.349   0.637  16.845 -0.3152 -1.5366  1.2017
 5331TIP3    H237409   6.203   0.599  16.829 -0.3628 -1.0086  0.3638
 5332TIP3   OH237410   2.511   1.129   3.688  0.6594 -0.2343 -0.1793
 5332TIP3    H137411   2.416   1.123   3.683  0.6537  0.5516 -1.0962
 5332TIP3    H237412   2.543   1.058   3.632  0.6011  0.8149 -1.5679
 5333TIP3   OH237413   3.558   5.838   4.087 -0.0535 -0.7070  0.1595
 5333TIP3    H137414   3.567   5.932   4.101  2.9975 -1.0118  0.7771
 5333TIP3    H237415   3.565   5.827   3.992 -1.7476 -0.2110 -0.0280
 5334TIP3   OH237416   3.256   6.282   1.514  0.1691 -0.1217 -0.4196
 5334TIP3    H137417   3.161   6.278   1.522  0.2451 -0.6568  0.2445
 5334TIP3    H237418   3.284   6.190   1.516  0.4733 -0.1674 -3.5100
 5335TIP3   OH237419   1.913   2.820   6.521  0.2213  0.0008 -0.4227
 5335TIP3    H137420   1.935   2.913   6.531 -0.8796  0.2020  0.2827
 5335TIP3    H237421   1.982   2.773   6.568 -0.5274  0.5850  1.3046
 5336TIP3   OH237422   0.936   4.162   3.703 -0.2759 -0.1173 -0.3119
 5336TIP3    H137423   0.998   4.129   3.768 -0.2930 -0.5320 -0.5040
 5336TIP3    H237424   0.940   4.099   3.631 -2.8116 -1.6045  0.7652
 5337TIP3   OH237425   2.290   6.042  11.793 -0.1737  0.1570  0.4990
 5337TIP3    H137426   2.360   6.089  11.749 -1.3705 -1.4752 -3.3227
 5337TIP3    H237427   2.320   5.952  11.798 -0.6816  0.0410  1.7265
 5338TIP3   OH237428   4.149   5.337  16.056  0.9558 -0.1017  0.1107
 5338TIP3    H137429   4.057   5.313  16.043  1.0440 -1.1432  1.3656
 5338TIP3    H237430   4.150   5.388  16.137  1.4589  0.1036 -0.0225
 5339TIP3   OH237431   4.474   2.315  16.280 -0.5370 -0.4183 -0.1685
 5339TIP3    H137432   4.400   2.355  16.236  0.2544  0.4817 -0.6769
 5339TIP3    H237433   4.468   2.345  16.371  0.0300  0.8231 -0.5368
 5340TIP3   OH237434   5.502   6.069   5.357  0.6083 -0.0340  0.1782
 5340TIP3    H137435   5.449   6.101   5.284  0.4371 -0.4957  0.1018
 5340TIP3    H237436   5.453   6.094   5.435  0.5926  0.0992  0.1264
 5341TIP3   OH237437   6.717   3.457  14.909  0.8347 -0.8738  0.2209
 5341TIP3    H137438   6.748   3.546  14.891 -0.4575 -0.5911 -0.6714
 5341TIP3    H237439   6.698   3.457  15.003  1.5608 -0.4489  0.3797
 5342TIP3   OH237440   5.186   6.372   2.524 -0.5001 -0.2291 -0.1374
 5342TIP3    H137441   5.244   6.405   2.455 -0.2912 -2.1417 -0.8934
 5342TIP3    H237442   5.109   6.340   2.476 -0.2736 -1.7314  0.5014
 5343TIP3   OH237443   4.618   2.810  12.396  0.3927 -0.4565  0.5225
 5343TIP3    H137444   4.613   2.751  12.321  0.8646 -0.7065  0.6847
 5343TIP3    H237445   4.681   2.878  12.369  0.0188 -0.1461  0.4192
 5344TIP3   OH237446   2.221   3.129  12.388 -0.0964 -0.0287  0.1297
 5344TIP3    H137447   2.259   3.171  12.465 -0.8877  0.8186  0.0644
 5344TIP3    H237448   2.253   3.181  12.314 -0.9425  0.3691  0.0377
 5345TIP3   OH237449   2.954   0.279  16.304 -0.1691  0.1141  0.1259
 5345TIP3    H137450   2.961   0.184  16.304  4.9502  0.2882  2.0132
 5345TIP3    H237451   2.995   0.307  16.222  0.8290  0.7091  0.8061
 5346TIP3   OH237452   2.732   6.575  16.624  0.0816  0.1804 -0.6594
 5346TIP3    H137453   2.786   6.514  16.573 -0.2588 -0.5779 -0.1208
 5346TIP3    H237454   2.648   6.576  16.579 -0.2169 -0.4849 -0.1206
 5347TIP3   OH237455   3.949   3.160   1.575 -0.2370  0.0429 -0.0713
 5347TIP3    H137456   3.859   3.176   1.603 -0.0327 -0.5170  0.9305
 5347TIP3    H237457   3.943   3.081   1.521 -0.0582 -1.2592  1.7523
 5348TIP3   OH237458   0.225   3.709  12.215 -0.5466  0.8489 -0.2016
 5348TIP3    H137459   0.237   3.614  12.215 -3.4146  0.4448  1.4885
 5348TIP3    H237460   0.233   3.735  12.306 -0.4507  2.1525 -0.5674
 5349TIP3   OH237461   2.424   0.075  12.242  0.0489 -0.2323 -0.0362
 5349TIP3    H137462   2.345   0.022  12.245  0.1798 -0.3758  0.8983
 5349TIP3    H237463   2.392   0.165  12.229 -0.2623 -0.2841  0.3843
 5350TIP3   OH237464   6.204   5.566  12.932  0.9672 -0.0178  0.2340
 5350TIP3    H137465   6.149   5.548  13.008  0.6060  0.7676  0.1680
 5350TIP3    H237466   6.207   5.662  12.927  0.5954 -0.0706 -1.0284
 5351TIP3   OH237467   4.399   5.520   0.192  0.4908  0.1142 -0.9675
 5351TIP3    H137468   4.401   5.430   0.158 -0.7958 -0.0397 -0.6545
 5351TIP3    H237469   4.416   5.510   0.286  0.3657  0.1957 -0.9360
 5352TIP3   OH237470   6.112   1.169  12.593  0.3575 -0.3815 -0.6228
 5352TIP3    H137471   6.068   1.208  12.517 -1.3244 -1.0350 -0.0126
 5352TIP3    H237472   6.132   1.243  12.650 -0.5911 -0.1428 -0.5935
 5353TIP3   OH237473   0.472   1.645   3.163 -0.3889  0.1123 -0.1465
 5353TIP3    H137474   0.527   1.567   3.173  0.8740  1.1209  0.8883
 5353TIP3    H237475   0.523   1.703   3.107 -0.3080  1.1294  0.9760
 5354TIP3   OH237476   1.901   0.622  10.777 -0.4356 -0.1870 -0.3265
 5354TIP3    H137477   1.833   0.565  10.813 -0.4716  0.5689  0.8232
 5354TIP3    H237478   1.866   0.711  10.786  0.3397  0.1463 -0.5256
 5355TIP3   OH237479   4.789   1.485   1.061  0.2097 -0.0638  0.6123
 5355TIP3    H137480   4.791   1.411   1.122  2.2453  0.5831  1.3798
 5355TIP3    H237481   4.882   1.504   1.043 -0.3323 -0.0971 -2.5166
 5356TIP3   OH237482   4.713   1.137  16.174  0.0451  0.1920 -0.1931
 5356TIP3    H137483   4.735   1.124  16.266  0.0690 -3.1407 -0.5895
 5356TIP3    H237484   4.666   1.219  16.171 -0.6408 -0.0455  2.9150
 5357TIP3   OH237485   1.093   1.872  13.748 -0.0283 -0.0372  0.3459
 5357TIP3    H137486   1.106   1.782  13.777  0.5492 -0.0381  0.0973
 5357TIP3    H237487   1.018   1.867  13.689  0.7148 -0.5619 -0.5798
 5358TIP3   OH237488   5.542   2.105   3.425 -0.0713 -0.4217  0.3094
 5358TIP3    H137489   5.579   2.130   3.340 -1.2451 -0.5819 -0.2524
 5358TIP3    H237490   5.500   2.021   3.408 -0.5406 -0.3203  0.9919
 5359TIP3   OH237491   1.038   4.959   4.740  0.0518 -0.0495  0.1179
 5359TIP3    H137492   1.020   5.011   4.819  0.0203 -1.0448  0.7806
 5359TIP3    H237493   0.971   4.987   4.677 -0.5873  0.0004  0.8077
 5360TIP3   OH237494   5.605   5.011   2.106 -0.8359  0.0825  0.0636
 5360TIP3    H137495   5.598   5.103   2.128 -0.4168 -0.2151  1.4652
 5360TIP3    H237496   5.535   4.969   2.156  0.1280 -0.6043  0.8350
 5361TIP3   OH237497   4.674   4.070   4.579 -0.1557 -0.0090  0.3643
 5361TIP3    H137498   4.752   4.053   4.526  0.2631  0.5619  0.7888
 5361TIP3    H237499   4.706   4.071   4.669 -0.7688 -0.4214  0.5926
 5362TIP3   OH237500   4.244   2.871  13.732 -0.3397 -0.0700  0.0204
 5362TIP3    H137501   4.259   2.831  13.817 -1.0889 -0.9263 -0.2440
 5362TIP3    H237502   4.159   2.836  13.704  0.9518 -1.6203 -2.1002
 5363TIP3   OH237503   2.342   6.644  11.635  0.5157  0.1139  0.2978
 5363TIP3    H137504   2.251   6.667  11.657  0.2400 -2.0391  1.6335
 5363TIP3    H237505   2.394   6.714  11.673 -0.4440  0.0090  1.8627
 5364TIP3   OH237506   5.393   6.438   0.270  0.8569 -0.0130 -0.0616
 5364TIP3    H137507   5.405   6.482   0.354  0.3617 -0.6098  0.3271
 5364TIP3    H237508   5.455   6.366   0.272  0.7280 -0.1261 -0.1381
 5365TIP3   OH237509   6.517   4.173   1.439  0.4204 -0.1666 -0.0210
 5365TIP3    H137510   6.466   4.253   1.456  1.4050  0.7020 -1.0569
 5365TIP3    H237511   6.588   4.177   1.503  0.3338 -0.3547  0.0888
 5366TIP3   OH237512   1.043   5.244  12.774  0.2341  0.3204  0.3630
 5366TIP3    H137513   1.106   5.281  12.712  1.6420 -0.0751  1.5415
 5366TIP3    H237514   1.069   5.152  12.782  0.1184  0.3899  1.5933
 5367TIP3   OH237515   1.394   4.603   2.844 -0.1126 -0.5129  0.1793
 5367TIP3    H137516   1.449   4.534   2.805  2.0799  0.5067  1.3760
 5367TIP3    H237517   1.336   4.630   2.773 -1.0086 -3.5412 -0.3465
 5368TIP3   OH237518   2.491   0.387   3.684  0.5539 -0.2635  0.3585
 5368TIP3    H137519   2.437   0.464   3.703 -0.0231 -1.0298  1.9536
 5368TIP3    H237520   2.427   0.317   3.670  1.0898 -0.7078  0.1321
 5369TIP3   OH237521   3.235   1.072  15.275 -0.1955 -0.6442 -0.5426
 5369TIP3    H137522   3.145   1.053  15.249 -0.8766 -0.8228  1.7915
 5369TIP3    H237523   3.287   1.001  15.237 -1.1954 -1.1262 -1.0076
 5370TIP3   OH237524   5.106   3.872  12.697  0.2745 -0.3882 -0.4095
 5370TIP3    H137525   5.154   3.948  12.730  1.1781 -1.6581  1.2725
 5370TIP3    H237526   5.016   3.884  12.729  0.4498 -0.1097 -0.0227
 5371TIP3   OH237527   0.938   6.391  13.414  0.5171 -0.1887  0.3020
 5371TIP3    H137528   0.982   6.311  13.386  1.0234 -0.7657  2.6288
 5371TIP3    H237529   0.889   6.365  13.493 -0.5486  1.4365  0.2013
 5372TIP3   OH237530   3.036   3.090  13.668 -0.0962 -0.5656  0.1180
 5372TIP3    H137531   3.050   3.096  13.574  0.7931  1.7708  0.3714
 5372TIP3    H237532   3.008   2.999  13.683  1.7468 -1.5454 -2.1349
 5373TIP3   OH237533   3.416   6.190   5.294  0.4620  0.5333 -0.2853
 5373TIP3    H137534   3.429   6.169   5.202  0.5310  1.2587 -0.4426
 5373TIP3    H237535   3.436   6.108   5.340 -1.1190 -0.2686 -1.0146
 5374TIP3   OH237536   4.909   6.722  12.474 -0.5525  0.2839 -0.7233
 5374TIP3    H137537   4.973   6.784  12.438 -0.1610 -0.5164 -1.4397
 5374TIP3    H237538   4.849   6.776  12.525  0.7597  1.0333  0.0460
 5375TIP3   OH237539   3.223   3.465   0.172  0.0544  0.3928  0.5966
 5375TIP3    H137540   3.132   3.496   0.171  0.6377  2.1386 -0.9946
 5375TIP3    H237541   3.233   3.418   0.090  0.7283  0.6552  0.5229
 5376TIP3   OH237542   3.398   2.797   0.058 -0.1689 -0.2697 -0.6984
 5376TIP3    H137543   3.381   2.864  -0.007 -1.5576 -1.4861 -1.6300
 5376TIP3    H237544   3.362   2.833   0.140  1.3470  1.1435 -0.6529
 5377TIP3   OH237545   0.430   2.832   4.807 -0.3827 -0.0908  0.0017
 5377TIP3    H137546   0.372   2.792   4.743 -0.4704  0.0804 -0.0260
 5377TIP3    H237547   0.390   2.917   4.827 -0.6508 -0.3694  0.6848
 5378TIP3   OH237548   3.693   4.882  13.122  0.0321  0.4335  0.3783
 5378TIP3    H137549   3.630   4.910  13.055  2.3269  0.9277 -1.6666
 5378TIP3    H237550   3.733   4.963  13.153  1.2147 -0.0213  0.0550
 5379TIP3   OH237551   3.140   3.515   2.108  0.1990  0.3495  0.3712
 5379TIP3    H137552   3.154   3.553   2.021 -2.5008  3.1966  1.0843
 5379TIP3    H237553   3.047   3.493   2.109  0.3521 -0.2650  2.3446
 5380TIP3   OH237554   2.858   6.643  13.428 -0.3017 -0.7875 -0.6457
 5380TIP3    H137555   2.927   6.635  13.494 -0.4670  1.6530 -0.1144
 5380TIP3    H237556   2.782   6.599  13.468  0.0578 -0.7290  0.1164
 5381TIP3   OH237557   4.811   6.768  13.494 -0.2082 -0.0209 -0.0161
 5381TIP3    H137558   4.832   6.853  13.455 -1.7682  0.1570 -0.4829
 5381TIP3    H237559   4.804   6.708  13.420  0.6397 -0.5250  0.2967
 5382TIP3   OH237560   3.202   3.634   4.150 -0.2392  0.1674  0.0955
 5382TIP3    H137561   3.215   3.567   4.216  1.3378  0.8529  0.5215
 5382TIP3    H237562   3.284   3.685   4.151 -0.8290  1.1910 -1.2220
 5383TIP3   OH237563   0.703   0.708  13.418 -0.0764  0.0377 -0.6215
 5383TIP3    H137564   0.719   0.801  13.406  0.7177 -0.4922 -4.1422
 5383TIP3    H237565   0.644   0.703  13.494  1.1008  3.2571  0.5648
 5384TIP3   OH237566   5.716   1.668   5.612  0.1914  0.1577 -0.4729
 5384TIP3    H137567   5.684   1.743   5.562 -1.7660 -0.7163 -0.5915
 5384TIP3    H237568   5.801   1.648   5.574 -0.2780  0.9068 -1.9469
 5385TIP3   OH237569   1.909   0.105   4.388  0.2038 -0.1175  0.5372
 5385TIP3    H137570   1.996   0.143   4.374  0.1287  0.0712  0.5881
 5385TIP3    H237571   1.849   0.177   4.373 -0.1042 -0.8841 -2.2869
 5386TIP3   OH237572   2.495   1.489   2.659 -0.5226 -0.0828 -0.1454
 5386TIP3    H137573   2.567   1.538   2.620  0.9640 -0.8246  1.6278
 5386TIP3    H237574   2.481   1.415   2.600  1.4518 -0.9957  0.5089
 5387TIP3   OH237575   3.014   2.087  12.930  0.4992  0.0202 -0.1428
 5387TIP3    H137576   2.977   2.051  12.850 -1.0270  0.9948  0.0920
 5387TIP3    H237577   3.082   2.025  12.956 -0.3134 -1.3043 -1.1383
 5388TIP3   OH237578   2.027   1.218   3.043  0.1301 -0.3375 -0.3693
 5388TIP3    H137579   2.025   1.222   3.139  0.7667 -0.1032 -0.3635
 5388TIP3    H237580   2.057   1.130   3.023 -0.0109 -0.3892 -0.3510
 5389TIP3   OH237581   6.703   4.519  12.206 -0.5776  0.3433 -0.2150
 5389TIP3    H137582   6.757   4.597  12.219  1.3660 -0.9049 -0.6849
 5389TIP3    H237583   6.684   4.488  12.295  0.1052  0.3655 -0.0608
 5390TIP3   OH237584   0.486   1.684   5.296 -0.2701 -0.2043 -0.0420
 5390TIP3    H137585   0.568   1.662   5.252 -1.6625  1.5234 -3.7483
 5390TIP3    H237586   0.423   1.694   5.225 -2.8602  1.9662  2.4273
 5391TIP3   OH237587   0.521   1.426  16.235 -0.0742 -0.6110  0.2718
 5391TIP3    H137588   0.478   1.399  16.317 -0.6474  0.3954  0.3092
 5391TIP3    H237589   0.448   1.438  16.174  0.2456  0.0796  0.0354
 5392TIP3   OH237590   5.633   1.260  12.137 -0.2040  0.3018  0.2110
 5392TIP3    H137591   5.697   1.291  12.073 -0.4506 -0.4747 -0.4263
 5392TIP3    H237592   5.679   1.191  12.185 -0.7718 -0.7306 -0.7074
 5393TIP3   OH237593   6.174   5.550  12.019 -0.0239 -0.3204 -0.3357
 5393TIP3    H137594   6.247   5.610  12.033 -0.1908  0.5481 -2.8451
 5393TIP3    H237595   6.096   5.602  12.039  0.0145 -1.4359  2.9650
 5394TIP3   OH237596   1.511   1.898  11.582 -1.0990  0.3836  0.0393
 5394TIP3    H137597   1.586   1.853  11.621 -1.3446 -0.8390 -0.8394
 5394TIP3    H237598   1.545   1.935  11.500 -0.9164  1.7477  0.7254
 5395TIP3   OH237599   4.358   1.024   3.994 -0.2422 -0.1233  0.9835
 5395TIP3    H137600   4.315   1.106   4.020  1.2007  0.7349  0.7144
 5395TIP3    H237601   4.430   1.051   3.938  1.1482 -1.4846  2.0726
 5396TIP3   OH237602   4.713   3.252  12.393 -0.1451 -0.3473  0.8223
 5396TIP3    H137603   4.656   3.320  12.357  0.6461 -0.2592 -0.3119
 5396TIP3    H237604   4.656   3.198  12.447 -1.3852 -0.5194 -0.6506
 5397TIP3   OH237605   0.292   2.684  16.854  0.1947 -0.1126 -0.2171
 5397TIP3    H137606   0.316   2.749  16.920 -0.4737 -1.0088  0.9304
 5397TIP3    H237607   0.368   2.626  16.849  0.0145 -0.3939  0.2208
 5398TIP3   OH237608   6.427   1.340   1.918  0.3625  0.0715  0.1930
 5398TIP3    H137609   6.426   1.430   1.951 -2.1226  0.6476 -1.3417
 5398TIP3    H237610   6.433   1.286   1.996  0.8248  1.5346  1.1968
 5399TIP3   OH237611   3.257   2.002   0.527 -0.0519  0.0397  0.0825
 5399TIP3    H137612   3.304   2.084   0.512 -1.0479  0.4341 -1.0607
 5399TIP3    H237613   3.312   1.952   0.587  1.0446  1.1366  0.0030
 5400TIP3   OH237614   6.014   3.363   3.655 -0.0320 -0.7213  0.0390
 5400TIP3    H137615   6.032   3.333   3.566  0.2773  2.2827 -0.9612
 5400TIP3    H237616   5.925   3.398   3.651 -0.2405 -1.1336  1.0704
 5401TIP3   OH237617   3.851   3.661   3.182  0.1862  0.2423 -0.5201
 5401TIP3    H137618   3.915   3.726   3.213 -2.2324  1.6885  1.6168
 5401TIP3    H237619   3.905   3.590   3.147  2.9768  1.5029  1.0017
 5402TIP3   OH237620   5.990   3.678  11.856 -0.5548  0.2367  0.2713
 5402TIP3    H137621   6.074   3.724  11.868 -0.5953  0.8485 -1.5861
 5402TIP3    H237622   6.012   3.603  11.801 -1.3785  0.9564 -1.0598
 5403TIP3   OH237623   0.996   5.521  15.094 -0.5470  0.5663 -0.2364
 5403TIP3    H137624   1.032   5.435  15.119  0.2471  0.9439 -0.0543
 5403TIP3    H237625   0.970   5.561  15.177  2.4796  1.9947  0.0905
 5404TIP3   OH237626   4.864   2.010   2.453  0.7345  0.3671 -0.2071
 5404TIP3    H137627   4.915   1.929   2.454 -3.7863 -2.6260  0.6418
 5404TIP3    H237628   4.875   2.046   2.541  1.8054  0.0422 -0.1990
 5405TIP3   OH237629   6.383   6.702  15.564 -0.0251 -0.0418 -0.7844
 5405TIP3    H137630   6.404   6.716  15.657 -1.0175 -0.7231 -0.4476
 5405TIP3    H237631   6.291   6.726  15.557  0.0320 -0.0589 -1.5862
 5406TIP3   OH237632   0.335   1.403   2.836  0.4865 -0.0891 -0.7572
 5406TIP3    H137633   0.310   1.485   2.878  1.8182  1.2629 -2.5239
 5406TIP3    H237634   0.316   1.335   2.902  0.0295  1.6837  0.9752
 5407TIP3   OH237635   4.675   4.766  12.614 -0.4277  0.9065  0.1874
 5407TIP3    H137636   4.646   4.843  12.664 -0.4922  0.8023  0.3103
 5407TIP3    H237637   4.687   4.799  12.525 -0.1282  1.1378  0.3135
 5408TIP3   OH237638   0.457   0.511   1.360  0.4248 -0.4501  0.0673
 5408TIP3    H137639   0.434   0.600   1.385  1.3548 -0.0916 -0.3479
 5408TIP3    H237640   0.386   0.457   1.396  0.1885  0.3819  0.8724
 5409TIP3   OH237641   4.795   1.601   2.471 -0.7709  0.0334  0.5285
 5409TIP3    H137642   4.708   1.637   2.457 -1.2386 -0.2861  2.5079
 5409TIP3    H237643   4.802   1.529   2.408 -2.3836 -0.6652  1.1261
 5410TIP3   OH237644   4.484   0.854  11.839  0.0966 -0.5274  0.1574
 5410TIP3    H137645   4.424   0.927  11.851  0.6448  0.0118 -0.3548
 5410TIP3    H237646   4.563   0.893  11.800 -0.3843 -1.7089 -2.0898
 5411TIP3   OH237647   6.219   1.149  14.747  0.1378  0.1414 -0.3653
 5411TIP3    H137648   6.229   1.074  14.688  0.2579  1.3943 -1.9755
 5411TIP3    H237649   6.204   1.223  14.688  0.2504  1.4140  1.1961
 5412TIP3   OH237650   2.878   4.523  13.259 -0.0844  0.2267  0.5171
 5412TIP3    H137651   2.884   4.566  13.174 -0.5877 -1.6178 -0.4883
 5412TIP3    H237652   2.924   4.582  13.319 -0.5434  2.0074 -0.8374
 5413TIP3   OH237653   3.134   3.221   3.033 -0.2587  0.0588 -0.3171
 5413TIP3    H137654   3.097   3.172   3.106 -2.0438  0.6348 -0.8107
 5413TIP3    H237655   3.059   3.241   2.977  0.7118  1.7574 -1.0541
 5414TIP3   OH237656   1.830   1.789   0.454 -0.9874  0.3929  0.3924
 5414TIP3    H137657   1.797   1.727   0.389  1.2688 -0.8931  0.4433
 5414TIP3    H237658   1.771   1.779   0.529 -0.4107 -1.9492  0.5367
 5415TIP3   OH237659   0.747   5.313   3.350 -0.3240 -0.5107  0.3071
 5415TIP3    H137660   0.693   5.313   3.429 -1.9344 -1.1555 -0.7840
 5415TIP3    H237661   0.702   5.372   3.290  2.3096  2.1194  0.7883
 5416TIP3   OH237662   0.875   3.525  12.903  0.2698  0.5331 -0.6604
 5416TIP3    H137663   0.864   3.552  12.994  0.6547 -2.3013  0.2963
 5416TIP3    H237664   0.787   3.499  12.876  0.3778  0.1280 -0.6362
 5417TIP3   OH237665   3.703   2.952   3.198  0.3124 -0.1902  0.1771
 5417TIP3    H137666   3.615   2.985   3.219  0.7732  0.9242  0.3957
 5417TIP3    H237667   3.690   2.896   3.122 -0.5163  0.3566 -0.0893
 5418TIP3   OH237668   4.147   5.059   2.323  0.1028  0.3938 -0.0735
 5418TIP3    H137669   4.185   5.090   2.240  0.9353  2.6918  1.1378
 5418TIP3    H237670   4.083   5.126   2.346  0.8061  0.4457  1.7928
 5419TIP3   OH237671   4.251   3.970   5.434  0.1182 -0.0819 -0.5865
 5419TIP3    H137672   4.219   3.992   5.521  2.7007  0.0156  0.4063
 5419TIP3    H237673   4.308   4.043   5.410 -0.7978  0.0313 -2.4975
 5420TIP3   OH237674   6.086   3.980  14.977 -0.2843 -0.1094 -0.2235
 5420TIP3    H137675   6.117   4.069  14.965 -1.0779 -0.0878 -2.3473
 5420TIP3    H237676   6.131   3.929  14.909 -1.0663 -1.0105 -0.0814
 5421TIP3   OH237677   1.293   6.499   3.603  0.2740  0.3157 -0.1190
 5421TIP3    H137678   1.306   6.514   3.697  2.8501 -0.6551 -0.2736
 5421TIP3    H237679   1.336   6.415   3.586 -1.2232 -0.0995 -1.9430
 5422TIP3   OH237680   4.019   0.910  14.181  0.1064 -0.3061 -0.7475
 5422TIP3    H137681   3.990   0.845  14.245 -0.6494  1.1150  0.4079
 5422TIP3    H237682   3.942   0.925  14.126  1.1868 -2.5934 -2.9609
 5423TIP3   OH237683   1.624   3.921  15.913  0.1574 -0.3297  0.1895
 5423TIP3    H137684   1.584   3.937  15.999 -0.4158 -0.2452 -0.0900
 5423TIP3    H237685   1.598   3.831  15.891  0.4196 -0.4004  0.1620
 5424TIP3   OH237686   6.226   5.696  11.548  0.4328 -0.4911 -0.0554
 5424TIP3    H137687   6.168   5.671  11.476  1.3151 -0.9355 -0.6271
 5424TIP3    H237688   6.171   5.695  11.626  0.1807 -3.1764 -0.2306
 5425TIP3   OH237689   5.393   1.288  11.367 -0.1125 -0.2240 -0.5415
 5425TIP3    H137690   5.460   1.338  11.319 -0.5034  1.0749  0.2614
 5425TIP3    H237691   5.317   1.345  11.368  0.2373  0.2311  2.5964
 5426TIP3   OH237692   5.184   0.559  14.385 -0.0270  0.6836 -0.6167
 5426TIP3    H137693   5.114   0.522  14.439 -0.0234  0.6895 -0.6077
 5426TIP3    H237694   5.193   0.498  14.312  0.3557  0.3723 -0.3151
 5427TIP3   OH237695   3.835   3.685  12.532  0.1069  0.3203 -0.0481
 5427TIP3    H137696   3.902   3.623  12.561  0.0490  0.2299 -0.1075
 5427TIP3    H237697   3.804   3.649  12.449  0.9062  1.0351 -0.6685
 5428TIP3   OH237698   5.882   4.842   2.128 -0.1308  0.0905  0.4362
 5428TIP3    H137699   5.790   4.868   2.129 -0.3368 -0.6071  0.0873
 5428TIP3    H237700   5.889   4.777   2.198 -0.7703 -2.7074 -2.0074
 5429TIP3   OH237701   5.560   2.928   3.729  0.0113 -0.6509  0.0248
 5429TIP3    H137702   5.516   2.957   3.649 -0.4520 -2.4340 -0.3865
 5429TIP3    H237703   5.523   2.983   3.798 -1.0478 -0.4539 -0.6918
 5430TIP3   OH237704   6.007   0.649   0.870 -0.4532 -0.0261  0.3741
 5430TIP3    H137705   6.022   0.574   0.927 -0.9211 -0.2355  0.2279
 5430TIP3    H237706   5.911   0.656   0.864 -0.4151 -0.0579 -0.4392
 5431TIP3   OH237707   0.806   1.879  15.447  0.4143 -0.1746 -0.5244
 5431TIP3    H137708   0.718   1.845  15.433 -1.0010  2.6250  1.1048
 5431TIP3    H237709   0.849   1.871  15.362 -3.0293  2.8901 -2.7351
 5432TIP3   OH237710   4.440   0.792   4.141 -0.9263  0.1862 -0.2410
 5432TIP3    H137711   4.423   0.877   4.101 -0.8522 -1.1213 -3.1661
 5432TIP3    H237712   4.365   0.738   4.114  0.1938 -1.3163 -0.3961
 5433TIP3   OH237713   5.036   4.704   3.399 -0.1175 -0.1887  0.0883
 5433TIP3    H137714   4.976   4.768   3.436 -0.2419  0.8348 -1.8191
 5433TIP3    H237715   4.991   4.620   3.408 -1.0831  0.3431  0.2375
 5434TIP3   OH237716   0.273   1.582  14.328  0.2476  0.4850  0.3973
 5434TIP3    H137717   0.315   1.548  14.407 -0.5617 -0.3207  0.4853
 5434TIP3    H237718   0.245   1.504  14.280 -0.0025  0.9899 -0.2882
 5435TIP3   OH237719   0.516   3.400  15.537 -0.2026 -0.3700  0.0794
 5435TIP3    H137720   0.471   3.477  15.500  0.8263 -0.2668 -0.9949
 5435TIP3    H237721   0.537   3.347  15.460  3.1191  0.4508  0.3603
 5436TIP3   OH237722   2.025   6.261   0.359  0.3986  0.0144  1.1013
 5436TIP3    H137723   1.997   6.173   0.383  1.2547 -0.3147  0.9128
 5436TIP3    H237724   1.979   6.319   0.420 -1.0249 -0.4753  0.5189
 5437TIP3   OH237725   2.482   2.258   5.593 -0.0925  0.4276  0.9098
 5437TIP3    H137726   2.396   2.222   5.574  1.0500 -1.5043 -0.9089
 5437TIP3    H237727   2.487   2.339   5.542 -0.0152 -0.6444 -0.8364
 5438TIP3   OH237728   4.454   4.228  17.055  0.4452  0.1418 -0.0558
 5438TIP3    H137729   4.401   4.171  17.000  1.2070 -1.8343  1.2388
 5438TIP3    H237730   4.407   4.311  17.056 -2.7192 -1.6133  1.2019
 5439TIP3   OH237731   0.305   1.548   3.713  0.4055  0.3874 -0.0437
 5439TIP3    H137732   0.340   1.541   3.802  0.2642 -0.3347 -0.0434
 5439TIP3    H237733   0.365   1.609   3.669  0.7710  0.3545  0.4001
 5440TIP3   OH237734   4.149   0.499   2.028  0.7101 -0.4236 -0.1949
 5440TIP3    H137735   4.120   0.574   1.976  0.3990 -2.0387 -2.4378
 5440TIP3    H237736   4.244   0.495   2.013  0.7804 -0.2800  0.2040
 5441TIP3   OH237737   6.677   3.735   5.199 -0.6100  0.1062 -0.0071
 5441TIP3    H137738   6.738   3.695   5.261  0.2894  1.8709  0.3001
 5441TIP3    H237739   6.704   3.702   5.114 -1.8431 -2.3317  0.5303
 5442TIP3   OH237740   2.951   3.856   1.965  0.0865  0.2473  0.0472
 5442TIP3    H137741   3.043   3.855   1.990 -0.0648 -0.8251  0.5944
 5442TIP3    H237742   2.904   3.862   2.048 -0.3572 -0.3724 -0.1565
 5443TIP3   OH237743   0.500   0.117   0.195  0.0306  0.6681  0.7973
 5443TIP3    H137744   0.436   0.060   0.238  0.7313 -0.6115  0.1682
 5443TIP3    H237745   0.457   0.202   0.192 -1.8069 -0.2540  0.0284
 5444TIP3   OH237746   2.075   4.666   3.007 -0.1220 -0.4895  0.7167
 5444TIP3    H137747   2.108   4.604   3.072 -0.4459  0.8399  2.1809
 5444TIP3    H237748   2.143   4.733   3.002 -1.8573  1.4325  2.5715
 5445TIP3   OH237749   1.572   3.701   4.501  0.0320 -0.6030 -0.3796
 5445TIP3    H137750   1.516   3.656   4.437  0.8613 -1.2801 -0.6453
 5445TIP3    H237751   1.553   3.794   4.488 -0.4623 -0.7858 -1.0017
 5446TIP3   OH237752   6.772   2.846   0.836  0.1215 -0.2732 -0.0205
 5446TIP3    H137753   6.833   2.866   0.764  0.9037  1.8506  1.1834
 5446TIP3    H237754   6.688   2.834   0.793  0.4670  1.4955 -1.2784
 5447TIP3   OH237755   0.083   0.176  13.941  0.2683  0.1954 -0.0864
 5447TIP3    H137756   0.042   0.204  13.859  1.6982 -0.4168 -1.0174
 5447TIP3    H237757   0.033   0.099  13.967  0.8896 -0.6120 -1.2752
 5448TIP3   OH237758   1.873   1.051  17.045  0.1375  0.1313  0.4986
 5448TIP3    H137759   1.877   0.964  17.007 -0.9110 -0.4376  1.6528
 5448TIP3    H237760   1.939   1.101  16.997 -0.3255 -0.8685 -1.2260
 5449TIP3   OH237761   4.122   0.553  14.995  0.1084 -0.1542  0.0572
 5449TIP3    H137762   4.140   0.546  14.901 -1.5811 -0.9994 -0.2276
 5449TIP3    H237763   4.207   0.574  15.034  1.0566 -0.8743 -1.5368
 5450TIP3   OH237764   3.198   6.539   4.390  0.2410 -0.0376  0.3460
 5450TIP3    H137765   3.224   6.601   4.323  0.7695  1.3796  1.8286
 5450TIP3    H237766   3.118   6.575   4.427 -0.3686 -1.1104  0.0729
 5451TIP3   OH237767   6.382   2.753   0.168 -0.3599  0.1800 -0.0066
 5451TIP3    H137768   6.425   2.697   0.232  2.4167 -0.0751 -2.0064
 5451TIP3    H237769   6.313   2.699   0.131  0.4014 -0.9121  0.1647
 5452TIP3   OH237770   5.589   6.641   2.559 -0.2001 -0.4001  0.0832
 5452TIP3    H137771   5.672   6.664   2.516 -0.3865  0.8723  0.3834
 5452TIP3    H237772   5.558   6.565   2.511  0.2235  0.2449 -1.2365
 5453TIP3   OH237773   3.382   2.346  11.648 -0.4136  0.0013 -0.4655
 5453TIP3    H137774   3.304   2.378  11.692 -0.2836  0.8132 -0.8249
 5453TIP3    H237775   3.436   2.309  11.718 -1.8471 -2.1072 -0.4152
 5454TIP3   OH237776   0.356   2.012   4.950 -1.1982 -0.3798  0.5890
 5454TIP3    H137777   0.284   1.998   5.011 -1.1302 -0.6760  0.6041
 5454TIP3    H237778   0.328   1.969   4.869 -0.4133 -1.7942  1.0535
 5455TIP3   OH237779   4.964   3.490  13.441 -0.4600 -0.0594  0.0574
 5455TIP3    H137780   5.045   3.539  13.458 -0.6473  0.1323  0.3780
 5455TIP3    H237781   4.972   3.464  13.349  2.1485 -4.0247  1.2843
 5456TIP3   OH237782   5.791   2.261   5.836 -0.2122 -0.2703 -0.2487
 5456TIP3    H137783   5.873   2.293   5.800 -0.9208  3.6376  1.3428
 5456TIP3    H237784   5.724   2.313   5.792 -1.6776 -1.5593  0.4092
 5457TIP3   OH237785   5.178   4.006   2.763  0.3067 -0.8105  0.3845
 5457TIP3    H137786   5.141   3.972   2.844  0.4084 -1.5499  0.1259
 5457TIP3    H237787   5.122   3.969   2.694 -1.2450  1.6839  0.2266
 5458TIP3   OH237788   6.127   0.661  12.708  0.2664 -0.2878  0.4547
 5458TIP3    H137789   6.076   0.593  12.663  1.4031 -0.3078 -0.8305
 5458TIP3    H237790   6.065   0.732  12.723 -0.3587 -0.6736 -0.2701
 5459TIP3   OH237791   6.434   5.129  15.406 -0.5084 -0.9938 -0.1219
 5459TIP3    H137792   6.401   5.214  15.436  2.6032 -0.3918  1.8551
 5459TIP3    H237793   6.410   5.069  15.477 -0.9698 -1.3842 -0.6082
 5460TIP3   OH237794   4.747   0.957   1.158 -0.0384 -0.0366  0.3872
 5460TIP3    H137795   4.688   0.907   1.215  1.2328 -1.1981  0.7332
 5460TIP3    H237796   4.699   0.968   1.077 -1.3221  0.3831  1.1866
 5461TIP3   OH237797   5.172   3.272  13.454  0.1902  0.2186  0.4733
 5461TIP3    H137798   5.091   3.229  13.483 -0.0869 -0.5729 -1.3921
 5461TIP3    H237799   5.145   3.324  13.378  1.3969  0.1636  0.0063
 5462TIP3   OH237800   5.651   1.579  16.074 -0.8127  0.5346  0.4112
 5462TIP3    H137801   5.601   1.658  16.096 -2.6276  1.1288 -5.1259
 5462TIP3    H237802   5.696   1.601  15.993 -0.9680 -3.9253 -1.0111
 5463TIP3   OH237803   5.327   6.086   3.942  0.0184  0.0586  0.4462
 5463TIP3    H137804   5.274   6.007   3.942  1.5281 -0.9662  0.7236
 5463TIP3    H237805   5.413   6.058   3.974  0.7571  1.6686 -0.0715
 5464TIP3   OH237806   6.239   1.720   1.297 -0.2318  0.4852  0.0790
 5464TIP3    H137807   6.305   1.754   1.237  0.0509 -1.1051 -0.5419
 5464TIP3    H237808   6.290   1.675   1.365 -0.6325  0.2995  0.2548
 5465TIP3   OH237809   1.571   6.182  15.662  0.4297 -0.4056  0.2431
 5465TIP3    H137810   1.633   6.124  15.705  0.0018  0.1948  1.6834
 5465TIP3    H237811   1.509   6.123  15.618  1.2319 -1.0072 -0.0900
 5466TIP3   OH237812   1.748   5.597   1.203  0.0535  0.0935 -0.4649
 5466TIP3    H137813   1.734   5.662   1.272 -0.3579 -0.4737 -0.0079
 5466TIP3    H237814   1.824   5.628   1.155 -0.3055  1.0570 -0.4121
 5467TIP3   OH237815   1.814   2.093  14.465  0.2500 -0.2505  0.4878
 5467TIP3    H137816   1.764   2.104  14.546  1.2338  1.2646  0.9190
 5467TIP3    H237817   1.750   2.102  14.395 -0.7735 -2.5129  1.0958
 5468TIP3   OH237818   3.725   0.019  15.579  0.1785  0.0796 -0.5127
 5468TIP3    H137819   3.741  -0.075  15.570 -0.4246 -0.2493  1.6373
 5468TIP3    H237820   3.811   0.056  15.596  0.2815 -0.2078 -0.4061
 5469TIP3   OH237821   6.329   5.117   4.106  0.1061 -0.7056  0.1190
 5469TIP3    H137822   6.322   5.113   4.010  1.6454 -1.0340  0.0012
 5469TIP3    H237823   6.343   5.209   4.125  1.9355 -0.9012 -0.1629
 5470TIP3   OH237824   3.648   2.209  12.680  0.4073  0.2623 -0.1788
 5470TIP3    H137825   3.632   2.268  12.755 -4.9868 -1.3313  0.1342
 5470TIP3    H237826   3.641   2.266  12.603  0.7210  0.9657  0.3009
 5471TIP3   OH237827   2.039   0.455   0.575 -0.2418  0.1230  0.3218
 5471TIP3    H137828   2.129   0.431   0.597  0.2288  0.1696 -1.4374
 5471TIP3    H237829   2.020   0.531   0.629 -0.8444 -2.5424  4.0827
 5472TIP3   OH237830   2.157   1.774  15.532  0.3609  0.0948  0.1515
 5472TIP3    H137831   2.194   1.846  15.482 -0.8461  1.8842  1.7782
 5472TIP3    H237832   2.232   1.717  15.551  1.0983  0.2050 -2.2784
 5473TIP3   OH237833   2.641   0.819   2.144  0.0113 -0.0889  0.3735
 5473TIP3    H137834   2.675   0.857   2.063  0.2788  2.2872  1.5506
 5473TIP3    H237835   2.620   0.729   2.122 -0.4203  0.6821 -2.4727
 5474TIP3   OH237836   5.401   5.978   0.471  0.0094 -0.3675  0.0101
 5474TIP3    H137837   5.441   6.060   0.440  1.1465 -0.6781  0.6148
 5474TIP3    H237838   5.451   5.956   0.550 -0.3985 -1.5700 -0.0655
 5475TIP3   OH237839   6.659   2.909  11.269  0.8665 -0.3406  0.4149
 5475TIP3    H137840   6.619   2.847  11.207  1.9283 -0.8732  0.2569
 5475TIP3    H237841   6.730   2.860  11.310  2.4163  1.0979 -0.5016
 5476TIP3   OH237842   1.846   3.413   1.989  0.1314 -0.5075  0.1908
 5476TIP3    H137843   1.916   3.475   1.966 -0.6901  0.8993  1.4123
 5476TIP3    H237844   1.773   3.438   1.932  0.0624 -0.8612  0.1279
 5477TIP3   OH237845   0.833   1.180  15.087  0.1559 -0.3542  0.5517
 5477TIP3    H137846   0.849   1.116  15.017  0.3956  0.4997 -0.1779
 5477TIP3    H237847   0.788   1.252  15.044 -0.5517 -0.2279  1.4725
 5478TIP3   OH237848   5.628   2.731  15.678  0.3463  0.6709 -0.4654
 5478TIP3    H137849   5.626   2.701  15.769  0.3129  0.6990 -0.4566
 5478TIP3    H237850   5.629   2.827  15.684  1.4905  0.6662 -0.4679
 5479TIP3   OH237851   4.284   4.618   1.905  0.2221  0.0386 -0.1662
 5479TIP3    H137852   4.310   4.613   1.997  0.1483  1.4967 -0.0629
 5479TIP3    H237853   4.310   4.533   1.869 -0.1308 -0.7211  1.2877
 5480TIP3   OH237854   0.349   5.080   4.867  0.0121 -0.1259  0.0220
 5480TIP3    H137855   0.368   5.164   4.824 -2.6583  0.1819 -0.6246
 5480TIP3    H237856   0.298   5.031   4.803  0.9790 -2.0181  0.6636
 5481TIP3   OH237857   5.006   4.854   0.568  0.0136 -0.2982  0.0031
 5481TIP3    H137858   5.094   4.818   0.582  0.0870 -0.5341 -1.0446
 5481TIP3    H237859   5.009   4.941   0.607  0.7651 -0.2380 -0.1787
 5482TIP3   OH237860   6.711   2.880  14.987 -0.1344 -0.5923 -0.1987
 5482TIP3    H137861   6.780   2.831  15.031  0.7106 -0.1869 -1.0534
 5482TIP3    H237862   6.698   2.958  15.040 -0.5966 -1.1219  0.4719
 5483TIP3   OH237863   0.173   5.820   2.627 -0.5469  0.0473  0.3502
 5483TIP3    H137864   0.083   5.838   2.655 -0.8090 -1.3357  0.4353
 5483TIP3    H237865   0.163   5.771   2.546  0.1624  0.7123 -0.1527
 5484TIP3   OH237866   2.654   0.550   4.751  0.2009 -0.4054  0.5727
 5484TIP3    H137867   2.647   0.535   4.657 -0.9471  0.5066  0.5159
 5484TIP3    H237868   2.653   0.462   4.790  0.2263 -0.7555 -0.2210
 5485TIP3   OH237869   4.380   4.699  15.370  0.5051 -0.2497 -0.6363
 5485TIP3    H137870   4.379   4.681  15.464  1.9410 -0.2992 -0.6269
 5485TIP3    H237871   4.452   4.761  15.358  0.4312 -0.3584 -1.7232
 5486TIP3   OH237872   3.997   1.991  12.699  0.1735  0.2173  0.4251
 5486TIP3    H137873   3.982   1.921  12.636 -1.1806  0.2586  0.6768
 5486TIP3    H237874   4.066   1.958  12.757  0.1660 -0.5423  0.0052
 5487TIP3   OH237875   6.199   4.218  11.918  0.6235  0.2092  0.5220
 5487TIP3    H137876   6.137   4.284  11.886  0.2947 -0.3907 -0.1019
 5487TIP3    H237877   6.244   4.188  11.839 -2.6009 -3.7918  0.0370
 5488TIP3   OH237878   0.053   0.664  15.674  0.0516  0.0717  0.5296
 5488TIP3    H137879  -0.035   0.701  15.683 -0.0570 -0.2736  0.8956
 5488TIP3    H237880   0.051   0.616  15.591  0.1217  0.6867  0.1711
 5489TIP3   OH237881   5.065   4.919  13.634 -0.2845 -0.4998  0.6794
 5489TIP3    H137882   5.159   4.922  13.618 -0.4171 -0.8145 -0.2109
 5489TIP3    H237883   5.040   5.010  13.647 -0.1884 -0.1752 -1.2067
 5490TIP3   OH237884   3.553   4.820   2.027 -0.3673  0.1049 -0.0939
 5490TIP3    H137885   3.552   4.896   2.085  1.2354 -0.8206  1.2123
 5490TIP3    H237886   3.587   4.749   2.082  0.3275 -1.0121 -1.9263
 5491TIP3   OH237887   5.121   6.093  16.791  0.1602 -0.1882 -0.1922
 5491TIP3    H137888   5.049   6.063  16.736 -0.3521  0.0506  0.3438
 5491TIP3    H237889   5.088   6.171  16.835 -0.6653 -2.2665  3.0677
 5492TIP3   OH237890   2.166   1.778   4.972 -0.5282 -0.2128  0.1299
 5492TIP3    H137891   2.242   1.771   4.915 -1.0996 -1.1121 -0.5228
 5492TIP3    H237892   2.204   1.788   5.060  0.3419  0.2291 -0.2872
 5493TIP3   OH237893   2.320   3.097  13.718  1.0059 -0.2060  0.1231
 5493TIP3    H137894   2.388   3.033  13.738  0.2356 -1.4524 -1.1588
 5493TIP3    H237895   2.244   3.045  13.692 -0.1714  1.1816  0.6738
 5494TIP3   OH237896   6.287   1.141   1.717  0.3376 -0.1627  0.6474
 5494TIP3    H137897   6.255   1.231   1.729 -0.0822 -0.1143 -0.7728
 5494TIP3    H237898   6.221   1.087   1.760  0.8794  0.2298  2.0082
 5495TIP3   OH237899   5.581   3.000   3.233 -0.2182  0.3691  0.5954
 5495TIP3    H137900   5.487   2.987   3.223 -0.2666  0.6719  0.6430
 5495TIP3    H237901   5.594   3.000   3.328  0.0112 -0.9452  0.5686
 5496TIP3   OH237902   2.512   5.587   4.635  0.4361 -0.0709 -0.0725
 5496TIP3    H137903   2.441   5.542   4.590  0.6932 -0.9024  0.3240
 5496TIP3    H237904   2.591   5.563   4.586  0.5222  0.3029 -0.1174
 5497TIP3   OH237905   2.308   6.046   2.559  0.0806  0.2693 -0.4270
 5497TIP3    H137906   2.275   6.107   2.494 -0.5712  0.0554 -0.2989
 5497TIP3    H237907   2.374   5.995   2.512 -1.0960 -0.5628 -1.2142
 5498TIP3   OH237908   2.701   4.942  16.717  0.4545  0.7237  0.1265
 5498TIP3    H137909   2.768   4.911  16.778 -0.7398 -0.9575  0.6248
 5498TIP3    H237910   2.664   5.020  16.759 -1.3399 -1.2269  2.3088
 5499TIP3   OH237911   1.942   6.209  10.889  0.0658  0.0902 -0.4351
 5499TIP3    H137912   2.018   6.151  10.891 -0.0305 -0.0227  0.6713
 5499TIP3    H237913   1.979   6.297  10.899  0.2084  0.2168 -2.0662
 5500TIP3   OH237914   2.441   0.890  12.219 -0.4035  0.3430  0.0546
 5500TIP3    H137915   2.392   0.841  12.284 -1.8490  1.8971  0.1657
 5500TIP3    H237916   2.433   0.838  12.139 -2.7200  0.8403 -0.0632
 5501TIP3   OH237917   2.438   5.894  13.246 -0.1382  0.1652  0.2242
 5501TIP3    H137918   2.375   5.899  13.318 -1.9791 -1.0490 -1.2289
 5501TIP3    H237919   2.422   5.974  13.195 -0.2066  0.0851  0.1165
 5502TIP3   OH237920   5.361   4.306   2.503  0.0178  0.2876  0.2021
 5502TIP3    H137921   5.315   4.222   2.511  1.6376 -0.6152  0.2792
 5502TIP3    H237922   5.424   4.292   2.433  0.0015  1.5970 -0.0771
 5503TIP3   OH237923   6.640   3.278   4.319  0.1045  0.0788 -0.2069
 5503TIP3    H137924   6.691   3.316   4.390  1.5310  0.0236 -1.1575
 5503TIP3    H237925   6.676   3.318   4.240 -1.2680 -0.0624 -0.9231
 5504TIP3   OH237926   2.099   2.350   2.761 -0.0914  0.2358 -0.1231
 5504TIP3    H137927   2.129   2.265   2.729 -0.6419 -0.7214  1.8254
 5504TIP3    H237928   2.162   2.374   2.830  1.9160  2.9315 -2.7604
 5505TIP3   OH237929   5.460   3.537  14.332 -0.2276  0.0768 -0.2711
 5505TIP3    H137930   5.417   3.581  14.405 -0.1903 -0.6266  0.1768
 5505TIP3    H237931   5.553   3.541  14.352 -0.2739 -0.8600  0.1378
 5506TIP3   OH237932   5.394   1.434   3.412  0.0412 -0.2313  0.1527
 5506TIP3    H137933   5.447   1.424   3.333 -0.4976  1.2265 -0.4248
 5506TIP3    H237934   5.418   1.360   3.467  2.8106  0.4679 -0.0111
 5507TIP3   OH237935   1.150   5.728  12.278  0.2499 -0.2518 -0.2345
 5507TIP3    H137936   1.096   5.698  12.351  2.0039  0.2785  1.3225
 5507TIP3    H237937   1.209   5.655  12.261  0.8853  0.2244 -0.0795
 5508TIP3   OH237938   3.803   6.538  15.555  0.2545 -0.3638  0.1523
 5508TIP3    H137939   3.782   6.515  15.464 -2.1876  1.5204  0.1745
 5508TIP3    H237940   3.851   6.463  15.589  0.0553 -1.6491 -2.3171
 5509TIP3   OH237941   5.359   3.188  12.083 -0.4651 -0.0277 -0.2831
 5509TIP3    H137942   5.414   3.224  12.013 -0.2097  1.9321  0.8800
 5509TIP3    H237943   5.394   3.101  12.098  0.6105  0.1865 -1.3961
 5510TIP3   OH237944   0.969   3.725  11.203 -0.1495  0.3033  0.2423
 5510TIP3    H137945   0.903   3.702  11.137 -1.4534  2.3130  0.7885
 5510TIP3    H237946   0.999   3.640  11.238 -1.2692 -0.6912 -1.1518
 5511TIP3   OH237947   4.965   1.127   4.858 -0.1688 -0.5105  0.2430
 5511TIP3    H137948   5.011   1.048   4.829  0.1816 -0.4107  0.5268
 5511TIP3    H237949   5.032   1.179   4.903 -0.0780  0.5480 -1.0660
 5512TIP3   OH237950   1.059   4.756  17.090 -0.5961  0.4515 -0.2527
 5512TIP3    H137951   1.095   4.767  17.002 -0.2824  2.4132  0.1013
 5512TIP3    H237952   0.964   4.763  17.078 -0.5987  0.0052 -0.5191
 5513TIP3   OH237953   3.621   4.939  12.590  0.4457  0.0986 -0.1609
 5513TIP3    H137954   3.672   4.875  12.640 -0.0395 -0.7656 -0.7510
 5513TIP3    H237955   3.659   4.937  12.502  0.4209  0.6201 -0.1846
 5514TIP3   OH237956   3.659   5.957   4.459  0.2000  0.4108 -0.0039
 5514TIP3    H137957   3.594   5.995   4.400  1.7202  0.1700 -1.8957
 5514TIP3    H237958   3.718   6.029   4.480  0.1836  0.2823  0.4895
 5515TIP3   OH237959   0.481   0.386  11.447 -0.2840 -0.1602 -0.0587
 5515TIP3    H137960   0.571   0.363  11.426  0.2472  2.2981 -0.6703
 5515TIP3    H237961   0.429   0.341  11.381  0.5196 -1.3154  0.0883
 5516TIP3   OH237962   4.627   3.227  12.903 -0.1447 -0.7304 -0.0403
 5516TIP3    H137963   4.569   3.290  12.860 -0.5367  0.5863  2.3348
 5516TIP3    H237964   4.571   3.153  12.924 -0.6528 -0.0881  0.9064
 5517TIP3   OH237965   2.585   5.158   4.661  0.1628 -0.0379  0.0321
 5517TIP3    H137966   2.511   5.174   4.604  0.3642  0.3211 -0.1303
 5517TIP3    H237967   2.554   5.182   4.748  0.2155  0.5051 -0.0951
 5518TIP3   OH237968   2.031   0.491  13.623 -0.1705  0.0657  0.5020
 5518TIP3    H137969   2.064   0.573  13.661 -1.3197  0.4786  0.6519
 5518TIP3    H237970   2.095   0.425  13.648  0.5201  0.8330  0.8021
 5519TIP3   OH237971   5.270   0.712   6.176 -0.2205 -0.0520 -0.1058
 5519TIP3    H137972   5.243   0.804   6.184  0.1324 -0.0540  1.2368
 5519TIP3    H237973   5.191   0.667   6.147 -0.7171  0.5104  0.3323
 5520TIP3   OH237974   2.907   5.234   1.611 -0.1815  0.0020 -0.2711
 5520TIP3    H137975   2.991   5.236   1.657 -0.3001  0.4230 -0.0713
 5520TIP3    H237976   2.930   5.250   1.520 -0.1076  0.7747 -0.1217
 5521TIP3   OH237977   1.620   4.820   2.593 -0.2268 -0.5925 -0.2126
 5521TIP3    H137978   1.688   4.887   2.590  0.1479 -0.8620  1.7248
 5521TIP3    H237979   1.559   4.849   2.660 -1.6515 -0.7386 -1.3946
 5522TIP3   OH237980   1.995   5.993  13.562 -0.4078  0.0787  0.1036
 5522TIP3    H137981   1.970   5.935  13.491 -1.9663  0.9941 -0.1002
 5522TIP3    H237982   1.940   6.070  13.552  1.5636  1.5773  0.4269
 5523TIP3   OH237983   5.594   2.474  13.190  0.4558  0.2458  0.8097
 5523TIP3    H137984   5.636   2.432  13.264 -0.2281 -0.9586  0.5192
 5523TIP3    H237985   5.505   2.439  13.189  0.4662  0.1994 -0.6061
 5524TIP3   OH237986   2.748   0.177   4.852 -0.0743 -0.3092 -0.3626
 5524TIP3    H137987   2.739   0.089   4.888  0.4861 -0.3511 -0.3233
 5524TIP3    H237988   2.830   0.174   4.802 -0.2277  0.0915 -0.6429
 5525TIP3   OH237989   4.623   0.488   1.460 -0.1928  0.0449 -0.3510
 5525TIP3    H137990   4.600   0.395   1.450 -0.9509  0.0296  1.3516
 5525TIP3    H237991   4.561   0.521   1.525  2.8061  0.6598  2.3077
 5526TIP3   OH237992   4.310   1.581  15.022  0.1613 -0.4846 -0.6826
 5526TIP3    H137993   4.318   1.516  14.953  2.3259 -1.8415  0.7762
 5526TIP3    H237994   4.237   1.550  15.076  2.8920 -3.2915  1.5597
 5527TIP3   OH237995   3.833   5.713  14.723 -0.0914  0.2447 -0.6843
 5527TIP3    H137996   3.871   5.800  14.736  3.1486 -0.7354 -2.9094
 5527TIP3    H237997   3.800   5.715  14.633 -1.1405 -0.4710 -0.3268
 5528TIP3   OH237998   2.695   1.991   2.598  0.2001  0.0873 -0.1518
 5528TIP3    H137999   2.719   2.070   2.551  0.5329 -0.5696 -1.0915
 5528TIP3    H238000   2.602   1.979   2.579 -0.1190  0.8600  0.8919
 5529TIP3   OH238001   1.171   2.422  14.421 -0.6518  0.0880 -0.5645
 5529TIP3    H138002   1.221   2.341  14.412 -1.0684 -0.1281 -0.9843
 5529TIP3    H238003   1.089   2.396  14.464 -1.4472  0.0102 -2.0889
 5530TIP3   OH238004   2.872   5.964  12.915 -0.3361 -0.0070 -0.1127
 5530TIP3    H138005   2.961   5.996  12.904 -0.3512 -0.0546 -0.3950
 5530TIP3    H238006   2.834   6.019  12.983  0.3630 -0.9263  1.0431
 5531TIP3   OH238007   5.972   5.484   4.149  0.6679 -0.0349 -0.3507
 5531TIP3    H138008   5.885   5.452   4.125  0.7538  0.4544 -1.3104
 5531TIP3    H238009   6.025   5.404   4.156 -0.1559 -0.4455  1.5132
 5532TIP3   OH238010   4.348   0.466   5.322 -0.3800  0.2981  0.3857
 5532TIP3    H138011   4.407   0.392   5.309 -1.9534 -0.9402  0.2525
 5532TIP3    H238012   4.403   0.543   5.307  1.3209 -0.8256  0.7626
 5533TIP3   OH238013   4.859   0.059  16.731  0.3481 -0.1445  0.9813
 5533TIP3    H138014   4.809   0.133  16.698  0.7146 -1.1334 -1.8743
 5533TIP3    H238015   4.803  -0.017  16.717  1.7904 -0.9893 -0.3725
 5534TIP3   OH238016   6.394   2.420   1.724  0.2097 -0.1880 -0.0200
 5534TIP3    H138017   6.376   2.428   1.817  1.3091 -2.6686  0.4380
 5534TIP3    H238018   6.334   2.482   1.682 -2.2048 -0.9920  2.1311
 5535TIP3   OH238019   0.031   5.412  14.352  0.4710  0.4488 -0.1683
 5535TIP3    H138020  -0.057   5.444  14.330 -0.1834 -0.6698  0.7833
 5535TIP3    H238021   0.016   5.330  14.398  2.0351  0.1723 -0.1243
 5536TIP3   OH238022   3.109   5.915   1.203  0.5274 -0.0546 -0.4440
 5536TIP3    H138023   3.202   5.903   1.183 -0.1389 -1.5200 -2.7872
 5536TIP3    H238024   3.077   5.974   1.135 -0.4506 -0.2692 -0.1789
 5537TIP3   OH238025   4.348   3.771   1.762  0.1517  0.6069 -0.1511
 5537TIP3    H138026   4.363   3.865   1.751  0.4616  0.5477 -0.2708
 5537TIP3    H238027   4.291   3.763   1.838 -1.0068  0.9673 -0.9743
 5538TIP3   OH238028   6.643   0.199  10.873 -0.2134  0.7054  0.4113
 5538TIP3    H138029   6.707   0.199  10.944 -1.0881  1.6035  1.2030
 5538TIP3    H238030   6.617   0.291  10.863 -2.0349  0.2456  0.6969
 5539TIP3   OH238031   4.820   4.355  13.573  0.3235  0.7909 -0.4093
 5539TIP3    H138032   4.883   4.402  13.627  0.8741 -2.2054  1.6604
 5539TIP3    H238033   4.873   4.315  13.504  0.0339  1.9885 -1.3504
 5540TIP3   OH238034   5.556   2.693   0.829 -0.5339  0.3547 -0.5532
 5540TIP3    H138035   5.622   2.760   0.811 -1.5331  1.0006 -1.7990
 5540TIP3    H238036   5.529   2.662   0.743 -1.3976 -0.3705 -0.0201
 5541TIP3   OH238037   3.171   1.527  15.235 -0.3638  0.2233 -0.6082
 5541TIP3    H138038   3.081   1.551  15.211 -0.8292 -2.1737 -1.4719
 5541TIP3    H238039   3.161   1.449  15.290  1.2267 -0.6904 -1.5750
 5542TIP3   OH238040   2.896   6.183  14.279  0.0227 -0.1914  0.0962
 5542TIP3    H138041   2.950   6.137  14.342 -0.2022  0.6092  0.8887
 5542TIP3    H238042   2.847   6.115  14.233 -1.4201 -0.6649  2.2662
 5543TIP3   OH238043   2.655   0.292  12.356 -0.0181 -0.3006 -0.0026
 5543TIP3    H138044   2.675   0.296  12.449  1.0357  0.2098 -0.2402
 5543TIP3    H238045   2.568   0.330  12.348  0.9913  2.1914  0.4465
 5544TIP3   OH238046   6.238   5.954   5.085  0.2731  0.4649  0.2521
 5544TIP3    H138047   6.176   5.907   5.141  1.4756 -0.9597  0.4204
 5544TIP3    H238048   6.197   5.955   4.999 -1.2086  1.9374  0.9511
 5545TIP3   OH238049   1.230   3.954  12.368 -0.9007 -0.1648  0.1524
 5545TIP3    H138050   1.179   3.961  12.287  0.0139 -0.7513 -0.4859
 5545TIP3    H238051   1.247   3.860  12.377 -0.2877 -0.0191  0.5741
 5546TIP3   OH238052   4.197   1.673   5.081  0.3404  0.3162 -0.4358
 5546TIP3    H138053   4.210   1.736   5.010 -1.2122  0.5357 -0.5509
 5546TIP3    H238054   4.137   1.608   5.044 -1.1630  0.8959  0.9251
 5547TIP3   OH238055   5.187   2.621  11.306  0.6518 -0.3930 -0.0527
 5547TIP3    H138056   5.231   2.608  11.222  0.7972  0.7733 -0.1693
 5547TIP3    H238057   5.187   2.716  11.318  0.1759 -0.5258  1.0239
 5548TIP3   OH238058   2.607   2.916   1.969  0.0703  0.2581  0.7029
 5548TIP3    H138059   2.562   2.847   2.018 -1.9025  1.8049  1.1314
 5548TIP3    H238060   2.692   2.925   2.013 -0.8354  0.1527  2.5309
 5549TIP3   OH238061   1.538   6.598   4.569  0.2053 -0.1525 -0.0148
 5549TIP3    H138062   1.558   6.562   4.655  0.4994  0.6852  0.2775
 5549TIP3    H238063   1.588   6.544   4.508  0.6617 -0.2184  0.4130
 5550TIP3   OH238064   1.902   3.903   4.655 -0.0977 -0.2866 -0.3976
 5550TIP3    H138065   1.960   3.935   4.724  0.8647  2.3584 -2.3159
 5550TIP3    H238066   1.896   3.977   4.594 -1.4588 -2.2940 -2.7550
 5551TIP3   OH238067   5.344   5.561  13.433 -0.8037  0.1348  0.1579
 5551TIP3    H138068   5.346   5.528  13.343 -2.2390  1.7492 -0.4836
 5551TIP3    H238069   5.253   5.550  13.460 -0.8087  1.4827  0.7164
 5552TIP3   OH238070   6.538   0.569  12.695  0.8760 -0.2911  0.0245
 5552TIP3    H138071   6.576   0.649  12.733  0.9602 -0.6416  0.6685
 5552TIP3    H238072   6.614   0.517  12.670  0.8229 -0.0298 -0.6987
 5553TIP3   OH238073   4.338   1.953  14.229  0.5578  0.0080 -0.3539
 5553TIP3    H138074   4.343   1.895  14.153  0.5498  0.5313 -0.7655
 5553TIP3    H238075   4.430   1.977  14.246  0.6135 -0.5964  0.1846
 5554TIP3   OH238076   5.220   1.846   1.022 -0.2457 -0.6135 -1.1862
 5554TIP3    H138077   5.216   1.942   1.028 -0.5914 -0.5168 -2.7786
 5554TIP3    H238078   5.300   1.828   0.973  0.8544 -1.2438  0.7660
 5555TIP3   OH238079   0.971   0.915  13.597 -0.4439 -0.2475 -0.0204
 5555TIP3    H138080   1.024   0.993  13.580  2.4339 -1.3836  3.1729
 5555TIP3    H238081   1.019   0.843  13.555 -0.9997 -0.8659  0.3958
 5556TIP3   OH238082   2.549   3.882   0.773 -0.3839  0.0326  0.0639
 5556TIP3    H138083   2.491   3.857   0.701  0.3181 -0.0798 -0.4641
 5556TIP3    H238084   2.502   3.951   0.819 -1.4330 -0.8419  0.3035
 5557TIP3   OH238085   3.765   3.375  16.948  0.5393  0.5566  0.1157
 5557TIP3    H138086   3.769   3.295  16.896  0.5889  0.9518 -0.4865
 5557TIP3    H238087   3.763   3.446  16.884  2.0207  1.1090  0.6558
 5558TIP3   OH238088   5.759   1.574  15.098 -0.0990 -0.3056 -0.2279
 5558TIP3    H138089   5.750   1.581  15.192 -1.0805 -0.9401 -0.2757
 5558TIP3    H238090   5.825   1.505  15.085 -1.3851 -1.6134 -0.0215
 5559TIP3   OH238091   3.474   5.199   4.530 -0.1168 -0.3648 -0.3229
 5559TIP3    H138092   3.515   5.113   4.531  0.3448 -0.1529 -0.7418
 5559TIP3    H238093   3.506   5.240   4.449 -2.4375 -0.8193 -1.5256
 5560TIP3   OH238094   6.007   0.195   5.115  0.3139 -0.7891 -0.6865
 5560TIP3    H138095   6.012   0.100   5.122  0.7996 -0.8559 -1.9368
 5560TIP3    H238096   6.070   0.227   5.180  0.1543 -1.3175 -0.2679
 5561TIP3   OH238097   6.449   1.728  14.278 -0.2190  0.5033 -0.3363
 5561TIP3    H138098   6.414   1.791  14.341  0.4072 -0.5760  1.1180
 5561TIP3    H238099   6.538   1.709  14.309  0.5510  0.8412 -2.2198
 5562TIP3   OH238100   4.101   1.549  16.153 -0.4898  1.0138 -0.0624
 5562TIP3    H138101   4.096   1.457  16.130  0.2897  0.9472  0.0409
 5562TIP3    H238102   4.127   1.550  16.245  2.5617  1.3535 -0.8562
 5563TIP3   OH238103   5.041   4.669   4.491 -0.2189 -0.1253 -0.4564
 5563TIP3    H138104   5.070   4.718   4.414  0.0221 -1.1853 -1.0421
 5563TIP3    H238105   5.083   4.714   4.565 -2.1687  2.2163 -0.7280
 5564TIP3   OH238106   1.153   0.655  11.655 -0.5310 -0.0482  0.5689
 5564TIP3    H138107   1.112   0.742  11.655  0.4754  0.4407  0.8312
 5564TIP3    H238108   1.176   0.639  11.746 -1.3228 -0.8887  0.6164
 5565TIP3   OH238109   2.861   2.490   0.415  0.2902 -0.1335 -0.1299
 5565TIP3    H138110   2.897   2.413   0.459 -0.1346  0.6889  1.7314
 5565TIP3    H238111   2.825   2.457   0.333 -1.1585 -2.1805  1.2735
 5566TIP3   OH238112   2.251   0.676   6.499  0.2335  0.4156 -0.5151
 5566TIP3    H138113   2.170   0.718   6.470 -0.7897 -0.5665  0.8433
 5566TIP3    H238114   2.312   0.749   6.512 -1.3086  1.4711  1.1613
 5567TIP3   OH238115   4.560   4.722  16.256 -0.6027  0.5349 -0.1945
 5567TIP3    H138116   4.527   4.719  16.166 -2.7950 -0.8225  0.6191
 5567TIP3    H238117   4.484   4.747  16.308  0.5144  0.7107  1.3762
 5568TIP3   OH238118   1.819   6.484  11.559  0.1269 -0.0100  0.0223
 5568TIP3    H138119   1.869   6.478  11.478 -1.6783  0.0384 -1.1121
 5568TIP3    H238120   1.760   6.408  11.556 -0.7471  0.6389  0.7379
 5569TIP3   OH238121   1.512   2.999   2.548  0.5325 -0.1012  0.8560
 5569TIP3    H138122   1.453   2.936   2.589  1.1934 -0.6916  0.9292
 5569TIP3    H238123   1.472   3.084   2.563 -0.8228 -0.5775 -0.0013
 5570TIP3   OH238124   3.182   6.211  14.042 -0.4879  0.3447 -0.2278
 5570TIP3    H138125   3.207   6.178  14.128 -2.1272 -2.6648 -0.8362
 5570TIP3    H238126   3.115   6.277  14.060  0.2615  0.8344  0.8445
 5571TIP3   OH238127   2.800   5.591  11.352 -0.1925  0.9238  0.2093
 5571TIP3    H138128   2.890   5.591  11.384 -0.2878 -1.6385  0.5751
 5571TIP3    H238129   2.806   5.561  11.262 -0.8037 -0.6829  0.6893
 5572TIP3   OH238130   0.891   0.784  14.677 -0.0466 -0.3171 -0.0609
 5572TIP3    H138131   0.825   0.847  14.704 -0.5034 -1.2989  1.1460
 5572TIP3    H238132   0.923   0.746  14.759  2.1575  0.2742 -0.5983
 5573TIP3   OH238133   5.500   6.311   0.667 -0.0440 -0.2217 -0.2700
 5573TIP3    H138134   5.479   6.314   0.760 -0.2643 -0.2422 -0.3187
 5573TIP3    H238135   5.419   6.282   0.625 -0.2079  0.6545 -0.5619
 5574TIP3   OH238136   1.791   0.398  12.931  0.0677  0.3654  0.1756
 5574TIP3    H138137   1.764   0.460  12.999  0.3928  1.3204 -0.5547
 5574TIP3    H238138   1.887   0.400  12.933  0.1087 -1.7359  1.5978
 5575TIP3   OH238139   2.023   2.846   3.558  0.4526 -0.1217 -0.0531
 5575TIP3    H138140   1.964   2.921   3.548 -1.7590 -1.7139  0.6122
 5575TIP3    H238141   2.074   2.845   3.477  0.5350  2.0970 -0.0661
 5576TIP3   OH238142   0.414   3.068  15.217  0.0822 -0.4371  0.0994
 5576TIP3    H138143   0.407   3.012  15.293 -0.9861 -0.4596  0.0001
 5576TIP3    H238144   0.390   3.155  15.249 -0.0251 -0.3814 -0.1269
 5577TIP3   OH238145   6.476   1.559   3.053 -0.7291 -0.0093  0.1335
 5577TIP3    H138146   6.411   1.629   3.062 -0.9737 -0.2104 -0.0669
 5577TIP3    H238147   6.432   1.482   3.089  0.6807  0.6122  3.3556
 5578TIP3   OH238148   6.240   0.230  11.166 -1.1738  0.0712  0.0293
 5578TIP3    H138149   6.236   0.295  11.235 -1.2486  0.5405 -0.4123
 5578TIP3    H238150   6.162   0.247  11.112  0.8098  2.1303 -2.3064
 5579TIP3   OH238151   3.096   6.628  15.356  0.4642 -0.1170  0.1276
 5579TIP3    H138152   3.083   6.590  15.269 -0.3813 -1.1867  0.6990
 5579TIP3    H238153   3.173   6.582  15.391 -0.7363 -1.5618  0.9358
 5580TIP3   OH238154   2.468   2.905  12.789 -0.4166 -0.1342 -0.2025
 5580TIP3    H138155   2.547   2.886  12.839 -1.5780  0.2797  1.8961
 5580TIP3    H238156   2.404   2.841  12.820 -1.5316  0.9310 -0.2148
 5581TIP3   OH238157   6.679   4.960   2.094  0.1134  0.5760  0.2959
 5581TIP3    H138158   6.616   4.890   2.077 -0.1686  1.4197 -2.4629
 5581TIP3    H238159   6.628   5.040   2.086  1.3580  1.2426 -1.2286
 5582TIP3   OH238160   3.605   2.670  13.012  0.2135 -0.1876 -0.5172
 5582TIP3    H138161   3.652   2.724  12.948 -1.5054  1.1203 -0.7064
 5582TIP3    H238162   3.553   2.732  13.062  0.2351 -1.3977  1.0452
 5583TIP3   OH238163   4.256   3.549  15.262 -0.5185  0.7498  0.5737
 5583TIP3    H138164   4.289   3.581  15.346  0.8089 -0.6693  0.6007
 5583TIP3    H238165   4.188   3.613  15.237 -0.1169  1.8103  2.1512
 5584TIP3   OH238166   4.941   1.334  11.394  0.1545 -0.4879  0.3850
 5584TIP3    H138167   4.990   1.394  11.338  1.4819 -2.9632 -1.1538
 5584TIP3    H238168   4.955   1.248  11.356 -1.8707 -1.7945  2.4574
 5585TIP3   OH238169   5.232   1.819  12.086  0.0063  0.6084  0.2405
 5585TIP3    H138170   5.190   1.877  12.149  1.7460  0.3019  1.7199
 5585TIP3    H238171   5.163   1.759  12.058 -1.4055  2.3752 -0.0947
 5586TIP3   OH238172   5.401   6.543  12.208  0.2175 -0.0559 -0.0994
 5586TIP3    H138173   5.432   6.633  12.218  0.3915 -0.2332  1.0265
 5586TIP3    H238174   5.306   6.551  12.204 -0.0150 -0.0885  3.5589
 5587TIP3   OH238175   3.010   3.484   2.860 -0.1207  0.3518 -0.4824
 5587TIP3    H138176   3.077   3.437   2.910  0.3021  0.2197 -1.1721
 5587TIP3    H238177   2.991   3.428   2.785 -2.2146 -0.4005  0.5704
 5588TIP3   OH238178   4.803   5.054   0.324  0.5360 -0.3174 -0.4932
 5588TIP3    H138179   4.779   5.099   0.243  1.0310 -1.1633 -1.1247
 5588TIP3    H238180   4.896   5.035   0.314  0.5694 -0.5365  0.2217
 5589TIP3   OH238181   6.653   5.528  11.017 -0.4760 -0.0183  0.1665
 5589TIP3    H138182   6.647   5.496  10.927 -1.2144 -0.1196  0.2436
 5589TIP3    H238183   6.668   5.622  11.008  2.4256 -0.4836 -0.0583
 5590TIP3   OH238184   1.238   5.002  12.659  0.0073 -0.1356  0.2115
 5590TIP3    H138185   1.151   4.974  12.631 -0.0084 -0.1537  0.2779
 5590TIP3    H238186   1.234   5.002  12.755  0.1702 -0.4292  0.2211
 5591TIP3   OH238187   2.857   1.489   4.467  0.2044  0.5314  0.5813
 5591TIP3    H138188   2.871   1.428   4.540 -0.2116 -0.9923 -0.5918
 5591TIP3    H238189   2.885   1.441   4.390 -0.2713  1.7943 -0.3951
 5592TIP3   OH238190   4.910   6.578  12.018 -0.7046 -0.4314 -0.2654
 5592TIP3    H138191   4.867   6.493  12.006 -1.4717  0.0067 -0.6972
 5592TIP3    H238192   4.874   6.611  12.101 -1.1900 -0.0790 -0.6115
 5593TIP3   OH238193   4.994   6.682   2.348  0.4949 -0.2192  0.3596
 5593TIP3    H138194   5.062   6.714   2.288 -0.2146  1.5144  0.4373
 5593TIP3    H238195   5.009   6.730   2.430  0.2249 -1.0814  0.9169
 5594TIP3   OH238196   2.839   6.225   2.654  0.2263 -0.2375 -0.8814
 5594TIP3    H138197   2.817   6.161   2.586 -1.5284 -1.0647  0.4230
 5594TIP3    H238198   2.765   6.284   2.658  0.0380 -0.5381  0.6808
 5595TIP3   OH238199   2.314   5.007   0.695 -0.3385  0.5454 -0.1050
 5595TIP3    H138200   2.248   4.937   0.687 -2.0122  1.9891  0.6619
 5595TIP3    H238201   2.272   5.083   0.656  1.2397  1.2952 -0.3607
 5596TIP3   OH238202   5.869   5.383  11.409  0.1046 -0.1702 -0.1838
 5596TIP3    H138203   5.784   5.349  11.438 -0.3034  0.6990 -0.3434
 5596TIP3    H238204   5.890   5.453  11.470  1.4508 -1.3772  0.7734
 5597TIP3   OH238205   2.128   2.035   1.322 -0.3020 -0.1949  0.0309
 5597TIP3    H138206   2.174   2.107   1.366  0.5582 -0.9871  0.4433
 5597TIP3    H238207   2.167   2.030   1.235  0.0164 -0.5100  0.1902
 5598TIP3   OH238208   4.219   0.438   2.496 -0.0603 -0.5578  0.5323
 5598TIP3    H138209   4.158   0.431   2.423  1.3599 -1.6822 -0.5898
 5598TIP3    H238210   4.215   0.530   2.521 -2.0266 -0.5651  0.3385
 5599TIP3   OH238211   2.919   4.097   2.488  0.2126  0.4712  0.1244
 5599TIP3    H138212   2.844   4.136   2.533 -0.0472  0.8923 -0.6688
 5599TIP3    H238213   2.883   4.020   2.445 -0.1519  1.6067 -1.6743
 5600TIP3   OH238214   0.556   6.397  15.353  0.6106 -0.8096 -0.5095
 5600TIP3    H138215   0.516   6.388  15.440 -0.2990 -0.7627 -0.9134
 5600TIP3    H238216   0.615   6.322  15.346  1.0226 -0.5675  0.3254
 5601TIP3   OH238217   3.133   4.243  14.051  0.3419  0.1127 -0.3166
 5601TIP3    H138218   3.175   4.328  14.041  2.1367 -0.8672 -1.5976
 5601TIP3    H238219   3.206   4.180  14.047 -0.7695 -1.4298  1.9452
 5602TIP3   OH238220   2.992   2.029   4.053  0.1935  0.1782  0.3554
 5602TIP3    H138221   2.974   2.083   4.130 -1.4596  0.2895 -0.1018
 5602TIP3    H238222   2.997   2.093   3.981  0.0741 -0.0939  0.1073
 5603TIP3   OH238223   2.698   1.565   0.790  0.2187  0.2631  0.0849
 5603TIP3    H138224   2.679   1.657   0.809  0.9754  0.4217  0.0976
 5603TIP3    H238225   2.789   1.553   0.819  0.9271  0.1343 -2.0760
 5604TIP3   OH238226   1.571   5.686   2.451  0.6157 -0.6777  0.1128
 5604TIP3    H138227   1.645   5.659   2.505 -0.9570 -0.7491  2.2666
 5604TIP3    H238228   1.611   5.712   2.368  2.9991 -1.2571  1.0372
 5605TIP3   OH238229   0.246   2.397  17.077 -0.2780 -0.4781  0.3780
 5605TIP3    H138230   0.312   2.457  17.041 -1.8335 -0.1369 -2.0021
 5605TIP3    H238231   0.173   2.454  17.100 -1.1583 -1.2627 -0.4460
 5606TIP3   OH238232   1.364   1.665   4.999 -0.8341 -0.2069  0.0908
 5606TIP3    H138233   1.415   1.743   4.981  1.6626 -1.8839 -0.4253
 5606TIP3    H238234   1.297   1.663   4.931  1.2536 -0.3254 -2.0270
 5607TIP3   OH238235   6.232   2.795  16.351  0.5750 -0.7822 -0.1565
 5607TIP3    H138236   6.151   2.773  16.398 -0.6097  1.0993 -1.2249
 5607TIP3    H238237   6.241   2.725  16.286  0.5900 -1.7719  0.8967
 5608TIP3   OH238238   6.522   4.218   4.390  0.3194  0.0792  0.3090
 5608TIP3    H138239   6.500   4.311   4.386 -0.6001 -0.1142  0.6787
 5608TIP3    H238240   6.437   4.174   4.393  0.7357 -0.6511  2.3227
 5609TIP3   OH238241   1.872   0.228   3.604 -0.4666  0.4838 -0.4923
 5609TIP3    H138242   1.777   0.219   3.596 -0.4563  0.1763 -0.2596
 5609TIP3    H238243   1.886   0.322   3.611 -0.7445  0.5398 -0.6735
 5610TIP3   OH238244   2.359   0.418   6.497 -0.5320 -0.7863 -0.5434
 5610TIP3    H138245   2.325   0.505   6.517 -0.2322 -0.4298 -1.5141
 5610TIP3    H238246   2.338   0.365   6.573 -0.7599  0.1309  0.0391
 5611TIP3   OH238247   0.333   0.245  13.099 -0.4201  0.1075 -0.1517
 5611TIP3    H138248   0.258   0.189  13.118 -2.7122  2.5990 -1.5330
 5611TIP3    H238249   0.335   0.308  13.171  1.1737 -0.7156  0.5571
 5612TIP3   OH238250   6.246   2.647  13.764  0.2166 -0.6395 -0.7817
 5612TIP3    H138251   6.223   2.738  13.743 -0.4660 -0.5603  0.2560
 5612TIP3    H238252   6.340   2.642  13.752  0.5087  0.6632  0.7636
 5613TIP3   OH238253   2.455   3.384   6.565 -0.5266 -0.1399 -0.6947
 5613TIP3    H138254   2.419   3.323   6.501  0.2264 -1.8051  0.4270
 5613TIP3    H238255   2.548   3.364   6.568 -0.8413 -1.4222  2.2729
 5614TIP3   OH238256   4.534   1.619  16.605  0.3448 -0.1576  0.1049
 5614TIP3    H138257   4.578   1.700  16.578 -0.6077  0.5488  0.6770
 5614TIP3    H238258   4.460   1.611  16.545 -0.1044 -0.1150  0.6592
 5615TIP3   OH238259   2.042   3.638   1.940 -0.2763 -0.0467  0.1869
 5615TIP3    H138260   2.030   3.618   1.847  3.4763  1.8460 -0.8023
 5615TIP3    H238261   1.974   3.702   1.960 -1.9982 -1.5066 -0.8617
 5616TIP3   OH238262   4.566   2.296  16.012 -0.2437  0.1536  0.4795
 5616TIP3    H138263   4.628   2.365  15.987  0.0627  0.6413  2.4837
 5616TIP3    H238264   4.567   2.297  16.108  1.2495 -4.0207  0.5702
 5617TIP3   OH238265   2.220   0.823   2.708 -0.1899  0.4931  0.3530
 5617TIP3    H138266   2.224   0.794   2.799  0.6308  0.6452  0.3708
 5617TIP3    H238267   2.218   0.919   2.714  1.3711  0.5585  0.1846
 5618TIP3   OH238268   3.047   0.757  17.198 -0.2310  0.4337  0.0617
 5618TIP3    H138269   3.048   0.684  17.260 -0.8521  1.1352  0.9141
 5618TIP3    H238270   3.135   0.795  17.203 -0.1169  0.1597  0.1129
 5619TIP3   OH238271   1.051   3.480   6.440  0.1134 -0.2689 -0.3182
 5619TIP3    H138272   0.974   3.424   6.452  0.9430 -1.2270  0.6434
 5619TIP3    H238273   1.120   3.419   6.414  0.5488  0.5861 -1.1977
 5620TIP3   OH238274   6.661   3.032  11.768 -0.1477  0.4784  0.0014
 5620TIP3    H138275   6.579   3.073  11.740 -0.6478  0.4492  1.3884
 5620TIP3    H238276   6.670   2.955  11.712 -0.3194  1.2612 -1.1369
 5621TIP3   OH238277   0.357   5.532  16.293  0.5291  0.1043  0.0400
 5621TIP3    H138278   0.348   5.617  16.337  1.1056  1.2914 -2.0563
 5621TIP3    H238279   0.436   5.542  16.239 -0.7440 -0.9360 -2.0621
 5622TIP3   OH238280   5.104   0.131  13.138 -0.5450 -0.2475 -0.3215
 5622TIP3    H138281   5.081   0.217  13.174  1.5980  0.2967 -0.2003
 5622TIP3    H238282   5.169   0.097  13.198  0.3763 -0.9218 -1.6912
 5623TIP3   OH238283   2.232   1.533  16.802 -0.0494  0.0372 -0.4664
 5623TIP3    H138284   2.186   1.556  16.883  1.0297  3.1578 -0.7044
 5623TIP3    H238285   2.162   1.508  16.741 -1.0195 -0.2206  0.7358
 5624TIP3   OH238286   4.242   4.984  16.521 -0.5525  0.1042 -0.0587
 5624TIP3    H138287   4.276   5.068  16.490 -0.7699  0.0605 -0.4181
 5624TIP3    H238288   4.154   5.004  16.554 -1.0460 -0.1696 -1.1634
 5625TIP3   OH238289   5.854   2.529  13.376 -0.2573 -0.0362  0.5306
 5625TIP3    H138290   5.910   2.590  13.423 -0.1949  0.1764  0.1790
 5625TIP3    H238291   5.770   2.532  13.423 -0.3740  0.6056  0.2770
 5626TIP3   OH238292   5.127   4.725   1.058  1.0808 -0.0722  0.1803
 5626TIP3    H138293   5.067   4.677   1.000 -0.2536  0.9662  0.6561
 5626TIP3    H238294   5.149   4.663   1.127 -0.2260 -0.1843  0.5162
 5627TIP3   OH238295   3.404   4.694  13.236 -0.0669  0.3492 -0.1655
 5627TIP3    H138296   3.360   4.767  13.278  1.4591  0.2525  1.6906
 5627TIP3    H238297   3.489   4.689  13.280  0.3337 -1.7657 -1.1100
 5628TIP3   OH238298   3.900   0.343  15.491  0.2379 -0.0966  0.2020
 5628TIP3    H138299   3.979   0.296  15.465  0.4059  0.4437 -0.2713
 5628TIP3    H238300   3.916   0.433  15.464 -0.3873  0.0843  0.4373
 5629TIP3   OH238301   1.685   3.180   1.796 -0.7901  0.5818  0.4441
 5629TIP3    H138302   1.747   3.189   1.868 -0.4063  2.0042 -0.0375
 5629TIP3    H238303   1.740   3.174   1.718 -1.2168 -0.2458  0.2059
 5630TIP3   OH238304   4.383   3.973   0.447 -0.3608 -0.8146 -0.4961
 5630TIP3    H138305   4.335   4.005   0.523  0.8241  0.0959 -0.1087
 5630TIP3    H238306   4.317   3.967   0.378 -0.9671  0.7343 -0.0742
 5631TIP3   OH238307   5.054   4.219  14.428  0.3350 -0.0266  0.2555
 5631TIP3    H138308   5.133   4.183  14.469 -0.7043 -2.3505  0.3381
 5631TIP3    H238309   4.989   4.222  14.498 -0.6195 -1.3589 -0.5253
 5632TIP3   OH238310   1.978   3.742  13.899  0.4088 -0.0069  0.2117
 5632TIP3    H138311   1.903   3.684  13.886  1.4278 -1.8473  2.1637
 5632TIP3    H238312   2.030   3.732  13.819  0.2284 -1.2863  0.2470
 5633TIP3   OH238313   4.626   6.588   3.723  0.2759 -0.5233  0.1242
 5633TIP3    H138314   4.699   6.526   3.733  1.5093  0.3382 -2.9428
 5633TIP3    H238315   4.667   6.674   3.734 -0.9198 -0.1427  1.6775
 5634TIP3   OH238316   5.012   4.499   4.948 -0.0017 -0.5918 -0.5308
 5634TIP3    H138317   4.969   4.507   4.863 -0.6828  0.5119 -0.1011
 5634TIP3    H238318   5.069   4.423   4.939  0.6714  0.0891 -2.2890
 5635TIP3   OH238319   6.692   1.139  10.733  0.7247 -0.3407 -0.3511
 5635TIP3    H138320   6.631   1.117  10.662  2.8146 -0.9736 -2.0132
 5635TIP3    H238321   6.743   1.212  10.698  1.4726 -0.3522  0.6928
 5636TIP3   OH238322   1.306   6.158   0.571  0.5522  0.2496  0.1215
 5636TIP3    H138323   1.391   6.127   0.541  0.3926  0.2463 -0.3225
 5636TIP3    H238324   1.271   6.208   0.498  0.5251  0.9449  0.5943
 5637TIP3   OH238325   2.168   5.756  14.099 -0.4530  0.6034 -0.2905
 5637TIP3    H138326   2.194   5.826  14.040 -0.1581  1.1335  0.4603
 5637TIP3    H238327   2.101   5.707  14.051  0.2915  0.5951 -1.3460
 5638TIP3   OH238328   4.283   6.238  12.488 -0.1394  0.4316  0.6381
 5638TIP3    H138329   4.194   6.210  12.469  0.2782 -1.1648  0.9041
 5638TIP3    H238330   4.290   6.325  12.449 -1.8284  0.6100  0.6833
 5639TIP3   OH238331   4.067   0.598   4.218  0.4078  0.5231  0.1475
 5639TIP3    H138332   4.043   0.691   4.218  0.1944  0.4652  0.4478
 5639TIP3    H238333   3.987   0.553   4.192  0.1833  0.3307  1.1646
 5640TIP3   OH238334   3.223   3.618  15.741 -0.4381  0.1803 -0.4425
 5640TIP3    H138335   3.312   3.641  15.714 -1.0354  2.4656 -0.6120
 5640TIP3    H238336   3.204   3.678  15.814 -1.0200 -1.8610  1.1376
 5641TIP3   OH238337   0.114   2.984   3.652  0.4618 -0.1412  0.6525
 5641TIP3    H138338   0.134   2.956   3.742  1.0151 -1.3898  0.1632
 5641TIP3    H238339   0.177   3.054   3.634  0.1829  0.2837  1.3324
 5642TIP3   OH238340   4.453   1.771   5.318  0.0254 -0.6363  0.2555
 5642TIP3    H138341   4.515   1.765   5.245  0.2833  0.6800  0.3612
 5642TIP3    H238342   4.424   1.862   5.318  1.9889  0.0609  3.3772
 5643TIP3   OH238343   1.792   0.850  12.855 -0.3047 -0.5133 -0.1069
 5643TIP3    H138344   1.829   0.798  12.926 -0.7141 -1.1108 -0.3289
 5643TIP3    H238345   1.706   0.811  12.839 -0.9323  0.7172  0.2380
 5644TIP3   OH238346   2.140   4.037  17.145  0.2972  0.3669  0.1315
 5644TIP3    H138347   2.155   4.077  17.059 -0.3907 -0.7315 -0.5031
 5644TIP3    H238348   2.061   4.079  17.178  0.6650  0.9225  0.3149
 5645TIP3   OH238349   5.974   0.896   1.811  0.5838 -0.2332 -0.1293
 5645TIP3    H138350   5.944   0.908   1.721 -0.6244 -0.1450  0.2821
 5645TIP3    H238351   5.956   0.805   1.830 -1.1379  0.2774  0.7419
 5646TIP3   OH238352   2.142   0.069  13.985 -0.3915 -0.7958  0.6376
 5646TIP3    H138353   2.227   0.056  14.028  0.1057 -1.7235 -0.5972
 5646TIP3    H238354   2.165   0.096  13.896 -1.3913 -0.7700  0.3875
 5647TIP3   OH238355   4.111   0.216   2.043 -0.2929  0.0095 -0.0655
 5647TIP3    H138356   4.122   0.196   2.136  1.9707 -1.2468 -0.5709
 5647TIP3    H238357   4.095   0.311   2.041 -0.7448 -0.0099  1.6155
 5648TIP3   OH238358   0.275   5.541   2.795  0.1486  0.1065 -0.3861
 5648TIP3    H138359   0.257   5.635   2.793  0.7431  0.1831 -2.8409
 5648TIP3    H238360   0.361   5.534   2.837 -0.3665  0.5599  0.7783
 5649TIP3   OH238361   3.678   1.021  10.946 -0.1537  0.2744  0.0664
 5649TIP3    H138362   3.694   1.042  10.854  1.2186  1.5970  0.5956
 5649TIP3    H238363   3.709   0.930  10.955  1.3949  0.7360 -0.3712
 5650TIP3   OH238364   0.998   2.791   1.839  0.9008 -0.0525 -0.4893
 5650TIP3    H138365   0.919   2.765   1.792  0.4529  2.2933 -1.1097
 5650TIP3    H238366   0.977   2.779   1.931  0.7445 -1.8872 -0.7487
 5651TIP3   OH238367   0.893   0.925  15.840  0.2264  0.0786  0.0162
 5651TIP3    H138368   0.852   0.854  15.889 -1.0478  0.9922  0.2929
 5651TIP3    H238369   0.877   0.903  15.749 -1.7054  0.9026  0.1415
 5652TIP3   OH238370   5.698   2.815   5.103 -0.0308  0.1447  0.1756
 5652TIP3    H138371   5.633   2.747   5.087 -1.0304  1.0053  0.4915
 5652TIP3    H238372   5.679   2.882   5.038  0.6225  0.3487  0.1940
 5653TIP3   OH238373   0.980   6.047  13.930  0.2724  0.0585  0.1159
 5653TIP3    H138374   1.068   6.019  13.955  0.4724  2.1782  1.9385
 5653TIP3    H238375   0.993   6.129  13.882 -0.5492 -0.9880 -1.9700
 5654TIP3   OH238376   3.073   1.853   1.672 -0.6666  0.2781  0.3428
 5654TIP3    H138377   3.082   1.824   1.762  2.2665 -1.8258 -0.5624
 5654TIP3    H238378   3.001   1.802   1.637 -1.7349  1.0205  1.4293
 5655TIP3   OH238379   1.753   1.309  15.820  0.0835  0.7882 -0.0820
 5655TIP3    H138380   1.812   1.382  15.805 -0.7132  1.8267  1.6907
 5655TIP3    H238381   1.783   1.271  15.903 -1.8127  1.4153  0.9065
 5656TIP3   OH238382   4.903   3.812  12.483 -0.4869  0.1719  0.3866
 5656TIP3    H138383   4.982   3.836  12.532 -0.9137  1.9835  0.2418
 5656TIP3    H238384   4.929   3.816  12.391 -0.6345  0.3764  0.3533
 5657TIP3   OH238385   2.706   2.128   1.476  0.4853  0.0073  0.1716
 5657TIP3    H138386   2.645   2.080   1.420  0.0210  1.4379 -0.5796
 5657TIP3    H238387   2.715   2.074   1.554 -1.4715 -0.3750  0.1477
 5658TIP3   OH238388   2.688   5.546  14.146 -0.3913  0.5849  0.1739
 5658TIP3    H138389   2.620   5.607  14.175 -2.6080 -1.6219 -0.2011
 5658TIP3    H238390   2.687   5.477  14.211  1.4883  0.5057  0.1213
 5659TIP3   OH238391   6.097   4.779   6.178  0.1207 -0.0442  0.0372
 5659TIP3    H138392   6.179   4.731   6.172  0.5622  0.6847  0.2663
 5659TIP3    H238393   6.039   4.734   6.115  0.5942 -0.7295  0.0804
 5660TIP3   OH238394   5.754   6.207  17.074  0.5164  0.8162 -0.1891
 5660TIP3    H138395   5.697   6.244  17.007  0.1057 -1.4900 -1.1649
 5660TIP3    H238396   5.807   6.142  17.027  0.1852 -0.8764  1.6992
 5661TIP3   OH238397   5.088   2.929  14.245 -0.0215  0.2592 -0.7215
 5661TIP3    H138398   5.167   2.899  14.200 -2.2200 -3.3025 -2.4223
 5661TIP3    H238399   5.061   3.007  14.197  0.9835 -0.0290 -1.7823
 5662TIP3   OH238400   0.616   5.694   5.965  0.0557  0.2716  0.0253
 5662TIP3    H138401   0.694   5.649   5.933 -0.5434  0.4189 -1.7059
 5662TIP3    H238402   0.625   5.784   5.934 -1.1582  0.0990 -0.8729
 5663TIP3   OH238403   0.534   3.953  14.199  0.1751  0.0746  0.0573
 5663TIP3    H138404   0.452   3.993  14.169  0.1500  2.5874  3.1340
 5663TIP3    H238405   0.509   3.903  14.277  1.5189  0.8177  0.9812
 5664TIP3   OH238406   1.791   2.104   4.651 -0.1497 -0.3832 -0.2553
 5664TIP3    H138407   1.765   2.036   4.713 -0.1408  1.4325  1.7742
 5664TIP3    H238408   1.869   2.068   4.609  0.0974 -1.4640  1.0683
 5665TIP3   OH238409   4.958   5.057  16.945  0.9355  0.6178  0.8081
 5665TIP3    H138410   4.994   4.968  16.946  0.2058  0.2149 -2.4810
 5665TIP3    H238411   5.001   5.099  16.870 -2.0374  1.5355 -0.4592
 5666TIP3   OH238412   4.955   0.105  11.403  0.5862  0.3052  0.1333
 5666TIP3    H138413   4.932   0.190  11.441 -0.4302  0.3951 -0.6860
 5666TIP3    H238414   4.875   0.075  11.360  1.0630 -0.8789  0.0571
 5667TIP3   OH238415   1.739   0.317   4.343 -0.0410  0.4214 -0.0595
 5667TIP3    H138416   1.655   0.276   4.365  0.8310 -0.8647  0.9846
 5667TIP3    H238417   1.750   0.302   4.250 -0.9676  0.5926 -0.1994
 5668TIP3   OH238418   3.607   5.395   2.784  0.2424  0.0207  0.0352
 5668TIP3    H138419   3.552   5.458   2.737  0.5328 -0.5272 -1.0791
 5668TIP3    H238420   3.594   5.312   2.737  0.3101 -0.6196  1.1252
 5669TIP3   OH238421   6.223   0.044   6.215 -0.0615  0.9428  0.2431
 5669TIP3    H138422   6.159   0.011   6.278  0.7756 -0.5603  0.3256
 5669TIP3    H238423   6.174   0.104   6.159 -1.0599  1.4440  1.6395
 5670TIP3   OH238424   0.666   2.714  12.370  0.0431 -0.0592  0.1637
 5670TIP3    H138425   0.636   2.784  12.428 -1.7206  1.1451 -2.1092
 5670TIP3    H238426   0.594   2.651  12.370  1.6098 -1.9319  2.1818
 5671TIP3   OH238427   0.800   0.947   5.743  0.1862 -0.1173  0.7456
 5671TIP3    H138428   0.871   0.882   5.743 -0.3835 -0.7437  0.4105
 5671TIP3    H238429   0.816   0.998   5.664 -1.0633 -1.7403 -0.5941
 5672TIP3   OH238430   3.361   1.499  17.155 -0.2187 -0.0741 -0.8995
 5672TIP3    H138431   3.351   1.594  17.154  1.1780  0.0765 -1.1265
 5672TIP3    H238432   3.394   1.479  17.243 -2.2235 -0.5500 -0.2191
 5673TIP3   OH238433   5.588   5.310  13.029  0.0023  0.1413  0.7446
 5673TIP3    H138434   5.654   5.246  13.002  0.5402  0.3776  1.4663
 5673TIP3    H238435   5.595   5.381  12.965 -0.6939 -0.5805 -0.1383
 5674TIP3   OH238436   5.979   1.083   3.114 -0.0525 -0.2330  0.4101
 5674TIP3    H138437   5.973   1.155   3.052  2.6983  0.0287  0.3870
 5674TIP3    H238438   5.931   1.114   3.191  0.6351  1.4054  0.1959
 5675TIP3   OH238439   3.954   0.535   3.012  0.2378  0.0354 -0.0504
 5675TIP3    H138440   3.997   0.481   2.945  1.1037 -0.0759  0.5975
 5675TIP3    H238441   3.901   0.597   2.961  0.7383 -0.1690 -0.8366
 5676TIP3   OH238442   6.615   4.292   2.049 -0.5700 -0.3106 -0.2608
 5676TIP3    H138443   6.562   4.214   2.036 -1.0341  0.3651 -2.5625
 5676TIP3    H238444   6.555   4.356   2.088 -0.1710 -1.0825  1.6986
 5677TIP3   OH238445   0.171   5.718  12.528 -0.3009  0.2841 -0.7205
 5677TIP3    H138446   0.136   5.632  12.504 -0.3992  0.8856 -2.8721
 5677TIP3    H238447   0.235   5.699  12.597 -1.5984 -1.3011  0.1101
 5678TIP3   OH238448   1.130   5.588  15.869 -0.3433 -0.2430  0.3943
 5678TIP3    H138449   1.071   5.516  15.888  0.9296 -0.8205  2.3337
 5678TIP3    H238450   1.086   5.665  15.904 -1.4530 -0.1590 -1.1761
 5679TIP3   OH238451   4.177   0.237  12.887 -0.1436  0.2591 -0.2134
 5679TIP3    H138452   4.094   0.191  12.882 -0.3522  0.5351  0.6037
 5679TIP3    H238453   4.172   0.303  12.817 -0.1580 -0.4343 -0.8749
 5680TIP3   OH238454   2.751   6.225  11.590 -0.4355 -0.1705  0.5385
 5680TIP3    H138455   2.807   6.243  11.665 -1.6984 -0.5423  1.6108
 5680TIP3    H238456   2.736   6.310  11.549 -0.2428  0.1284  1.0912
 5681TIP3   OH238457   3.052   4.634   5.446  0.0379  0.1527  0.3765
 5681TIP3    H138458   3.032   4.688   5.369  1.1352  1.5280  1.0270
 5681TIP3    H238459   3.097   4.557   5.411  1.3352  1.1905 -0.2981
 5682TIP3   OH238460   3.353   0.320  15.495 -0.5195 -0.4321 -0.0402
 5682TIP3    H138461   3.332   0.308  15.403 -0.2849 -1.9094  0.0762
 5682TIP3    H238462   3.443   0.352  15.496 -0.3671 -0.8442 -0.3217
 5683TIP3   OH238463   0.534   5.450   4.372 -0.1515 -0.1598 -0.4735
 5683TIP3    H138464   0.515   5.365   4.332 -0.4657  0.3427 -1.4225
 5683TIP3    H238465   0.535   5.511   4.298  1.5232  0.4267  0.0167
 5684TIP3   OH238466   4.623   5.586  14.104  0.7218  0.1340 -0.0362
 5684TIP3    H138467   4.690   5.650  14.126 -0.0850  1.5811 -1.6302
 5684TIP3    H238468   4.671   5.506  14.084  1.9472  1.0141 -0.6633
 5685TIP3   OH238469   1.554   1.075   4.016  0.2917  0.2493 -0.0632
 5685TIP3    H138470   1.482   1.013   4.003  0.0524  0.6652 -0.7830
 5685TIP3    H238471   1.578   1.066   4.108 -0.6622  0.0847  0.1738
 5686TIP3   OH238472   1.866   0.368  16.671 -0.2849 -0.2649 -0.0677
 5686TIP3    H138473   1.902   0.429  16.606 -1.3925 -0.8556 -1.2775
 5686TIP3    H238474   1.861   0.285  16.624  0.6708 -1.1470  1.3940
 5687TIP3   OH238475   5.095   6.487   0.493 -1.2015  0.3083  0.3221
 5687TIP3    H138476   5.023   6.520   0.439 -1.2353  0.8839  0.7013
 5687TIP3    H238477   5.091   6.542   0.572 -0.5392  0.1380  0.4730
 5688TIP3   OH238478   1.630   0.175   3.776  0.1613 -0.3710  0.2261
 5688TIP3    H138479   1.577   0.253   3.793 -1.2333 -1.4685  0.9253
 5688TIP3    H238480   1.679   0.161   3.857  0.5143 -0.1489  0.0528
 5689TIP3   OH238481   4.795   5.853  11.694  0.0969 -0.3779 -0.4162
 5689TIP3    H138482   4.779   5.838  11.787 -0.3083 -0.5725 -0.5150
 5689TIP3    H238483   4.841   5.774  11.665  0.1710 -0.3432 -0.3926
 5690TIP3   OH238484   3.723   6.238   0.851 -0.0305 -0.1804 -0.0481
 5690TIP3    H138485   3.638   6.274   0.826 -0.1152  0.1057  0.6465
 5690TIP3    H238486   3.751   6.187   0.775 -0.9241 -0.4604 -0.1891
 5691TIP3   OH238487   5.474   0.153  12.989 -0.0519 -0.1665 -0.2766
 5691TIP3    H138488   5.533   0.110  13.051  0.7638  2.7016  1.0234
 5691TIP3    H238489   5.532   0.205  12.933 -1.0146 -0.6486 -1.7330
 5692TIP3   OH238490   0.521   4.135   2.768  0.6897 -0.4084  0.1237
 5692TIP3    H138491   0.521   4.081   2.847  1.4554 -0.1046  0.3283
 5692TIP3    H238492   0.591   4.199   2.782 -0.0589  0.4913 -0.2206
 5693TIP3   OH238493   6.159   1.542  15.895 -0.2673  0.1864  0.2677
 5693TIP3    H138494   6.146   1.512  15.805 -1.3587 -0.3461  0.5952
 5693TIP3    H238495   6.157   1.462  15.947 -0.4671  0.5698  0.8532
 5694TIP3   OH238496   6.520   4.449   2.607 -0.0275 -0.0967  0.4066
 5694TIP3    H138497   6.469   4.479   2.683  0.0050  0.7139  0.1142
 5694TIP3    H238498   6.611   4.454   2.636  0.0291  0.9253  0.0739
 5695TIP3   OH238499   3.699   6.633  12.044 -0.1160  0.1790  0.4766
 5695TIP3    H138500   3.709   6.725  12.018 -1.0492  0.7464  2.1015
 5695TIP3    H238501   3.699   6.634  12.139 -1.9494 -1.3142  0.5261
 5696TIP3   OH238502   0.654   3.102   1.587 -0.5305 -0.8194  0.3420
 5696TIP3    H138503   0.732   3.070   1.632 -0.7705 -1.1911  0.4972
 5696TIP3    H238504   0.586   3.037   1.608 -0.8292 -0.6014  0.0503
 5697TIP3   OH238505   4.354   5.302   5.089 -0.2381  0.2900  0.0958
 5697TIP3    H138506   4.431   5.293   5.033 -0.3242 -1.5216  0.2474
 5697TIP3    H238507   4.283   5.262   5.040 -0.9518  1.3609  0.2435
 5698TIP3   OH238508   0.919   4.705  10.898  0.4409 -0.8279 -0.3974
 5698TIP3    H138509   0.896   4.737  10.811 -2.3696  0.7747  0.8507
 5698TIP3    H238510   0.971   4.775  10.936 -0.6833 -0.2909  0.1838
 5699TIP3   OH238511   1.391   5.388   1.898  0.0606  0.2741 -0.5874
 5699TIP3    H138512   1.424   5.418   1.983 -0.2531 -0.5553 -0.1697
 5699TIP3    H238513   1.325   5.322   1.919  1.3770 -1.3636 -1.5205
 5700TIP3   OH238514   2.639   6.112  15.817  0.1712  0.0688  0.1742
 5700TIP3    H138515   2.646   6.174  15.890 -1.5193 -1.1824  1.4349
 5700TIP3    H238516   2.572   6.149  15.761 -0.2449 -0.2005  0.4951
 5701TIP3   OH238517   3.654   4.623   0.697 -0.5449 -0.1545  0.0483
 5701TIP3    H138518   3.612   4.700   0.736 -1.5340 -1.0438  0.7795
 5701TIP3    H238519   3.682   4.571   0.772  0.0101 -0.5637 -0.4451
 5702TIP3   OH238520   2.798   5.900  11.395  0.0801  0.6540 -0.1856
 5702TIP3    H138521   2.891   5.918  11.382  0.5761 -0.5100  1.6512
 5702TIP3    H238522   2.788   5.807  11.374 -0.1418  0.1037  2.2317
 5703TIP3   OH238523   6.720   2.306   4.748  0.0599  0.5180 -0.1668
 5703TIP3    H138524   6.786   2.351   4.800  1.3990  1.5515 -2.6884
 5703TIP3    H238525   6.639   2.354   4.766  0.5482  0.9977  0.7758
 5704TIP3   OH238526   1.642   6.397  16.929 -0.3999  0.0414 -0.4977
 5704TIP3    H138527   1.571   6.461  16.925  0.1202  0.5649 -1.6185
 5704TIP3    H238528   1.718   6.448  16.959  0.0773  0.0147 -1.6422
 5705TIP3   OH238529   2.153   0.258  13.763 -0.3191 -0.6911  0.6655
 5705TIP3    H138530   2.083   0.212  13.716 -0.2399  2.4411 -2.7817
 5705TIP3    H238531   2.225   0.262  13.699  0.4450  2.2436  1.6500
 5706TIP3   OH238532   2.181   6.234   3.658  0.2856  0.0081  0.1309
 5706TIP3    H138533   2.178   6.300   3.728  2.2160 -0.9405  1.1648
 5706TIP3    H238534   2.245   6.268   3.596  1.3524 -0.9217  0.7117
 5707TIP3   OH238535   2.575   0.518   5.219  0.0230 -0.4269 -0.6405
 5707TIP3    H138536   2.481   0.514   5.203  0.1519  1.5978 -2.1406
 5707TIP3    H238537   2.583   0.556   5.306 -0.5786  1.3900 -1.3299
 5708TIP3   OH238538   6.577   2.009   0.927  0.0441 -0.2134 -0.0107
 5708TIP3    H138539   6.591   1.920   0.897 -0.8364 -0.1729 -0.5452
 5708TIP3    H238540   6.591   2.005   1.022 -1.2866 -1.1756  0.1490
 5709TIP3   OH238541   3.632   6.204  15.404 -0.0796 -0.1439  0.3794
 5709TIP3    H138542   3.667   6.122  15.438 -0.0343 -0.0693  0.5122
 5709TIP3    H238543   3.541   6.206  15.433 -0.3530 -0.5939 -0.4183
 5710TIP3   OH238544   3.235   5.665   0.264 -0.4934  0.1119  0.1940
 5710TIP3    H138545   3.187   5.624   0.192  0.8390 -2.0443  0.4694
 5710TIP3    H238546   3.169   5.679   0.332 -1.0748 -1.2867 -0.0542
 5711TIP3   OH238547   0.754   0.172   4.183 -0.0525  0.0904  0.3651
 5711TIP3    H138548   0.687   0.231   4.219  0.2025  0.3130  0.4716
 5711TIP3    H238549   0.819   0.164   4.253 -0.9495 -1.6988  1.0075
 5712TIP3   OH238550   4.813   2.576   0.044  0.5034 -0.0892  0.1276
 5712TIP3    H138551   4.815   2.665   0.079 -3.0044  0.9341 -2.0169
 5712TIP3    H238552   4.881   2.575  -0.023  0.1008  1.2232 -0.3190
 5713TIP3   OH238553   4.949   2.989  16.984  0.7548  0.0716  0.3234
 5713TIP3    H138554   5.001   2.977  16.904  0.7320  1.7884  0.0175
 5713TIP3    H238555   4.858   2.991  16.953  0.7621  1.0296  0.3342
 5714TIP3   OH238556   0.642   6.094   5.257  0.0447  0.7401  0.4033
 5714TIP3    H138557   0.645   6.123   5.348 -1.0853 -0.8287  0.9589
 5714TIP3    H238558   0.666   6.002   5.260 -2.1284  0.1017 -0.5837
 5715TIP3   OH238559   1.330   3.566   1.295 -0.6890 -0.5207  0.0678
 5715TIP3    H138560   1.255   3.604   1.248 -1.9586  1.9260  3.8412
 5715TIP3    H238561   1.396   3.635   1.294  0.1410 -1.3162 -0.1031
 5716TIP3   OH238562   0.479   3.199   1.238 -0.0428  0.3277  0.4423
 5716TIP3    H138563   0.395   3.203   1.284  0.6827  0.0170  1.8380
 5716TIP3    H238564   0.467   3.256   1.161 -1.8747 -0.5887  0.0144
 5717TIP3   OH238565   1.686   3.684  14.109 -0.0006  0.1252  0.2356
 5717TIP3    H138566   1.617   3.638  14.155  0.2916  0.3306  0.8823
 5717TIP3    H238567   1.766   3.637  14.131  0.1695  0.3574  0.1234
 5718TIP3   OH238568   1.964   0.843   4.343 -0.4573  0.2591  0.1191
 5718TIP3    H138569   1.881   0.820   4.386 -1.3359  1.6905 -0.7840
 5718TIP3    H238570   2.030   0.832   4.412 -1.1215 -2.6283  0.3673
 5719TIP3   OH238571   5.226   0.703  11.420  0.1092  0.0250  0.0276
 5719TIP3    H138572   5.272   0.695  11.504  1.4405  0.0219 -0.7001
 5719TIP3    H238573   5.213   0.613  11.390  0.1981  0.0519 -0.0889
 5720TIP3   OH238574   4.619   5.557  16.764 -0.5080 -0.0083 -0.1728
 5720TIP3    H138575   4.605   5.648  16.737 -0.8142  0.3532  1.1632
 5720TIP3    H238576   4.553   5.542  16.831  0.2770 -0.8612  0.4142
 5721TIP3   OH238577   0.734   0.096  17.000  0.2420  0.5749 -0.6123
 5721TIP3    H138578   0.803   0.118  16.937  0.6610 -2.4543 -1.2874
 5721TIP3    H238579   0.690   0.020  16.962 -2.8489  1.8307  0.3126
 5722TIP3   OH238580   1.794   1.524  15.130  0.1273 -0.0904  0.1632
 5722TIP3    H138581   1.821   1.612  15.156  1.2658 -0.3542 -0.0852
 5722TIP3    H238582   1.738   1.537  15.054 -1.1643  0.5247  1.2028
 5723TIP3   OH238583   2.626   0.589   3.497 -0.0334 -0.8503 -0.5220
 5723TIP3    H138584   2.636   0.599   3.592  1.4781 -1.8775 -0.5370
 5723TIP3    H238585   2.533   0.603   3.481 -0.5082 -1.6959  1.2672
 5724TIP3   OH238586   1.105   4.113  15.861  0.1952 -0.3553  1.1285
 5724TIP3    H138587   1.088   4.185  15.800 -2.5365 -0.7638  1.3351
 5724TIP3    H238588   1.172   4.060  15.818 -1.0103 -0.1264 -1.1243
 5725TIP3   OH238589   2.943   4.025  12.394  0.1519  0.5544 -0.3119
 5725TIP3    H138590   2.921   4.020  12.487 -0.2341  1.4949 -0.3563
 5725TIP3    H238591   2.865   4.059  12.352  0.2887  0.0303 -1.0052
 5726TIP3   OH238592   4.587   0.441  13.954 -0.3278  0.4271 -0.2407
 5726TIP3    H138593   4.578   0.447  14.050 -1.2997  1.0253 -0.3594
 5726TIP3    H238594   4.680   0.423  13.940 -0.4213 -1.0822  0.8778
 5727TIP3   OH238595   0.436   1.785  10.839 -0.3176  0.3334  0.5106
 5727TIP3    H138596   0.508   1.722  10.847 -0.5359  0.3244  2.6261
 5727TIP3    H238597   0.477   1.870  10.850  0.0562  0.6512 -2.8429
 5728TIP3   OH238598   5.846   0.999   2.144 -0.2554  0.2442  0.2123
 5728TIP3    H138599   5.940   0.991   2.131 -0.1408 -0.5291  1.4100
 5728TIP3    H238600   5.811   0.914   2.118 -0.4590  0.0589  1.0648
 5729TIP3   OH238601   0.659   5.110   6.492 -0.0494 -0.0045  0.1973
 5729TIP3    H138602   0.751   5.131   6.476 -0.2459 -0.7587 -2.0817
 5729TIP3    H238603   0.656   5.014   6.496 -0.7737  0.0062 -0.0046
 5730TIP3   OH238604   0.289   0.609   3.990 -0.4784 -0.7723  0.2219
 5730TIP3    H138605   0.230   0.685   3.986  1.9566  1.0984 -3.2617
 5730TIP3    H238606   0.294   0.579   3.899  2.5615 -1.9068  0.7273
 5731TIP3   OH238607   0.398   6.299   2.630  0.3087  0.5332 -0.2654
 5731TIP3    H138608   0.472   6.260   2.584  0.5443 -1.1078  1.4640
 5731TIP3    H238609   0.339   6.225   2.647 -0.0986  1.2204  1.4359
 5732TIP3   OH238610   2.602   3.883   4.126  0.1700 -0.4338 -0.3727
 5732TIP3    H138611   2.559   3.869   4.042 -0.3786 -0.4508 -0.0886
 5732TIP3    H238612   2.589   3.802   4.175  1.6181 -0.9155 -0.7580
 5733TIP3   OH238613   1.257   6.044  11.805 -0.1876  0.4430 -0.2518
 5733TIP3    H138614   1.228   5.953  11.801 -0.7432  0.5126  1.7581
 5733TIP3    H238615   1.225   6.084  11.724  0.1695 -1.1671 -1.1963
 5734TIP3   OH238616   3.230   4.095  16.317 -0.1564 -0.5282 -0.3430
 5734TIP3    H138617   3.322   4.106  16.340 -0.2095 -0.9683  0.1149
 5734TIP3    H238618   3.184   4.158  16.372 -0.3443 -2.0528  1.3026
 5735TIP3   OH238619   3.360   4.479   0.899  0.9168  0.2950  0.0673
 5735TIP3    H138620   3.429   4.439   0.953  0.6660 -0.0786  0.1158
 5735TIP3    H238621   3.317   4.541   0.958  0.4194 -0.3595  0.4115
 5736TIP3   OH238622   0.676   4.105   3.657  0.0596  0.3635  0.0448
 5736TIP3    H138623   0.762   4.112   3.698  1.2853  0.9808 -2.4862
 5736TIP3    H238624   0.629   4.183   3.685  1.1349  1.1495 -0.3062
 5737TIP3   OH238625   4.284   6.585   5.962 -0.1606 -0.0737  0.0999
 5737TIP3    H138626   4.357   6.533   5.994  0.8969  1.6032  0.4532
 5737TIP3    H238627   4.239   6.615   6.041 -0.5727 -0.1747 -0.0941
 5738TIP3   OH238628   4.872   5.402  11.403 -0.1579  0.0622 -0.0797
 5738TIP3    H138629   4.865   5.391  11.308  1.3734  1.0634 -0.3316
 5738TIP3    H238630   4.813   5.474  11.423  0.7265  0.9319 -0.5309
 5739TIP3   OH238631   2.351   5.125   3.798 -0.0907 -0.0530 -0.4733
 5739TIP3    H138632   2.396   5.200   3.836 -0.0239 -0.7575  0.8336
 5739TIP3    H238633   2.386   5.119   3.709  0.0460  1.3352 -0.5302
 5740TIP3   OH238634   5.002   2.408  12.372  0.0917  0.2976 -0.5141
 5740TIP3    H138635   4.994   2.401  12.467  1.4940 -1.9449 -0.5276
 5740TIP3    H238636   4.942   2.341  12.337  0.8660 -0.0744 -1.1512
 5741TIP3   OH238637   0.221   4.366   1.160 -0.3178 -0.5017 -0.0487
 5741TIP3    H138638   0.249   4.275   1.143 -1.3602 -0.8722  0.2065
 5741TIP3    H238639   0.205   4.402   1.073 -0.2954 -0.6906 -0.1319
 5742TIP3   OH238640   0.995   6.000   2.145  0.2167 -0.7606 -0.6093
 5742TIP3    H138641   0.968   5.930   2.086  1.4171  0.1637 -2.2866
 5742TIP3    H238642   0.935   6.072   2.127  0.2959 -0.6277 -0.3526
 5743TIP3   OH238643   0.628   0.765  11.912  0.5869  0.0381 -0.0536
 5743TIP3    H138644   0.722   0.757  11.898  0.8061 -0.5007  1.7048
 5743TIP3    H238645   0.589   0.702  11.851  1.5175 -2.0617  1.4743
 5744TIP3   OH238646   5.717   6.155   0.558  0.1098 -0.7235 -0.6786
 5744TIP3    H138647   5.725   6.066   0.593 -0.4333 -1.2104 -1.7716
 5744TIP3    H238648   5.663   6.201   0.623  2.0311 -0.6110  0.9019
 5745TIP3   OH238649   0.428   6.068   5.029 -0.4957  0.0251  0.8133
 5745TIP3    H138650   0.519   6.095   5.028 -1.0327  1.9114 -0.4487
 5745TIP3    H238651   0.382   6.139   5.073 -1.7941  0.7172 -1.5425
 5746TIP3   OH238652   2.715   5.334   2.080 -0.6296 -0.3352 -0.2359
 5746TIP3    H138653   2.620   5.342   2.070 -0.8097  0.1110  1.6520
 5746TIP3    H238654   2.745   5.424   2.094 -0.1380 -0.6448  0.7670
 5747TIP3   OH238655   4.100   6.059   3.716  0.0606  0.5165 -0.3322
 5747TIP3    H138656   4.064   6.081   3.630 -1.2127 -0.3502 -0.0281
 5747TIP3    H238657   4.195   6.068   3.705 -0.0780  0.1976 -1.8944
 5748TIP3   OH238658   2.106   2.932  12.225 -0.1634 -0.5228  0.1536
 5748TIP3    H138659   2.190   2.895  12.197  0.0153 -0.2974  0.3925
 5748TIP3    H238660   2.128   3.017  12.263 -0.8110  0.9105 -2.5271
 5749TIP3   OH238661   5.455   6.591   4.768 -0.0632 -0.1274  0.1760
 5749TIP3    H138662   5.532   6.643   4.746  0.0505 -0.5154 -0.3616
 5749TIP3    H238663   5.489   6.502   4.779  0.0490  0.2352  2.9806
 5750TIP3   OH238664   4.757   3.306  15.078  0.0091  0.8005 -0.4630
 5750TIP3    H138665   4.732   3.399  15.083 -1.5013  0.4470 -1.2668
 5750TIP3    H238666   4.699   3.269  15.012  0.1762 -0.8625  0.3083
 5751TIP3   OH238667   6.211   6.467   4.388 -0.3503  0.1308 -0.1873
 5751TIP3    H138668   6.191   6.481   4.481  0.3585  2.0656 -0.2877
 5751TIP3    H238669   6.126   6.464   4.345 -0.6325  1.7278  0.2212
 5752TIP3   OH238670   1.282   3.934  15.741 -0.0855  0.1602 -0.5228
 5752TIP3    H138671   1.257   3.861  15.684 -1.1253 -0.0069  0.1351
 5752TIP3    H238672   1.316   3.893  15.820 -0.9248  0.3788 -0.0400
 5753TIP3   OH238673   5.417   5.105   0.790  0.3555  0.1871  0.0095
 5753TIP3    H138674   5.396   5.089   0.698  0.7826 -0.7457  0.0669
 5753TIP3    H238675   5.375   5.033   0.837  0.7630  0.2452  0.4685
 5754TIP3   OH238676   0.056   3.367   2.244 -0.5110 -0.3222  0.3129
 5754TIP3    H138677   0.119   3.310   2.200 -0.2787 -0.4893  0.8647
 5754TIP3    H238678   0.092   3.455   2.234  0.4730 -0.5490  1.7486
 5755TIP3   OH238679   0.479   6.292   6.678  0.3399 -0.1946 -0.0624
 5755TIP3    H138680   0.484   6.258   6.589  0.0566 -1.3529  0.3631
 5755TIP3    H238681   0.385   6.293   6.699  0.4597 -0.6858  0.5127
 5756TIP3   OH238682   2.852   4.416  11.427  0.6948  0.5100  0.0634
 5756TIP3    H138683   2.911   4.419  11.352 -1.7297 -0.8096 -1.9788
 5756TIP3    H238684   2.903   4.375  11.497  2.0586 -0.9897 -1.7733
 5757TIP3   OH238685   1.122   3.737   6.369  0.8322 -0.0811  0.4626
 5757TIP3    H138686   1.088   3.794   6.438  2.3935 -0.3245  1.4589
 5757TIP3    H238687   1.107   3.648   6.401  2.1906 -0.1936  0.8458
 5758TIP3   OH238688   3.258   2.004  14.936 -0.3167 -0.4115 -0.1200
 5758TIP3    H138689   3.312   2.078  14.963 -0.8450 -0.4522  1.0966
 5758TIP3    H238690   3.177   2.014  14.986 -0.6203 -1.4968 -0.3757
 5759TIP3   OH238691   2.061   5.784   2.869 -0.3203 -0.1074 -0.0893
 5759TIP3    H138692   2.119   5.860   2.858  2.7697 -2.2521  1.0013
 5759TIP3    H238693   2.002   5.809   2.940  0.4970  1.3723  0.0898
 5760TIP3   OH238694   3.420   4.712  17.096 -0.3632 -0.0605 -0.3147
 5760TIP3    H138695   3.417   4.673  17.183 -2.5011  1.5736  0.4115
 5760TIP3    H238696   3.335   4.757  17.087  1.9348  4.4930 -0.9633
 5761TIP3   OH238697   2.554   3.749  16.606 -0.1637  0.1487  0.1537
 5761TIP3    H138698   2.632   3.758  16.660 -0.5712  0.4046  0.7091
 5761TIP3    H238699   2.519   3.837  16.600  0.7341  0.3842 -1.8358
 5762TIP3   OH238700   2.160   4.051  10.651 -0.3198  0.1514  0.0430
 5762TIP3    H138701   2.156   3.975  10.593 -0.9939 -0.9329  1.4605
 5762TIP3    H238702   2.205   4.019  10.729 -1.5859  0.8992  1.1007
 5763TIP3   OH238703   3.073   0.789  14.498 -0.1433 -0.7376  0.2999
 5763TIP3    H138704   3.158   0.747  14.492  0.0801 -0.1751 -0.5360
 5763TIP3    H238705   3.029   0.744  14.571  1.3557 -0.1350  1.5920
 5764TIP3   OH238706   6.046   1.763   1.599  0.1435 -0.3963  0.6598
 5764TIP3    H138707   6.097   1.682   1.594  1.7548  0.4375  2.7689
 5764TIP3    H238708   6.087   1.812   1.670 -1.8026  1.5907  0.4440
 5765TIP3   OH238709   6.477   2.273  15.594  0.3079 -0.0100 -0.3327
 5765TIP3    H138710   6.547   2.241  15.649  1.2817  0.0976 -1.4885
 5765TIP3    H238711   6.400   2.274  15.651  0.7698 -2.0971  0.3770
 5766TIP3   OH238712   3.476   3.199   1.862  0.2344  0.2877 -0.0525
 5766TIP3    H138713   3.423   3.169   1.936 -1.6235 -1.2037 -1.9312
 5766TIP3    H238714   3.477   3.294   1.870 -0.1642  0.1670  1.7291
 5767TIP3   OH238715   0.237   1.559  11.592 -0.2435  0.0323  0.4846
 5767TIP3    H138716   0.265   1.509  11.668 -0.0255  0.3618  0.6199
 5767TIP3    H238717   0.150   1.524  11.571  0.0546 -0.6405  0.3649
 5768TIP3   OH238718   0.219   0.746  10.872 -0.3514 -0.0692 -0.1250
 5768TIP3    H138719   0.161   0.822  10.868 -1.9119 -1.2349 -0.2594
 5768TIP3    H238720   0.278   0.757  10.798 -0.2128  1.2725  0.1609
 5769TIP3   OH238721   0.933   1.178  16.950  0.3703  0.5902  0.4988
 5769TIP3    H138722   0.963   1.157  16.862 -0.3839 -0.7660  0.5387
 5769TIP3    H238723   0.974   1.112  17.006  0.0666  0.8415  1.0251
 5770TIP3   OH238724   1.368   5.151   0.058 -0.2304 -0.3413  0.6282
 5770TIP3    H138725   1.278   5.118   0.057  0.0725 -1.1866  1.1662
 5770TIP3    H238726   1.421   5.076   0.086  0.5206  0.4452  1.3411
 5771TIP3   OH238727   1.388   4.903   1.422  0.0860  0.6436 -0.0459
 5771TIP3    H138728   1.393   4.880   1.515 -0.2995  0.5339 -0.0521
 5771TIP3    H238729   1.406   4.997   1.420  0.6332  0.5450  0.0854
 5772TIP3   OH238730   4.322   3.605  13.964 -0.4293  0.1504 -0.5622
 5772TIP3    H138731   4.260   3.544  13.923  0.9418 -2.3358  0.9707
 5772TIP3    H238732   4.403   3.556  13.972  1.4794  3.0260 -1.5553
 5773TIP3   OH238733   1.158   6.321   0.410 -0.4291 -0.4191  0.2367
 5773TIP3    H138734   1.159   6.363   0.324  0.1632  0.7419  0.7987
 5773TIP3    H238735   1.169   6.393   0.472 -3.3529 -0.9054  1.4077
 5774TIP3   OH238736   5.673   1.168   1.404  0.0424  0.5073  0.9270
 5774TIP3    H138737   5.765   1.142   1.393 -0.3198 -1.0304  1.5059
 5774TIP3    H238738   5.632   1.147   1.320  0.3790  1.9296  0.3926
 5775TIP3   OH238739   6.133   5.275  16.756  0.0265  0.1087  0.1010
 5775TIP3    H138740   6.108   5.360  16.719 -0.4438 -0.3019 -0.5250
 5775TIP3    H238741   6.199   5.297  16.821 -1.4644  1.1656  1.3256
 5776TIP3   OH238742   1.928   3.297  11.365 -0.3031  0.2372  0.4230
 5776TIP3    H138743   1.897   3.317  11.453  1.3132  1.1831  0.7985
 5776TIP3    H238744   1.984   3.371  11.342  1.2630 -1.1957 -0.4224
 5777TIP3   OH238745   6.395   2.041   4.071 -0.1234  0.2263  0.1606
 5777TIP3    H138746   6.444   1.970   4.030 -0.1638 -0.0476  0.5794
 5777TIP3    H238747   6.422   2.120   4.024  0.1063 -0.0340 -0.1432
 5778TIP3   OH238748   2.213   1.661   4.587  0.6960  0.0659 -1.0658
 5778TIP3    H138749   2.265   1.581   4.598  0.1147 -0.4518 -2.0146
 5778TIP3    H238750   2.125   1.630   4.566  0.1516  0.9543 -0.1330
 5779TIP3   OH238751   1.268   0.710   0.963 -0.2451  0.7082 -0.2379
 5779TIP3    H138752   1.300   0.716   1.053 -1.1549  0.3610  0.1166
 5779TIP3    H238753   1.285   0.619   0.938 -1.3363  0.4067  0.1018
 5780TIP3   OH238754   3.827   5.620  12.806  0.2626  0.0407 -0.2983
 5780TIP3    H138755   3.808   5.530  12.831 -0.9054 -0.0917 -1.5835
 5780TIP3    H238756   3.810   5.672  12.884  0.3634 -0.7850  0.2730
 5781TIP3   OH238757   4.392   3.762  17.145  0.5936  0.2740  0.4288
 5781TIP3    H138758   4.299   3.783  17.155  0.4645  0.4053 -1.0631
 5781TIP3    H238759   4.393   3.684  17.090  1.3561 -0.0780  0.9327
 5782TIP3   OH238760   3.294   6.682  13.929 -0.2428 -0.8546  0.3950
 5782TIP3    H138761   3.384   6.708  13.944 -0.8738  1.8042 -0.1585
 5782TIP3    H238762   3.283   6.683  13.834 -1.0326 -0.4424  0.4800
 5783TIP3   OH238763   6.356   6.413  11.057 -0.7940  0.9820  0.6571
 5783TIP3    H138764   6.368   6.354  11.132 -1.2368  0.8130  0.5945
 5783TIP3    H238765   6.443   6.451  11.043  0.0245 -1.3559 -0.7311
 5784TIP3   OH238766   1.921   4.773   4.715 -0.0940  0.8399  0.2236
 5784TIP3    H138767   1.825   4.775   4.709 -0.1096  2.9186  0.5900
 5784TIP3    H238768   1.951   4.806   4.630  0.2623  1.1707  0.4740
 5785TIP3   OH238769   2.948   5.051  12.392 -0.0992 -0.1987 -0.6646
 5785TIP3    H138770   2.982   4.971  12.434  0.8133  0.1843 -0.6545
 5785TIP3    H238771   3.015   5.075  12.329 -0.8271  0.0242 -1.3574
 5786TIP3   OH238772   0.555   4.541   3.207  0.2478 -0.0724  0.2392
 5786TIP3    H138773   0.468   4.529   3.244  0.1316  0.9553  0.3128
 5786TIP3    H238774   0.559   4.481   3.133 -1.6341  2.0082 -1.6228
 5787TIP3   OH238775   3.976   0.049  17.222 -0.0939  0.0343  0.4131
 5787TIP3    H138776   4.071   0.039  17.229  0.0905  0.9268 -0.6665
 5787TIP3    H238777   3.957   0.131  17.268 -0.0196  1.1141 -1.4160
 5788TIP3   OH238778   6.235   5.822  14.659 -0.1320 -0.1801  0.5876
 5788TIP3    H138779   6.276   5.839  14.574  1.5975 -0.7055  1.3019
 5788TIP3    H238780   6.297   5.856  14.723 -0.1893 -2.1724  1.7355
 5789TIP3   OH238781   6.550   1.303  11.760 -0.4225 -0.8263  0.1681
 5789TIP3    H138782   6.574   1.334  11.673 -1.4787 -1.1919 -0.2642
 5789TIP3    H238783   6.492   1.372  11.794 -0.6396 -1.0588  0.2659
 5790TIP3   OH238784   3.583   6.746  16.410 -0.3685 -0.1595  0.0457
 5790TIP3    H138785   3.545   6.798  16.481  2.2657  1.3066  0.4576
 5790TIP3    H238786   3.658   6.703  16.450 -1.3350 -2.7546 -0.8184
 5791TIP3   OH238787   0.862   5.559  11.692  0.6176 -0.1376  0.1256
 5791TIP3    H138788   0.793   5.522  11.747  0.0035  0.1434 -0.4497
 5791TIP3    H238789   0.894   5.634  11.741 -0.0940  0.2557 -0.0019
 5792TIP3   OH238790   6.433   4.114   1.906 -0.0114 -0.3105 -0.3998
 5792TIP3    H138791   6.453   4.175   1.835  1.0065 -0.1031  0.0610
 5792TIP3    H238792   6.341   4.090   1.892  0.4821 -1.0528 -2.3682
 5793TIP3   OH238793   1.667   2.754  12.360 -0.2025  0.1582  0.0498
 5793TIP3    H138794   1.732   2.764  12.290 -2.0650  0.3417 -1.7176
 5793TIP3    H238795   1.687   2.824  12.422  0.6487  0.8406 -0.9773
 5794TIP3   OH238796   1.707   5.172   1.991  0.3683  0.1711  0.2450
 5794TIP3    H138797   1.635   5.170   2.054 -0.0050 -1.4421 -0.1994
 5794TIP3    H238798   1.677   5.228   1.920  1.5922  3.7299  2.3898
 5795TIP3   OH238799   4.273   1.214   2.553 -0.1722 -0.3187  0.0579
 5795TIP3    H138800   4.269   1.271   2.630 -1.1799 -0.5863  0.2095
 5795TIP3    H238801   4.250   1.271   2.480  1.2729  0.0541 -0.1195
 5796TIP3   OH238802   2.662   5.816  12.059 -0.3198 -0.6620  0.4284
 5796TIP3    H138803   2.618   5.801  12.143  0.5426  0.4288  1.0838
 5796TIP3    H238804   2.748   5.775  12.068  0.5299  1.1520  0.8035
 5797TIP3   OH238805   0.494   3.561  12.768  0.5544 -0.1319  0.3516
 5797TIP3    H138806   0.478   3.472  12.735  1.7096  0.5185 -2.0665
 5797TIP3    H238807   0.425   3.614  12.729  0.1008  0.1246  1.4796
 5798TIP3   OH238808   2.165   3.754   6.550 -0.2076  0.0453 -0.5350
 5798TIP3    H138809   2.206   3.840   6.561 -2.3435  0.9883  0.3954
 5798TIP3    H238810   2.084   3.772   6.502 -1.5891 -1.1895  1.2666
 5799TIP3   OH238811   0.600   2.577  12.705 -0.6418  0.9059  0.0529
 5799TIP3    H138812   0.531   2.584  12.639 -0.8015 -3.1072 -0.3248
 5799TIP3    H238813   0.553   2.568  12.788 -0.6546 -1.7780 -0.1984
 5800TIP3   OH238814   4.149   2.892   3.854 -0.6301  0.3696  0.0648
 5800TIP3    H138815   4.169   2.985   3.865  1.3872 -0.2341  1.8966
 5800TIP3    H238816   4.187   2.850   3.932 -3.1771 -1.7648  0.2102
 5801TIP3   OH238817   5.460   6.159  11.712  0.1205 -0.4394  0.2632
 5801TIP3    H138818   5.385   6.143  11.769 -0.5161  0.1230 -0.3996
 5801TIP3    H238819   5.512   6.080  11.718 -0.6010 -0.8900  0.6321
 5802TIP3   OH238820   6.645   1.597   1.787  0.1603 -0.1957  0.2392
 5802TIP3    H138821   6.686   1.630   1.868  2.6366 -0.0400 -1.0321
 5802TIP3    H238822   6.638   1.674   1.730 -0.7520 -0.4822 -0.0433
 5803TIP3   OH238823   4.098   5.132   3.101  0.2361  0.0470  0.6361
 5803TIP3    H138824   4.024   5.104   3.047  0.5986 -0.1368  0.2283
 5803TIP3    H238825   4.112   5.061   3.163 -0.9308  0.7730  1.7514
 5804TIP3   OH238826   6.418   6.227   0.064 -0.6276  0.1050 -0.2337
 5804TIP3    H138827   6.377   6.289   0.003 -0.7676 -0.0169 -0.2630
 5804TIP3    H238828   6.432   6.279   0.144  1.9461  0.9842 -1.2240
 5805TIP3   OH238829   6.541   5.650  15.828 -0.2707 -0.2886  0.0078
 5805TIP3    H138830   6.507   5.670  15.915  1.3881 -0.2834  0.6661
 5805TIP3    H238831   6.474   5.682  15.768 -1.4901 -0.4259  1.2813
 5806TIP3   OH238832   1.482   1.784   2.112  0.6464 -0.7214 -0.0798
 5806TIP3    H138833   1.438   1.837   2.046 -0.2584  0.9838  1.8505
 5806TIP3    H238834   1.544   1.843   2.153  0.5166 -1.4876  1.2505
 5807TIP3   OH238835   2.348   6.385   5.668  0.2963  0.5468  0.3410
 5807TIP3    H138836   2.268   6.333   5.680 -0.1985  1.3279  0.4164
 5807TIP3    H238837   2.318   6.474   5.654  1.1475  0.7981  0.0600
 5808TIP3   OH238838   1.378   5.675  14.101  0.1363 -0.0830 -1.0333
 5808TIP3    H138839   1.402   5.704  14.013 -0.8222  3.0935 -0.3106
 5808TIP3    H238840   1.385   5.754  14.155 -1.5351 -1.4464  1.2680
 5809TIP3   OH238841   5.036   2.691   6.243 -0.6569  0.4726 -0.0641
 5809TIP3    H138842   5.124   2.657   6.259 -0.6284  0.2405 -0.7198
 5809TIP3    H238843   4.983   2.653   6.314 -0.5826 -0.7969 -0.6703
 5810TIP3   OH238844   3.982   6.446  16.681 -0.3157 -0.1345  0.5161
 5810TIP3    H138845   3.999   6.422  16.590 -0.5447  2.0327 -0.1146
 5810TIP3    H238846   3.897   6.407  16.701 -1.0238  0.7586 -0.7239
 5811TIP3   OH238847   0.143   0.217   4.308 -0.1191 -0.6907 -0.4845
 5811TIP3    H138848   0.163   0.279   4.238 -0.0944  0.6372  0.6790
 5811TIP3    H238849   0.224   0.211   4.359 -0.9150  0.3984  0.9608
 5812TIP3   OH238850   4.782   0.028  17.180 -0.1091  0.1036 -0.5162
 5812TIP3    H138851   4.764  -0.054  17.135  0.2859  0.0481 -0.5748
 5812TIP3    H238852   4.750   0.015  17.269  1.0311 -0.5333 -0.1902
 5813TIP3   OH238853   6.335   6.163   1.445 -0.0094 -0.1113 -0.2227
 5813TIP3    H138854   6.366   6.242   1.401 -1.0933  0.0023 -0.7844
 5813TIP3    H238855   6.321   6.191   1.536 -0.0984  0.2566 -0.3489
 5814TIP3   OH238856   5.431   4.475   0.546 -0.0010  0.4929 -0.1438
 5814TIP3    H138857   5.481   4.549   0.580 -0.2924  1.1353 -1.0958
 5814TIP3    H238858   5.495   4.421   0.502  0.3574 -0.2751  1.2807
 5815TIP3   OH238859   5.044   5.569   3.876  0.3055 -0.1752 -0.4497
 5815TIP3    H138860   5.024   5.631   3.807 -0.1799 -0.8336 -0.9083
 5815TIP3    H238861   4.959   5.547   3.915  0.8135  2.2203  2.1421
 5816TIP3   OH238862   2.646   3.876  15.563  0.7369 -0.3427 -0.6308
 5816TIP3    H138863   2.733   3.873  15.602  0.1423 -1.0618  0.6762
 5816TIP3    H238864   2.594   3.815  15.615 -0.5209 -0.0082 -1.4648
 5817TIP3   OH238865   5.974   3.280  12.932  0.0442 -0.0511 -0.1119
 5817TIP3    H138866   6.042   3.317  12.988 -0.7997 -0.6648  1.3597
 5817TIP3    H238867   5.937   3.355  12.886  0.4849  0.5306  0.4726
 5818TIP3   OH238868   0.519   1.481  11.733 -0.4049  0.3397  0.1898
 5818TIP3    H138869   0.551   1.454  11.647  1.5700 -2.2955  1.6905
 5818TIP3    H238870   0.427   1.453  11.734 -0.3543  0.1079 -0.9360
 5819TIP3   OH238871   4.995   0.322  10.830 -0.0869  0.0111 -0.1218
 5819TIP3    H138872   4.938   0.317  10.754  0.0576  0.8465 -0.2852
 5819TIP3    H238873   4.950   0.269  10.897 -1.1674  0.8380 -0.1763
 5820TIP3   OH238874   2.182   0.264  11.349  0.3347 -0.4594 -0.9929
 5820TIP3    H138875   2.157   0.354  11.370  0.4621 -0.5260 -0.5314
 5820TIP3    H238876   2.265   0.252  11.396 -0.0848 -1.0766 -0.4074
 5821TIP3   OH238877   1.114   2.592   4.747 -0.0216 -0.4823  0.1342
 5821TIP3    H138878   1.159   2.670   4.715 -0.1750 -0.7929 -0.8438
 5821TIP3    H238879   1.181   2.525   4.751 -0.3461 -0.8949 -1.1442
 5822TIP3   OH238880   6.163   6.594  11.112 -0.0603 -0.5893 -0.3626
 5822TIP3    H138881   6.230   6.526  11.110  0.5913  0.0485 -0.1042
 5822TIP3    H238882   6.201   6.665  11.163 -1.0295 -0.3253  0.0177
 5823TIP3   OH238883   3.630   0.629   0.904 -0.1647 -0.0761  0.1838
 5823TIP3    H138884   3.591   0.714   0.919  0.7471  0.3895 -0.0558
 5823TIP3    H238885   3.722   0.647   0.884  0.0083 -1.0959 -0.0049
 5824TIP3   OH238886   5.538   4.897   5.245  0.1016  0.1636  0.2191
 5824TIP3    H138887   5.541   4.870   5.337  0.4572 -0.8871 -0.0952
 5824TIP3    H238888   5.608   4.847   5.203  0.8240  1.6411 -0.3665
 5825TIP3   OH238889   1.924   0.527   5.030 -0.4559 -0.4540  0.0339
 5825TIP3    H138890   1.889   0.439   5.046 -0.6953 -0.5577 -0.9867
 5825TIP3    H238891   2.018   0.513   5.017 -0.5954 -0.6638 -0.8119
 5826TIP3   OH238892   5.542   6.245   2.522  0.1160  0.2260  0.3751
 5826TIP3    H138893   5.495   6.297   2.457 -1.1937  2.0994  2.7373
 5826TIP3    H238894   5.580   6.172   2.472 -1.2853  1.3150 -2.3642
 5827TIP3   OH238895   6.311   0.067   3.194 -0.1469  0.4733  0.0653
 5827TIP3    H138896   6.390   0.061   3.141 -0.0929 -0.6122  0.2553
 5827TIP3    H238897   6.334   0.026   3.278 -1.4705 -1.6758 -0.5727
 5828TIP3   OH238898   6.491   2.065  12.942  0.3606  0.4705 -0.1810
 5828TIP3    H138899   6.574   2.094  12.979  0.0496  0.8944  0.1953
 5828TIP3    H238900   6.464   2.136  12.884 -0.3679  0.9083  0.6879
 5829TIP3   OH238901   1.402   0.804   3.581  0.5028 -0.1456  0.0842
 5829TIP3    H138902   1.334   0.741   3.556  0.7325  0.1768 -1.3916
 5829TIP3    H238903   1.394   0.811   3.677 -0.4857 -1.3053  0.0984
 5830TIP3   OH238904   5.758   5.608  15.536  0.7345 -0.4191  0.0535
 5830TIP3    H138905   5.673   5.566  15.549  0.1438  0.2238 -1.5928
 5830TIP3    H238906   5.811   5.543  15.489  0.5387 -0.1406 -0.5566
 5831TIP3   OH238907   3.880   3.145  11.893  0.4114  0.3977 -0.5635
 5831TIP3    H138908   3.970   3.169  11.914  0.4089 -0.8631  0.9097
 5831TIP3    H238909   3.888   3.066  11.839  0.1071 -1.4581  2.0421
 5832TIP3   OH238910   3.216   5.077   1.943 -0.0201 -0.4937 -0.6916
 5832TIP3    H138911   3.172   5.002   1.982  1.7127 -0.7146  0.8608
 5832TIP3    H238912   3.144   5.131   1.909 -1.4647 -1.1805  1.1820
 5833TIP3   OH238913   5.419   2.454   3.028  0.1016  0.2979 -0.2655
 5833TIP3    H138914   5.334   2.486   2.997  0.1659 -0.8132 -1.6690
 5833TIP3    H238915   5.477   2.529   3.022 -0.6746  0.9470  0.2668
 5834TIP3   OH238916   1.498   6.609   6.111  0.5181  0.2240 -0.1985
 5834TIP3    H138917   1.505   6.525   6.156  0.1833 -0.3131 -1.1504
 5834TIP3    H238918   1.578   6.656   6.136  0.5637 -0.2532  0.5682
 5835TIP3   OH238919   3.188   3.343  16.172  0.0101 -0.1909  0.3210
 5835TIP3    H138920   3.216   3.389  16.092  0.6414 -1.1097  0.0119
 5835TIP3    H238921   3.255   3.276  16.186 -1.3856 -1.6345  0.2393
 5836TIP3   OH238922   3.126   1.535  12.075  0.4173 -0.1529  0.3576
 5836TIP3    H138923   3.193   1.478  12.038  1.5299  0.4357  1.3998
 5836TIP3    H238924   3.169   1.620  12.083 -1.0606  0.7097 -0.7119
 5837TIP3   OH238925   1.654   0.344   0.883 -0.2243  0.2406  0.2536
 5837TIP3    H138926   1.717   0.318   0.815  0.8193  0.1901  1.2291
 5837TIP3    H238927   1.605   0.264   0.903  0.2204 -0.0046  0.3574
 5838TIP3   OH238928   6.634   3.691  12.382  0.0720  0.2363  0.9468
 5838TIP3    H138929   6.580   3.765  12.410 -2.0842 -1.0857  0.4464
 5838TIP3    H238930   6.662   3.713  12.294 -2.2759 -0.3965  0.0021
 5839TIP3   OH238931   6.297   1.054   1.351 -0.3539  0.1819  0.1054
 5839TIP3    H138932   6.385   1.056   1.390  0.0755  0.4094 -0.8747
 5839TIP3    H238933   6.246   1.115   1.405  0.3897  0.9419 -0.0430
 5840TIP3   OH238934   5.970   1.477   0.574 -0.3697 -0.3065 -0.0993
 5840TIP3    H138935   6.019   1.520   0.504  0.4528 -0.3935  0.4172
 5840TIP3    H238936   6.029   1.479   0.649 -1.6788  0.8385  0.9356
 5841TIP3   OH238937   6.629   4.591  11.070 -0.0223 -0.2272  0.2286
 5841TIP3    H138938   6.574   4.658  11.030  1.7890  0.7380 -0.7029
 5841TIP3    H238939   6.697   4.573  11.005  2.3984  0.6477  2.4235
 5842TIP3   OH238940   2.890   6.133   3.462  0.1993 -0.2901 -0.0063
 5842TIP3    H138941   2.894   6.212   3.515  3.1873 -1.9118  2.3529
 5842TIP3    H238942   2.849   6.068   3.520 -0.5037 -0.9886 -1.2594
 5843TIP3   OH238943   2.971   6.393  14.139  0.4427  0.0510  0.3759
 5843TIP3    H138944   2.915   6.399  14.062  1.2424  1.2573 -0.1263
 5843TIP3    H238945   2.938   6.317  14.187 -3.0492  1.9800  1.2317
 5844TIP3   OH238946   2.405   6.443  15.768 -0.0038 -0.1447  0.0246
 5844TIP3    H138947   2.342   6.390  15.816 -0.6110  0.3911 -0.1616
 5844TIP3    H238948   2.383   6.533  15.792  0.7689  0.0378  0.0456
 5845TIP3   OH238949   2.012   6.302  14.728  0.7621  0.4200  0.0931
 5845TIP3    H138950   2.022   6.257  14.812 -1.1313 -1.3416 -0.5644
 5845TIP3    H238951   1.930   6.351  14.738  0.7746  0.5695 -0.5510
 5846TIP3   OH238952   4.593   1.007  15.911  0.6137  0.0839  0.6999
 5846TIP3    H138953   4.630   1.001  15.823 -0.3968  1.6256  0.1472
 5846TIP3    H238954   4.657   1.058  15.960  0.0131  1.3546  0.1817
 5847TIP3   OH238955   2.454   0.714   4.645  0.0464  0.1898  0.1812
 5847TIP3    H138956   2.370   0.669   4.657  0.0788  0.0015 -0.2740
 5847TIP3    H238957   2.506   0.688   4.721 -1.0556  2.0458  1.5989
 5848TIP3   OH238958   0.670   6.216  16.853 -0.1664  0.1704 -0.0243
 5848TIP3    H138959   0.654   6.130  16.813  1.7949  0.5748 -1.7637
 5848TIP3    H238960   0.587   6.262  16.845 -1.1776 -1.4641  0.7080
 5849TIP3   OH238961   4.463   3.905  13.194  0.2545  0.1127  0.5330
 5849TIP3    H138962   4.474   3.823  13.243  0.1959 -1.0098 -1.2909
 5849TIP3    H238963   4.417   3.879  13.115  0.0283  1.9703  0.0484
 5850TIP3   OH238964   5.735   0.829  12.945 -0.2306 -0.1378  0.4537
 5850TIP3    H138965   5.813   0.858  12.993  0.4709 -3.5153  1.4867
 5850TIP3    H238966   5.694   0.765  13.003 -1.6689 -1.2129 -1.7101
 5851TIP3   OH238967   2.552   5.196  11.436  1.4906 -0.5641  0.1263
 5851TIP3    H138968   2.641   5.232  11.439  0.6278  1.7391 -0.3134
 5851TIP3    H238969   2.507   5.249  11.371 -0.5170 -0.9430  1.1516
 5852TIP3   OH238970   5.116   5.779   5.758  0.6275  0.5187 -0.4994
 5852TIP3    H138971   5.086   5.697   5.720 -0.2196  0.7801 -0.3973
 5852TIP3    H238972   5.143   5.756   5.847 -0.7508  0.5717 -0.0582
 5853TIP3   OH238973   4.682   3.967  12.548  0.0968 -0.4279  0.5744
 5853TIP3    H138974   4.693   4.061  12.538  1.6387 -0.6051  0.4338
 5853TIP3    H238975   4.760   3.929  12.507  0.2143 -1.6933  1.9180
 5854TIP3   OH238976   5.191   0.311   2.233 -0.3461  0.3131 -0.3970
 5854TIP3    H138977   5.112   0.271   2.197 -0.4148  1.0827 -1.1207
 5854TIP3    H238978   5.158   0.371   2.300 -0.3335  0.1319 -0.2295
 5855TIP3   OH238979   0.858   2.356  11.376 -0.6786 -0.3497 -0.2975
 5855TIP3    H138980   0.816   2.429  11.421 -0.2117  0.3157 -0.9344
 5855TIP3    H238981   0.789   2.289  11.369 -0.5449 -0.7806  2.0823
 5856TIP3   OH238982   1.020   6.160   3.211  0.1039 -0.0270 -0.3926
 5856TIP3    H138983   0.941   6.152   3.264  0.9607 -3.8778  0.4180
 5856TIP3    H238984   1.086   6.197   3.270 -0.2628  0.3689 -0.2292
 5857TIP3   OH238985   4.095   1.945  16.776 -0.8371  0.1592  0.1198
 5857TIP3    H138986   4.183   1.931  16.811 -0.5935  0.5866 -0.3054
 5857TIP3    H238987   4.091   2.039  16.757 -1.7821  0.3382  1.1839
 5858TIP3   OH238988   1.636   4.256  13.935  0.4673 -0.7450  0.4155
 5858TIP3    H138989   1.730   4.251  13.948  0.4325 -0.6865  0.6985
 5858TIP3    H238990   1.599   4.222  14.017  0.2377  0.6201  0.8908
 5859TIP3   OH238991   6.508   2.274  12.749 -0.3645  0.2187  0.6120
 5859TIP3    H138992   6.473   2.364  12.752  0.6155  0.6057  0.4256
 5859TIP3    H238993   6.594   2.283  12.710 -0.8465 -0.9961 -0.7630
 5860TIP3   OH238994   4.219   1.885   0.038  0.0771  1.1363 -0.4150
 5860TIP3    H138995   4.128   1.913   0.026 -0.6793 -0.0425  2.2866
 5860TIP3    H238996   4.216   1.790   0.026  0.9570  1.0881 -0.2823
 5861TIP3   OH238997   3.632   1.881  14.186  0.6988  0.1525  0.0551
 5861TIP3    H138998   3.563   1.936  14.222  0.5727  1.3520 -1.9400
 5861TIP3    H238999   3.693   1.868  14.258 -0.2224  1.3716  1.0621
 5862TIP3   OH239000   5.413   6.260  17.022  0.2537  0.5132  0.2779
 5862TIP3    H139001   5.494   6.310  17.030  0.6041 -0.2252  1.3321
 5862TIP3    H239002   5.417   6.195  17.091  0.1562 -1.5195 -1.5725
 5863TIP3   OH239003   1.000   3.788  12.785 -0.0079  0.1314  0.3979
 5863TIP3    H139004   1.014   3.800  12.691 -1.7252  1.9715  0.3546
 5863TIP3    H239005   0.956   3.703  12.791  1.6821 -0.8392 -0.2724
 5864TIP3   OH239006   0.173   1.120  15.358  0.4558 -0.3959 -0.1166
 5864TIP3    H139007   0.102   1.063  15.388 -0.0939  0.8456  1.0162
 5864TIP3    H239008   0.159   1.128  15.264  1.7943 -3.8173 -0.6866
 5865TIP3   OH239009   4.339   5.387  11.059 -0.5770 -0.0474 -0.6540
 5865TIP3    H139010   4.366   5.424  10.975 -0.1730 -0.1429 -0.5674
 5865TIP3    H239011   4.392   5.308  11.069 -0.5105  0.0483 -0.2369
 5866TIP3   OH239012   0.376   3.401   3.366 -0.3764  0.2064  0.1435
 5866TIP3    H139013   0.449   3.417   3.426 -0.1019 -1.9895  0.4410
 5866TIP3    H239014   0.307   3.460   3.396  0.4230  0.5197  1.3943
 5867TIP3   OH239015   2.080   6.745  11.748  0.4163 -0.3809 -0.3707
 5867TIP3    H139016   2.039   6.819  11.703 -2.0866 -1.2124  0.4829
 5867TIP3    H239017   2.105   6.780  11.834 -0.6955 -0.4879  0.0036
 5868TIP3   OH239018   2.108   0.838   2.441 -0.1244 -0.3952  0.2267
 5868TIP3    H139019   2.093   0.746   2.419  1.8253 -0.6129 -0.2831
 5868TIP3    H239020   2.126   0.838   2.535  1.1618 -0.6995 -0.0208
 5869TIP3   OH239021   4.280   2.039   6.482 -0.2885  0.6275  0.8698
 5869TIP3    H139022   4.292   1.990   6.400  0.2444  0.6750  0.9141
 5869TIP3    H239023   4.314   1.980   6.550  0.5312  1.1207  0.9037
 5870TIP3   OH239024   4.717   1.091  14.058  0.3450  0.4914 -0.3464
 5870TIP3    H139025   4.749   1.094  13.968 -1.0618 -1.2285 -0.9363
 5870TIP3    H239026   4.666   1.171  14.068  1.1277  1.0600 -0.8137
 5871TIP3   OH239027   4.196   3.254   0.606 -0.4536  0.2763  0.2108
 5871TIP3    H139028   4.195   3.256   0.701 -1.7853  0.6744  0.1944
 5871TIP3    H239029   4.236   3.170   0.584  1.4409  0.9156  1.1004
 5872TIP3   OH239030   4.286   1.619   5.488  0.4662 -0.5284  0.4479
 5872TIP3    H139031   4.340   1.592   5.562  0.7324 -3.1489 -0.6273
 5872TIP3    H239032   4.345   1.668   5.431  1.3917 -2.1497 -0.0340
 5873TIP3   OH239033   0.020   5.420   4.190 -0.1374  0.6286  0.5399
 5873TIP3    H139034   0.106   5.428   4.231  0.0942  1.6749 -0.1090
 5873TIP3    H239035   0.038   5.403   4.098 -0.6313  0.2318  0.5125
 5874TIP3   OH239036   0.628   4.260   4.721  0.1940  0.2619  1.0697
 5874TIP3    H139037   0.636   4.169   4.690  1.8123  1.1891 -1.4185
 5874TIP3    H239038   0.538   4.285   4.698  0.3296 -0.1343  0.0708
 5875TIP3   OH239039   6.674   1.109   3.766  0.6688 -0.6410 -0.2124
 5875TIP3    H139040   6.598   1.136   3.714  0.3487  0.1079  0.6402
 5875TIP3    H239041   6.721   1.048   3.709  0.2750  0.1055 -1.3531
 5876TIP3   OH239042   3.405   2.822   3.825  0.3257 -0.3092 -0.8536
 5876TIP3    H139043   3.435   2.858   3.742 -0.9185  1.4517 -0.5883
 5876TIP3    H239044   3.475   2.843   3.887 -0.6807  2.4255 -0.5494
 5877TIP3   OH239045   4.764   1.722   4.055 -0.4010  0.2410 -0.4351
 5877TIP3    H139046   4.780   1.628   4.066 -1.1085  0.3550  1.8205
 5877TIP3    H239047   4.694   1.728   3.991  0.2569 -0.7256 -1.2561
 5878TIP3   OH239048   0.664   1.775   4.996 -0.1081  0.4500  0.2342
 5878TIP3    H139049   0.706   1.693   5.023  0.3420 -0.2020 -2.3028
 5878TIP3    H239050   0.635   1.759   4.906  1.5700  3.6535 -0.9570
 5879TIP3   OH239051   1.069   5.475   4.487  0.1134  0.0900  0.6027
 5879TIP3    H139052   1.095   5.395   4.441 -0.3828  0.8030 -0.9583
 5879TIP3    H239053   1.095   5.460   4.578 -0.4834 -2.0684  0.4377
 5880TIP3   OH239054   2.047   6.416  16.069 -0.1156  0.0041  0.1679
 5880TIP3    H139055   2.089   6.375  15.993  1.0522  0.1859  0.7168
 5880TIP3    H239056   1.955   6.423  16.043 -0.0271 -1.4152 -0.5978
 5881TIP3   OH239057   3.958   1.311  13.523 -0.0148 -0.7627 -0.1449
 5881TIP3    H139058   3.999   1.390  13.486 -1.9342 -0.5173 -1.8067
 5881TIP3    H239059   3.942   1.255  13.447 -0.7774 -1.7814  0.7665
 5882TIP3   OH239060   2.064   4.253   1.451  0.5147 -0.3777  0.4424
 5882TIP3    H139061   2.129   4.296   1.395  0.7060 -0.3929  0.6525
 5882TIP3    H239062   2.005   4.209   1.390  1.5869 -1.6310  0.2968
 5883TIP3   OH239063   3.578   0.210  15.091 -0.3065 -0.7124 -0.1489
 5883TIP3    H139064   3.630   0.151  15.145 -0.6139 -0.4973  0.3830
 5883TIP3    H239065   3.556   0.158  15.014  2.8400 -0.0158 -1.6150
 5884TIP3   OH239066   5.182   6.237  12.478 -0.2814 -0.2716  0.1143
 5884TIP3    H139067   5.122   6.310  12.465 -0.5467 -0.1859  1.7154
 5884TIP3    H239068   5.264   6.278  12.508  0.0330 -0.5265 -0.3773
 5885TIP3   OH239069   3.278   5.866  14.421  0.8891 -0.3009  0.2225
 5885TIP3    H139070   3.232   5.796  14.374  0.9266 -0.2168  0.0602
 5885TIP3    H239071   3.370   5.852  14.402  1.1234 -1.7020  2.2177
 5886TIP3   OH239072   5.828   1.966   2.234 -0.2403  0.3169 -0.2178
 5886TIP3    H139073   5.795   2.001   2.152 -1.4569  2.4624  1.1262
 5886TIP3    H239074   5.750   1.950   2.286  0.5312 -0.6094  0.6750
 5887TIP3   OH239075   5.054   5.046   2.652  0.1385  0.0770  0.3769
 5887TIP3    H139076   5.012   5.063   2.567 -1.5817 -0.6729  1.0575
 5887TIP3    H239077   5.125   5.111   2.656 -0.7754  1.2171 -0.9148
 5888TIP3   OH239078   4.874   3.221   5.313 -0.0743 -0.0629  0.2438
 5888TIP3    H139079   4.875   3.187   5.224  0.2418 -1.1275  0.6457
 5888TIP3    H239080   4.955   3.189   5.352  0.8429  2.1878  0.2668
 5889TIP3   OH239081   3.752   0.647   2.005 -0.2922 -0.1514 -0.8531
 5889TIP3    H139082   3.811   0.678   2.074 -1.6332  1.1040 -0.2341
 5889TIP3    H239083   3.810   0.611   1.938  1.1077 -0.0510  0.2735
 5890TIP3   OH239084   4.843   4.910  11.078  0.4179  0.2133  0.3391
 5890TIP3    H139085   4.808   4.968  11.146 -0.2648 -0.1178  0.2675
 5890TIP3    H239086   4.806   4.824  11.098 -0.0096  0.1696 -0.6054
 5891TIP3   OH239087   3.051   0.449   4.162 -0.5271 -0.1645  0.2184
 5891TIP3    H139088   3.085   0.499   4.236 -1.9668 -0.1979  0.9332
 5891TIP3    H239089   3.018   0.515   4.102  0.3564 -0.1479 -0.2434
 5892TIP3   OH239090   6.433   1.908  14.058  0.3866  0.5644  0.1770
 5892TIP3    H139091   6.491   1.893  13.984 -0.9822 -1.0176 -0.6113
 5892TIP3    H239092   6.467   1.850  14.127  1.0182  1.2448  0.4452
 5893TIP3   OH239093   2.085   0.919   4.590 -0.2378 -0.0266 -0.2173
 5893TIP3    H139094   2.009   0.971   4.616  0.2177  1.1030 -1.1095
 5893TIP3    H239095   2.149   0.984   4.562  0.7070 -1.0307 -0.3719
 5894TIP3   OH239096   4.488   5.523  12.797  0.5777  0.6052  0.0916
 5894TIP3    H139097   4.536   5.525  12.880 -0.6979  1.5657  0.8239
 5894TIP3    H239098   4.396   5.513  12.823  0.2560 -0.0119 -1.2451
 5895TIP3   OH239099   3.194   2.946   1.410  0.0002 -0.5257 -0.1362
 5895TIP3    H139100   3.155   3.016   1.357 -0.1836 -0.7105 -0.2473
 5895TIP3    H239101   3.225   2.990   1.489 -0.5695 -0.3989  0.0192
 5896TIP3   OH239102   1.248   6.731   1.542 -0.0176  0.5846 -0.1057
 5896TIP3    H139103   1.177   6.702   1.600 -1.2023  0.1250 -1.7525
 5896TIP3    H239104   1.320   6.672   1.562 -0.6438 -0.0211  0.4140
 5897TIP3   OH239105   0.796   4.652   3.875  0.4337  0.3532  0.5916
 5897TIP3    H139106   0.769   4.561   3.858  0.9022  0.4641 -0.8399
 5897TIP3    H239107   0.826   4.652   3.966  2.1147 -1.3517  0.0811
 5898TIP3   OH239108   2.022   4.459  13.256  0.0280  0.2970 -0.0665
 5898TIP3    H139109   2.024   4.554  13.249 -0.0695  0.1410 -2.8557
 5898TIP3    H239110   2.087   4.429  13.192 -2.2515 -1.5806 -1.5579
 5899TIP3   OH239111   4.601   1.677  15.370  0.0183  0.6252 -0.2918
 5899TIP3    H139112   4.556   1.721  15.442  1.0375  1.8970 -0.4003
 5899TIP3    H239113   4.693   1.674  15.398  0.1088 -0.5899 -0.7117
 5900TIP3   OH239114   6.422   1.960   4.334  0.1076 -0.2763  0.1497
 5900TIP3    H139115   6.338   1.995   4.364  0.0403  1.0059 -1.4582
 5900TIP3    H239116   6.432   1.995   4.245  2.1933 -0.6747  0.2010
 5901TIP3   OH239117   0.909   3.320   5.622 -0.4805 -0.1522 -0.2634
 5901TIP3    H139118   0.943   3.393   5.570 -0.7091  0.4140  0.3725
 5901TIP3    H239119   0.967   3.247   5.602  0.9222  0.7081  0.5580
 5902TIP3   OH239120   6.074   5.112   5.233 -0.8522 -0.1683 -0.9451
 5902TIP3    H139121   5.997   5.167   5.252  0.0123  1.1304 -1.1100
 5902TIP3    H239122   6.115   5.154   5.158  1.1001  0.2944  0.3426
 5903TIP3   OH239123   2.768   6.657  13.153 -0.1543  0.6735  0.0861
 5903TIP3    H139124   2.804   6.634  13.238 -1.0155 -3.1243 -0.5153
 5903TIP3    H239125   2.677   6.682  13.171 -0.2928  0.0190  0.2830
 5904TIP3   OH239126   4.842   6.210   1.825 -0.4179 -0.5065 -0.2845
 5904TIP3    H139127   4.818   6.300   1.803 -0.6140 -0.4556  0.1390
 5904TIP3    H239128   4.765   6.174   1.868 -0.8014 -1.2909 -1.5979
 5905TIP3   OH239129   5.428   2.903   5.290 -0.1037  0.5514 -0.3070
 5905TIP3    H139130   5.481   2.828   5.316 -0.4622  0.6953  0.8436
 5905TIP3    H239131   5.428   2.900   5.194 -0.2795 -1.0320 -0.2616
 5906TIP3   OH239132   4.415   4.073  14.858 -0.0952 -0.4403 -0.2733
 5906TIP3    H139133   4.385   3.988  14.889  0.6266 -0.5300  0.1990
 5906TIP3    H239134   4.461   4.054  14.777 -0.0611 -0.4875 -0.2432
 5907TIP3   OH239135   1.293   3.961   2.196  0.5684 -0.7684  0.4792
 5907TIP3    H139136   1.263   3.908   2.123 -0.5802 -0.6561  0.8596
 5907TIP3    H239137   1.385   3.980   2.176  0.2247 -0.5978 -1.0138
 5908TIP3   OH239138   6.230   4.582   2.485 -0.3058 -0.6314 -0.1494
 5908TIP3    H139139   6.247   4.504   2.537  1.0362  1.1036  2.0728
 5908TIP3    H239140   6.169   4.634   2.538  0.0322  0.5564 -0.9008
 5909TIP3   OH239141   5.784   1.720  12.202 -0.6271 -0.5965  0.5582
 5909TIP3    H139142   5.796   1.655  12.271 -0.4358 -2.8300 -1.5273
 5909TIP3    H239143   5.818   1.801  12.240  1.9363 -2.3405  2.1674
 5910TIP3   OH239144   2.639   2.120   3.704 -0.6070  0.1898 -0.5648
 5910TIP3    H139145   2.665   2.135   3.795 -2.7707  2.3316 -0.2505
 5910TIP3    H239146   2.678   2.192   3.656 -1.8964  0.6979 -0.8563
 5911TIP3   OH239147   3.320   2.208   6.450  0.1056 -0.6690  0.4696
 5911TIP3    H139148   3.371   2.136   6.489  0.6940  0.6815  2.2385
 5911TIP3    H239149   3.384   2.257   6.399  0.4190  0.4614  1.9053
 5912TIP3   OH239150   2.192   0.500   3.000 -0.4637  0.3478  0.1587
 5912TIP3    H139151   2.133   0.543   3.062 -0.9968 -0.3518  0.1475
 5912TIP3    H239152   2.264   0.561   2.989 -0.1630  0.3052  1.7636
 5913TIP3   OH239153   5.157   1.802  10.829  0.0999 -0.0330  0.1192
 5913TIP3    H139154   5.141   1.815  10.736  0.1135 -2.3921 -0.2489
 5913TIP3    H239155   5.248   1.831  10.842 -0.5424  2.2244 -0.1544
 5914TIP3   OH239156   0.561   5.620   3.459 -0.1058 -0.6754 -0.3548
 5914TIP3    H139157   0.577   5.593   3.549 -2.3231 -1.3019 -0.1211
 5914TIP3    H239158   0.573   5.540   3.407 -0.3249 -0.6538 -0.4377
 5915TIP3   OH239159   2.284   4.072  15.307  0.2565 -0.5991  0.2737
 5915TIP3    H139160   2.281   4.081  15.212  1.5612  0.4133  0.3145
 5915TIP3    H239161   2.327   4.152  15.337 -0.3590 -0.8046  1.7334
 5916TIP3   OH239162   6.756   4.298   6.110 -0.1331 -0.4756  0.0747
 5916TIP3    H139163   6.727   4.346   6.032 -1.0570  2.6683  2.2318
 5916TIP3    H239164   6.844   4.331   6.127 -0.0007 -1.0213  0.4334
 5917TIP3   OH239165   5.420   6.534  12.670 -0.3717 -0.3198 -0.5360
 5917TIP3    H139166   5.398   6.469  12.603 -2.1607  1.8427 -2.1220
 5917TIP3    H239167   5.426   6.616  12.622  2.2938  0.6535  1.3610
 5918TIP3   OH239168   1.347   0.814  12.109  0.3628 -0.4605  0.5371
 5918TIP3    H139169   1.314   0.738  12.157 -0.1982  0.3030  1.3901
 5918TIP3    H239170   1.290   0.886  12.136  2.1720  0.7085  1.3441
 5919TIP3   OH239171   5.125   1.468   4.397  0.0286 -0.5884 -0.2961
 5919TIP3    H139172   5.102   1.540   4.456  0.0063 -1.5673  0.8879
 5919TIP3    H239173   5.195   1.504   4.343 -0.4048  0.5346 -0.1317
 5920TIP3   OH239174   4.256   2.687  16.781 -0.3358 -0.6416 -0.0659
 5920TIP3    H139175   4.351   2.686  16.768 -0.1404  1.5554  0.9838
 5920TIP3    H239176   4.221   2.643  16.704  1.5504 -1.7280 -0.3271
 5921TIP3   OH239177   2.740   6.440  12.747 -0.0979 -0.0881  0.0909
 5921TIP3    H139178   2.735   6.496  12.670 -2.3738 -0.8548 -0.3526
 5921TIP3    H239179   2.792   6.364  12.719 -0.5142 -0.1354 -0.5462
 5922TIP3   OH239180   1.116   2.719   2.381  0.4801  0.1031 -0.5353
 5922TIP3    H139181   1.163   2.801   2.396  1.3271 -0.3535 -0.6467
 5922TIP3    H239182   1.182   2.651   2.393 -0.1749 -0.5545 -0.6218
 5923TIP3   OH239183   3.726   2.677  15.518 -0.2515 -0.1244 -0.4655
 5923TIP3    H139184   3.807   2.712  15.480  0.0460  1.1269  1.2581
 5923TIP3    H239185   3.735   2.693  15.612 -1.4407 -2.1901  0.0222
 5924TIP3   OH239186   4.575   3.065   5.956 -0.4266  0.3666  0.2025
 5924TIP3    H139187   4.635   3.118   5.904 -0.8021 -0.9285 -1.5850
 5924TIP3    H239188   4.597   3.086   6.047  0.5729  2.2806 -0.4562
 5925TIP3   OH239189   2.152   0.806  15.055 -0.0211 -0.8444  0.4148
 5925TIP3    H139190   2.220   0.739  15.045  0.9461  0.4888 -2.3548
 5925TIP3    H239191   2.197   0.881  15.094  0.2883  0.2519 -1.9671
 5926TIP3   OH239192   2.433   3.976   6.318 -0.2281 -0.0779 -0.0120
 5926TIP3    H139193   2.512   4.030   6.320 -0.2843  0.0068 -0.1285
 5926TIP3    H239194   2.436   3.927   6.401 -0.9765  1.2446  0.8120
 5927TIP3   OH239195   4.224   3.372   1.108  0.3140 -0.1199  0.3253
 5927TIP3    H139196   4.279   3.449   1.126  0.1025 -0.1189  0.9658
 5927TIP3    H239197   4.135   3.401   1.127  0.1896 -0.3985  0.1660
 5928TIP3   OH239198   5.314   1.102   1.925 -0.1302 -0.5868  0.4643
 5928TIP3    H139199   5.284   1.011   1.923  1.9139 -1.3200  1.0999
 5928TIP3    H239200   5.314   1.129   1.833 -1.6804 -0.8970  0.3585
 5929TIP3   OH239201   1.520   4.162  15.286  0.5199 -0.4165  0.5569
 5929TIP3    H139202   1.555   4.207  15.209 -0.3320 -0.7549 -0.0349
 5929TIP3    H239203   1.587   4.098  15.309  1.7509  1.1602  1.4122
 5930TIP3   OH239204   0.581   0.947  14.054  0.1915  0.3140  0.3398
 5930TIP3    H139205   0.524   1.017  14.023  0.8019  0.3327 -0.7528
 5930TIP3    H239206   0.636   0.924  13.978  1.2625 -0.0785  1.2120
 5931TIP3   OH239207   5.286   5.006  12.439  0.2577  0.1238  0.2487
 5931TIP3    H139208   5.377   5.019  12.414  0.4411 -0.8003  0.4218
 5931TIP3    H239209   5.239   5.078  12.398  0.8984 -0.0517 -0.8009
 5932TIP3   OH239210   0.611   3.721   0.268  0.2697  0.3431  0.2765
 5932TIP3    H139211   0.537   3.684   0.221 -0.4734 -1.5586  2.7842
 5932TIP3    H239212   0.684   3.662   0.249  0.0939 -0.1408  1.0866
 5933TIP3   OH239213   1.561   3.055   2.193  0.4884 -0.1282 -0.2021
 5933TIP3    H139214   1.624   2.984   2.210  3.1481  1.6969 -2.1671
 5933TIP3    H239215   1.604   3.133   2.227 -1.0980  1.0446 -0.8572
 5934TIP3   OH239216   3.363   6.147  13.554 -0.3324  0.5072 -0.4733
 5934TIP3    H139217   3.339   6.084  13.622  2.2534 -1.8919 -1.7010
 5934TIP3    H239218   3.451   6.176  13.578 -0.3551  1.4664 -1.5058
 5935TIP3   OH239219   2.567   6.247  14.208  0.0602  0.2039 -0.2193
 5935TIP3    H139220   2.522   6.219  14.288  0.5934 -0.3527 -0.1132
 5935TIP3    H239221   2.630   6.313  14.238  0.4625 -0.2152 -0.1361
 5936TIP3   OH239222   5.105   5.300   0.808 -0.2571 -0.9771  0.1738
 5936TIP3    H139223   5.152   5.253   0.877  1.0610 -0.3625 -0.2835
 5936TIP3    H239224   5.174   5.337   0.753 -1.2878 -0.5886 -0.8835
 5937TIP3   OH239225   4.168   4.363   2.004  0.0799  0.0384  0.2399
 5937TIP3    H139226   4.121   4.358   2.087  0.3979  0.9783  0.4879
 5937TIP3    H239227   4.260   4.350   2.029 -0.0903 -2.7229 -0.3492
 5938TIP3   OH239228   5.194   0.999   3.743  0.5408  0.0750 -0.4235
 5938TIP3    H139229   5.110   1.036   3.770  0.9712  0.2474  0.7312
 5938TIP3    H239230   5.207   1.030   3.654 -0.8400 -0.3386 -0.7795
 5939TIP3   OH239231   0.673   0.229   1.136  0.0514  0.1830 -0.5406
 5939TIP3    H139232   0.585   0.212   1.168  0.0031 -0.8495 -1.2131
 5939TIP3    H239233   0.714   0.282   1.204 -0.9292  0.2515 -0.0082
 5940TIP3   OH239234   3.034   3.938  13.077  0.6499 -0.4397 -0.1637
 5940TIP3    H139235   2.953   3.987  13.065  0.2465 -1.2070 -0.6259
 5940TIP3    H239236   3.101   4.005  13.088  0.0872  0.2157 -0.6540
 5941TIP3   OH239237   5.507   4.433  11.120  0.4398 -0.1664 -0.6635
 5941TIP3    H139238   5.549   4.511  11.082  1.4495 -0.5821 -0.4183
 5941TIP3    H239239   5.487   4.458  11.210  0.2968 -0.0193 -0.7342
 5942TIP3   OH239240   3.372   5.092  11.612 -0.4303  0.0449  0.3821
 5942TIP3    H139241   3.318   5.014  11.601 -0.4925 -0.1623  2.1562
 5942TIP3    H239242   3.457   5.068  11.574  0.3129 -1.7315  3.0922
 5943TIP3   OH239243   4.075   1.120  13.248 -0.0181 -0.5667 -0.1953
 5943TIP3    H139244   4.164   1.155  13.242  0.4197 -1.4391  1.0373
 5943TIP3    H239245   4.019   1.191  13.218  1.0941 -0.0060 -0.9808
 5944TIP3   OH239246   5.126   3.442  13.202 -0.0783  0.3206  0.3291
 5944TIP3    H139247   5.099   3.501  13.131  2.1364  1.2848  0.2427
 5944TIP3    H239248   5.189   3.383  13.161  0.7924  0.5231  1.3746
 5945TIP3   OH239249   2.989   0.401  11.840  0.0453 -0.3064  0.0184
 5945TIP3    H139250   2.947   0.449  11.911 -0.2886  0.1137 -0.4581
 5945TIP3    H239251   2.953   0.312  11.846 -1.5251  0.2460 -0.8600
 5946TIP3   OH239252   5.384   4.099   1.895  0.0139  0.5953  0.4537
 5946TIP3    H139253   5.454   4.145   1.941 -1.5803  0.9261  2.6124
 5946TIP3    H239254   5.409   4.007   1.898  1.5792  0.9395 -1.0171
 5947TIP3   OH239255   1.814   5.783  14.861 -0.5507  0.6304 -0.3810
 5947TIP3    H139256   1.904   5.805  14.886 -0.1089  0.9258 -2.2000
 5947TIP3    H239257   1.760   5.840  14.917  0.3938  0.8602  0.3182
 5948TIP3   OH239258   5.781   0.917   0.620  0.0525 -0.5388  0.2482
 5948TIP3    H139259   5.765   0.945   0.530 -1.9122  1.8218  1.2571
 5948TIP3    H239260   5.875   0.926   0.632  0.6044 -2.6963 -2.1182
 5949TIP3   OH239261   2.161   1.100  15.513 -0.2240 -0.0433 -0.2548
 5949TIP3    H139262   2.077   1.072  15.550  0.7733 -0.6118  1.6757
 5949TIP3    H239263   2.182   1.181  15.560  0.8539 -0.5400  0.1404
 5950TIP3   OH239264   3.825   0.841   4.017  0.1044  0.1536 -0.3616
 5950TIP3    H139265   3.792   0.914   4.069  0.3219  0.4746 -0.6768
 5950TIP3    H239266   3.919   0.854   4.014  0.2218 -0.5264  0.1696
 5951TIP3   OH239267   3.548   6.230  12.532 -0.0609  0.1352 -0.0081
 5951TIP3    H139268   3.493   6.304  12.507  0.3008  0.5754  0.4881
 5951TIP3    H239269   3.487   6.161  12.557 -0.3937  0.3543 -0.2178
 5952TIP3   OH239270   4.103   6.628   2.147 -0.4644  0.1116  0.0430
 5952TIP3    H139271   4.153   6.553   2.180  0.6996  1.1437  0.6418
 5952TIP3    H239272   4.125   6.700   2.206 -1.0043  1.1182 -0.9589
 5953TIP3   OH239273   4.234   0.538  14.739 -0.5457 -0.4459  0.0765
 5953TIP3    H139274   4.193   0.518  14.655 -0.0534  0.6717 -0.4333
 5953TIP3    H239275   4.258   0.630  14.733  0.7288 -0.7083  0.9244
 5954TIP3   OH239276   1.920   6.317  13.139  0.3359 -0.4389 -0.0536
 5954TIP3    H139277   1.835   6.274  13.131  1.7882 -3.4818  0.0115
 5954TIP3    H239278   1.970   6.286  13.063  1.8308  0.2729  0.6118
 5955TIP3   OH239279   1.173   1.102  12.816 -0.0515  0.3643  0.5201
 5955TIP3    H139280   1.109   1.138  12.755  0.1751 -0.4382 -0.2148
 5955TIP3    H239281   1.133   1.021  12.849  0.1915  0.3377  0.7594
 5956TIP3   OH239282   0.096   6.156  12.575 -0.2219  0.0001  0.1865
 5956TIP3    H139283   0.004   6.135  12.591 -0.3072 -0.8771 -1.3059
 5956TIP3    H239284   0.145   6.095  12.631 -0.5079 -2.8519 -2.5243
 5957TIP3   OH239285   3.437   0.943  15.801 -0.1606 -0.4405 -0.1557
 5957TIP3    H139286   3.515   0.889  15.799  0.0874 -0.0829 -0.1547
 5957TIP3    H239287   3.384   0.911  15.728  0.9671  0.7854 -1.5228
 5958TIP3   OH239288   6.079   1.208   4.098 -0.3497  0.1664  0.5157
 5958TIP3    H139289   6.174   1.220   4.093 -0.4931  1.2755  0.4101
 5958TIP3    H239290   6.067   1.113   4.092  0.6161  0.1413 -1.4936
 5959TIP3   OH239291   5.584   5.133   0.102  0.2383 -0.5657 -0.2186
 5959TIP3    H139292   5.518   5.100   0.163 -1.4021  0.0940 -1.5675
 5959TIP3    H239293   5.615   5.056   0.055  0.0060 -0.8222  0.0491
 5960TIP3   OH239294   3.147   1.145   0.336 -0.0547 -0.1921 -0.4950
 5960TIP3    H139295   3.178   1.098   0.414 -0.0214  0.3213 -0.1935
 5960TIP3    H239296   3.064   1.104   0.315  0.6245 -1.2951 -1.0506
 5961TIP3   OH239297   0.977   6.624   3.246  0.4057 -0.4068  0.3981
 5961TIP3    H139298   0.934   6.595   3.166 -1.6851  1.2525  0.8923
 5961TIP3    H239299   0.958   6.556   3.310  0.3454 -0.7256  0.0428
 5962TIP3   OH239300   4.575   2.404   4.676 -0.6711 -0.5117  0.3582
 5962TIP3    H139301   4.519   2.477   4.701  1.7319  1.2790  0.6182
 5962TIP3    H239302   4.626   2.384   4.754 -0.8865 -2.0909  0.1126
 5963TIP3   OH239303   4.806   1.840   0.249 -0.0829  0.7236  0.1452
 5963TIP3    H139304   4.751   1.900   0.201  1.3311  3.2598  1.5748
 5963TIP3    H239305   4.769   1.838   0.337  1.4259  1.6394  0.8321
 5964TIP3   OH239306   3.732   2.642  16.083  0.6658 -0.2682 -0.3700
 5964TIP3    H139307   3.822   2.649  16.115  1.3545 -3.2247 -1.4810
 5964TIP3    H239308   3.718   2.548  16.072 -2.1040  0.2284 -1.5118
 5965TIP3   OH239309   0.278   3.168   3.565 -0.4923 -0.4361  0.0825
 5965TIP3    H139310   0.355   3.219   3.541  0.1168 -1.9508 -1.2542
 5965TIP3    H239311   0.222   3.230   3.611  0.9736  0.9997 -0.0060
 5966TIP3   OH239312   2.175   6.314  15.872  0.3978  0.8232  0.1294
 5966TIP3    H139313   2.127   6.234  15.892 -0.8114  1.5388  0.1133
 5966TIP3    H239314   2.125   6.355  15.802 -0.2084  2.6690  1.5962
 5967TIP3   OH239315   1.428   6.223  14.989 -0.2536 -0.0160  0.0886
 5967TIP3    H139316   1.480   6.291  15.033  0.8550 -1.3969  0.9556
 5967TIP3    H239317   1.441   6.145  15.043 -1.2843 -0.9874 -1.0617
 5968TIP3   OH239318   3.945   5.407   5.777 -0.1011 -0.0078 -0.6306
 5968TIP3    H139319   3.889   5.475   5.739  0.0709  0.4148 -0.1299
 5968TIP3    H239320   3.976   5.357   5.701  0.6889  1.1732 -1.1179
 5969TIP3   OH239321   3.460   5.271  12.963  0.0503  0.3703  0.2773
 5969TIP3    H139322   3.377   5.311  12.938 -0.2342 -0.3289  0.0703
 5969TIP3    H239323   3.492   5.230  12.882  0.1749 -0.0929  0.5578
 5970TIP3   OH239324   5.677   4.524   5.285 -0.8288  0.0988 -0.1495
 5970TIP3    H139325   5.685   4.595   5.221  1.7434 -0.4876 -0.5303
 5970TIP3    H239326   5.653   4.569   5.366  0.3942  1.3985 -0.4770
 5971TIP3   OH239327   3.625   3.897  15.602 -0.0033 -0.0194 -0.1493
 5971TIP3    H139328   3.620   3.966  15.667 -0.6161 -0.3078  0.1124
 5971TIP3    H239329   3.647   3.818  15.652 -1.8639 -0.5255 -0.0805
 5972TIP3   OH239330   6.256   3.338  13.714 -0.6254 -0.3932  0.2332
 5972TIP3    H139331   6.169   3.334  13.755 -0.3379 -1.6801  0.7473
 5972TIP3    H239332   6.290   3.424  13.737 -1.1333 -0.4802  1.3246
 5973TIP3   OH239333   4.776   0.110  12.618  0.0968 -0.2370  0.3832
 5973TIP3    H139334   4.796   0.064  12.700 -1.3192  0.5671  1.2124
 5973TIP3    H239335   4.820   0.194  12.627 -0.8788  0.2419  0.7705
 5974TIP3   OH239336   0.001   0.393  12.951 -0.1157 -0.0115  0.6336
 5974TIP3    H139337   0.041   0.467  12.906  1.3988  1.0530  3.5837
 5974TIP3    H239338   0.036   0.316  12.906 -1.1743  1.0002 -2.0299
 5975TIP3   OH239339   6.049   3.642   0.719 -0.0328  0.2758 -0.0783
 5975TIP3    H139340   6.116   3.580   0.689  1.6215  2.0210 -0.1284
 5975TIP3    H239341   6.052   3.635   0.815  0.3255  0.4484 -0.0747
 5976TIP3   OH239342   3.148   4.297   4.726  0.0721  0.4568 -0.5824
 5976TIP3    H139343   3.209   4.359   4.767  1.0049 -0.4248 -0.6241
 5976TIP3    H239344   3.065   4.344   4.723  0.6329  1.5001 -0.0864
 5977TIP3   OH239345   3.514   2.920  16.916 -0.2239  0.0072  0.4331
 5977TIP3    H139346   3.424   2.953  16.906  0.9680  2.3856 -3.4618
 5977TIP3    H239347   3.555   2.982  16.977 -0.5491  0.3708  0.2883
 5978TIP3   OH239348   3.780   5.716  13.072 -0.3620  0.2404  0.1971
 5978TIP3    H139349   3.709   5.772  13.042 -0.3509  0.6117  0.8412
 5978TIP3    H239350   3.746   5.627  13.065  0.2799  0.1837 -2.5997
 5979TIP3   OH239351   3.719   5.680  15.503  0.3495 -0.2894  0.5621
 5979TIP3    H139352   3.631   5.682  15.540 -0.4379 -1.8447 -1.1072
 5979TIP3    H239353   3.748   5.589  15.514  1.5883  0.1077  0.7269
 5980TIP3   OH239354   6.562   2.261  15.847  0.1387  0.2530 -0.1717
 5980TIP3    H139355   6.476   2.233  15.879 -0.6268  0.2824 -2.0880
 5980TIP3    H239356   6.624   2.220  15.906 -1.2231  1.1143  1.9093
 5981TIP3   OH239357   5.213   1.387   2.081 -0.1168  0.3710 -0.1806
 5981TIP3    H139358   5.283   1.442   2.045  1.3427 -0.6271  1.0423
 5981TIP3    H239359   5.159   1.364   2.006 -0.4307  2.9709 -0.8112
 5982TIP3   OH239360   1.482   2.720  10.999  0.2543 -0.5945  0.4040
 5982TIP3    H139361   1.476   2.728  11.094 -1.0123 -1.8459  0.4456
 5982TIP3    H239362   1.432   2.795  10.966  1.8319  0.6177  0.6951
 5983TIP3   OH239363   4.363   2.378   0.507 -0.2462  0.1827 -0.2923
 5983TIP3    H139364   4.280   2.421   0.487  1.1285  1.7331 -2.8463
 5983TIP3    H239365   4.417   2.447   0.545  0.9245 -0.0103 -1.5600
 5984TIP3   OH239366   3.727   1.653   3.911 -0.4153 -0.1776  0.1925
 5984TIP3    H139367   3.718   1.608   3.995 -1.4387  0.6471  0.5260
 5984TIP3    H239368   3.704   1.744   3.929  0.8116  0.3135 -0.6684
 5985TIP3   OH239369   6.439   0.011   4.913  0.7014  0.2728  0.5252
 5985TIP3    H139370   6.404  -0.041   4.842  1.7625 -0.7510  0.7362
 5985TIP3    H239371   6.499  -0.048   4.960  1.0172  1.3140  1.4732
 5986TIP3   OH239372   1.542   3.751  13.015 -0.4197  0.0400  0.0547
 5986TIP3    H139373   1.601   3.720  13.083 -0.7365  0.5389  0.5572
 5986TIP3    H239374   1.510   3.835  13.047  0.0823  0.6928 -1.0856
 5987TIP3   OH239375   0.393   0.386   0.174 -0.1836  0.0447 -0.1759
 5987TIP3    H139376   0.457   0.453   0.151 -0.0063 -0.5269 -1.3971
 5987TIP3    H239377   0.359   0.355   0.090 -0.2349 -1.4110  0.3648
 5988TIP3   OH239378   2.652   1.707   5.324 -0.3174 -0.5132  0.1557
 5988TIP3    H139379   2.617   1.727   5.238 -1.3693 -0.1612  0.6528
 5988TIP3    H239380   2.740   1.672   5.308 -0.5629 -0.5646 -1.0514
 5989TIP3   OH239381   6.147   6.513   2.819  0.2166 -0.3868  0.0515
 5989TIP3    H139382   6.085   6.582   2.842 -0.9596 -1.3197 -0.2783
 5989TIP3    H239383   6.215   6.558   2.767  0.0985  0.7308  0.8435
 5990TIP3   OH239384   3.047   0.338   5.280  0.7113 -0.4980  0.6558
 5990TIP3    H139385   3.001   0.379   5.206  1.0618  0.3018  0.8766
 5990TIP3    H239386   2.992   0.358   5.356  2.0437  1.5446  1.1181
 5991TIP3   OH239387   0.054   2.522  12.538  0.4642 -0.1410  0.2848
 5991TIP3    H139388  -0.039   2.543  12.531  0.5608  0.1664 -0.1556
 5991TIP3    H239389   0.098   2.598  12.500  0.8496 -0.8655 -0.7309
 5992TIP3   OH239390   6.290   2.337   3.245 -0.0760 -0.1501  0.1346
 5992TIP3    H139391   6.255   2.248   3.242 -2.1250  0.6546 -0.6327
 5992TIP3    H239392   6.310   2.352   3.337 -1.9529 -0.5656  0.6289
 5993TIP3   OH239393   2.331   2.555   0.495 -0.5848  0.5727 -0.1610
 5993TIP3    H139394   2.286   2.586   0.573  0.6794  5.1366 -1.0628
 5993TIP3    H239395   2.266   2.563   0.425 -0.5403  0.3316 -0.2292
 5994TIP3   OH239396   0.974   5.098  13.421 -0.1802  0.0855 -0.6559
 5994TIP3    H139397   0.952   5.005  13.425  0.1201  0.0514  0.4835
 5994TIP3    H239398   0.964   5.128  13.511  2.6546  0.4678 -0.4313
 5995TIP3   OH239399   6.751   6.721  11.632 -0.1144  0.5911 -0.0299
 5995TIP3    H139400   6.679   6.770  11.670 -0.6428 -0.7100  0.6777
 5995TIP3    H239401   6.786   6.778  11.564 -1.6960  1.3054 -0.2575
 5996TIP3   OH239402   6.582   0.856  16.613  0.0501 -0.2087 -0.0592
 5996TIP3    H139403   6.571   0.773  16.568 -0.9513 -0.1410  0.0530
 5996TIP3    H239404   6.496   0.877  16.648  0.0469  1.3814 -0.9650
 5997TIP3   OH239405   6.184   3.953  13.320 -0.1508 -0.1928  0.5649
 5997TIP3    H139406   6.259   3.995  13.278  1.4180 -2.1399  1.3601
 5997TIP3    H239407   6.150   4.020  13.380  0.7501  0.8088 -0.0312
 5998TIP3   OH239408   5.519   3.134   4.877  0.0511 -0.4680 -0.5780
 5998TIP3    H139409   5.524   3.196   4.805 -0.9313  0.4922  0.1644
 5998TIP3    H239410   5.436   3.153   4.920  0.3374 -1.4361  0.4410
 5999TIP3   OH239411   1.117   0.840  15.231 -0.2900 -0.0781 -0.1634
 5999TIP3    H139412   1.047   0.886  15.185 -0.7388 -0.9935 -0.4036
 5999TIP3    H239413   1.092   0.748  15.227 -1.1364 -0.0816  3.1915
 6000TIP3   OH239414   2.933   0.646   5.170 -0.1299  0.1621  0.3681
 6000TIP3    H139415   2.861   0.708   5.156  1.1580  1.3781 -0.9763
 6000TIP3    H239416   2.915   0.574   5.110  1.0524  1.6182 -1.8134
 6001TIP3   OH239417   5.153   3.237  13.907  0.0682 -0.3128 -0.0482
 6001TIP3    H139418   5.095   3.161  13.905  0.3060 -0.4625 -1.5911
 6001TIP3    H239419   5.139   3.280  13.823  2.3255 -0.4525 -0.5151
 6002TIP3   OH239420   2.976   4.033  14.786 -0.4162  0.1933  0.2381
 6002TIP3    H139421   2.914   4.103  14.764  2.1873  2.9789  1.2812
 6002TIP3    H239422   2.944   3.999  14.870 -0.2590  2.0502  1.1005
 6003TIP3   OH239423   6.676   6.478   4.104  0.1099  0.1240 -0.0692
 6003TIP3    H139424   6.746   6.490   4.039  1.2981 -0.4973  1.0641
 6003TIP3    H239425   6.599   6.457   4.051  0.4816  2.0080 -1.4067
 6004TIP3   OH239426   2.037   1.389  15.686  0.0557 -0.3189  0.2145
 6004TIP3    H139427   1.988   1.469  15.703  0.5376  0.4557 -1.8092
 6004TIP3    H239428   1.973   1.328  15.649  0.3570  0.3246 -1.4229
 6005TIP3   OH239429   4.850   6.330  11.952  0.4242 -0.0847  0.5006
 6005TIP3    H139430   4.873   6.257  12.010  2.3311  0.8219  0.9515
 6005TIP3    H239431   4.755   6.335  11.956  0.3152 -2.0359  1.0862
 6006TIP3   OH239432   0.304   5.935   5.736  0.3932  0.5080  0.8126
 6006TIP3    H139433   0.304   5.938   5.640  1.6241 -1.1709  0.7398
 6006TIP3    H239434   0.234   5.996   5.761 -1.5482 -0.7653 -1.2130
 6007TIP3   OH239435   3.237   6.748   6.620 -0.4816  0.1742 -0.1220
 6007TIP3    H139436   3.147   6.727   6.647 -0.8206  1.4979 -0.1847
 6007TIP3    H239437   3.277   6.788   6.697  0.3266 -1.1699  0.1678
 6008TIP3   OH239438   0.303   4.253   2.652 -0.3103 -0.0988 -0.3458
 6008TIP3    H139439   0.262   4.180   2.604 -0.6896 -0.1332  0.0241
 6008TIP3    H239440   0.377   4.213   2.698 -1.4680 -0.5885  1.1457
 6009TIP3   OH239441   0.067   4.026   1.319 -0.8631 -0.2727 -0.6865
 6009TIP3    H139442   0.073   3.953   1.257  0.6063 -2.2076  1.5930
 6009TIP3    H239443   0.017   3.990   1.393  0.2076  0.9000  0.6376
 6010TIP3   OH239444   2.478   6.738  15.622 -0.0921 -0.0771 -0.1198
 6010TIP3    H139445   2.413   6.682  15.578  0.5941  0.6980 -2.1682
 6010TIP3    H239446   2.536   6.676  15.666 -2.5131 -0.7665  2.2233
 6011TIP3   OH239447   2.173   6.494  11.172  0.2789  0.0629 -0.2553
 6011TIP3    H139448   2.139   6.414  11.213  1.0357 -0.7244 -1.1298
 6011TIP3    H239449   2.134   6.566  11.223  0.1205 -0.8680  0.9557
 6012TIP3   OH239450   1.509   0.756  12.805  0.0682 -0.2944  0.3684
 6012TIP3    H139451   1.553   0.703  12.739 -0.8428 -0.4688 -0.1083
 6012TIP3    H239452   1.469   0.692  12.864 -0.1841 -0.1365  0.3677
 6013TIP3   OH239453   5.402   5.353  12.556 -0.9366  0.5850  0.2827
 6013TIP3    H139454   5.311   5.332  12.579 -0.9405 -0.4798 -0.6468
 6013TIP3    H239455   5.420   5.298  12.480 -0.0930  2.0931 -0.6331
 6014TIP3   OH239456   1.006   5.151  11.007  0.5646 -0.3929  0.1343
 6014TIP3    H139457   1.000   5.113  10.920  0.9460  0.1932 -0.1496
 6014TIP3    H239458   1.053   5.086  11.059  1.3857 -0.2305 -0.3955
 6015TIP3   OH239459   2.414   0.600  15.868 -0.4502  0.0789  0.5613
 6015TIP3    H139460   2.358   0.623  15.942  0.0648  1.3925  0.5538
 6015TIP3    H239461   2.503   0.605  15.903  0.0200  3.9816 -0.9359
 6016TIP3   OH239462   6.342   6.448   5.058 -0.1243  0.0951 -0.4996
 6016TIP3    H139463   6.391   6.498   5.123 -0.6850 -0.1433  0.1056
 6016TIP3    H239464   6.410   6.400   5.009  0.1401 -1.7567  1.6090
 6017TIP3   OH239465   3.196   4.997   0.037 -0.0444 -0.1396  0.0197
 6017TIP3    H139466   3.285   4.992   0.070  0.6308 -0.9060 -1.8259
 6017TIP3    H239467   3.206   5.015  -0.057 -1.7062 -2.5577 -0.6996
 6018TIP3   OH239468   2.371   2.426  13.817  0.2378  0.1829 -0.1234
 6018TIP3    H139469   2.455   2.457  13.849 -0.5178  0.8540  1.2569
 6018TIP3    H239470   2.391   2.381  13.735  2.0253 -0.3089  0.5750
 6019TIP3   OH239471   3.208   0.008  14.954 -0.4440  0.6595 -0.2892
 6019TIP3    H139472   3.135   0.028  15.013  0.3909  1.5373  0.4786
 6019TIP3    H239473   3.171   0.017  14.866 -1.3071  0.9249  0.0929
 6020TIP3   OH239474   2.391   4.614  15.338  0.3998 -0.5653 -0.0124
 6020TIP3    H139475   2.475   4.583  15.305  0.1644 -0.5545 -0.6302
 6020TIP3    H239476   2.407   4.635  15.430  0.9037 -1.2088  0.0478
 6021TIP3   OH239477   5.544   1.044   3.896 -0.4916 -0.2262  0.2914
 6021TIP3    H139478   5.605   1.072   3.965 -0.0601  0.4831 -0.3747
 6021TIP3    H239479   5.540   1.118   3.836  0.6359 -1.5723 -1.4899
 6022TIP3   OH239480   3.565   2.264  10.582  0.1273 -0.1277  0.0489
 6022TIP3    H139481   3.522   2.287  10.664 -0.0030 -1.8612  0.4682
 6022TIP3    H239482   3.567   2.169  10.581 -1.1013 -0.1748 -2.5945
 6023TIP3   OH239483   5.628   2.779  12.505 -0.2037  0.2164  0.5447
 6023TIP3    H139484   5.662   2.781  12.594 -0.4056  0.0745  0.6234
 6023TIP3    H239485   5.598   2.689  12.492  1.0319 -0.1034 -0.1218
 6024TIP3   OH239486   2.242   0.367  15.154 -0.0445  0.0179  0.3926
 6024TIP3    H139487   2.245   0.294  15.215 -1.9165 -1.2961 -1.0336
 6024TIP3    H239488   2.205   0.330  15.073  2.0081  1.7763 -1.4249
 6025TIP3   OH239489   5.700   0.654  14.681 -0.2338 -0.1154 -0.6271
 6025TIP3    H139490   5.630   0.593  14.658 -0.3972 -0.5413  0.9165
 6025TIP3    H239491   5.777   0.600  14.693 -0.3583 -0.0293  0.6657
 6026TIP3   OH239492   6.636   2.382   3.612 -0.1658  0.4281  0.1041
 6026TIP3    H139493   6.600   2.391   3.700 -0.5985  1.7934 -0.1967
 6026TIP3    H239494   6.576   2.323   3.567 -0.3829  0.3575  0.4877
 6027TIP3   OH239495   0.314   3.901   1.542  0.7018 -0.6139 -0.2000
 6027TIP3    H139496   0.315   3.855   1.458 -0.4233  0.0417 -0.5734
 6027TIP3    H239497   0.224   3.893   1.573  0.4470  1.3798 -0.3122
 6028TIP3   OH239498   4.220   0.508  10.944 -0.8077 -0.5080  0.4230
 6028TIP3    H139499   4.310   0.541  10.935 -1.4014  0.8505 -0.8804
 6028TIP3    H239500   4.192   0.489  10.854 -1.6289 -1.4762  0.8708
 6029TIP3   OH239501   4.024   5.978   4.771  0.4991  0.5400  0.1669
 6029TIP3    H139502   4.114   5.960   4.795  0.6559 -2.9698 -2.6352
 6029TIP3    H239503   3.971   5.928   4.833  0.6064 -0.1128 -0.2605
 6030TIP3   OH239504   5.051   3.552  15.398  0.6046 -0.2952  0.0931
 6030TIP3    H139505   4.990   3.607  15.349  0.8815  0.2360  0.3338
 6030TIP3    H239506   5.000   3.476  15.424 -0.1829  0.5287  0.9932
 6031TIP3   OH239507   2.391   1.889  13.046  0.6275 -0.1983 -0.0750
 6031TIP3    H139508   2.396   1.974  13.003  0.1085  0.2733  0.7824
 6031TIP3    H239509   2.305   1.888  13.088 -0.2435 -2.0060 -1.8254
 6032TIP3   OH239510   2.492   5.065   2.061 -0.3923  0.0087 -0.0700
 6032TIP3    H139511   2.406   5.094   2.093 -1.3928 -2.2421 -0.6143
 6032TIP3    H239512   2.548   5.068   2.139 -1.3258  0.1888  0.6096
 6033TIP3   OH239513   2.994   1.771  16.970  0.4674 -0.2288  0.3956
 6033TIP3    H139514   2.927   1.832  16.938  1.2828  0.7414  0.4979
 6033TIP3    H239515   2.944   1.698  17.007 -0.5116 -0.2899 -1.0004
 6034TIP3   OH239516   3.672   3.242  11.671  0.1801  0.2709 -0.0852
 6034TIP3    H139517   3.668   3.295  11.750  2.0693 -0.0708  0.2679
 6034TIP3    H239518   3.765   3.238  11.649 -0.1117 -1.3180 -1.1741
 6035TIP3   OH239519   4.489   5.669   5.652  0.0990  0.0745 -0.0633
 6035TIP3    H139520   4.489   5.660   5.747 -1.1106  1.2367  0.0651
 6035TIP3    H239521   4.494   5.579   5.619  0.5522 -0.3291  1.0974
 6036TIP3   OH239522   6.079   0.786  15.669  0.3797  0.3792 -0.3082
 6036TIP3    H139523   5.999   0.829  15.698  1.2997  1.4489  0.6901
 6036TIP3    H239524   6.087   0.709  15.725 -1.2367 -1.1109 -2.0569
 6037TIP3   OH239525   1.251   4.257  17.092  0.2550  0.1532  0.3306
 6037TIP3    H139526   1.195   4.334  17.096 -1.8265 -1.3073  0.5349
 6037TIP3    H239527   1.310   4.273  17.019 -0.6797  1.5948 -0.1228
 6038TIP3   OH239528   4.735   2.390  11.966  0.2556  0.2693 -0.4512
 6038TIP3    H139529   4.753   2.351  11.880  2.9965  2.2089 -0.8348
 6038TIP3    H239530   4.761   2.482  11.956 -0.8361  0.8808  2.0388
 6039TIP3   OH239531   5.331   1.280  13.864 -0.3654 -0.2959 -0.4604
 6039TIP3    H139532   5.412   1.311  13.824  1.3181 -0.6611  2.5089
 6039TIP3    H239533   5.262   1.311  13.805  1.9582 -1.3338 -3.8778
 6040TIP3   OH239534   0.173   1.730  11.303  0.5395  0.3059  0.2828
 6040TIP3    H139535   0.077   1.738  11.307  0.4732 -1.2376  3.4310
 6040TIP3    H239536   0.194   1.744  11.210 -2.5449  2.3387 -0.2007
 6041TIP3   OH239537   0.813   0.578   3.691  0.0101  0.6443 -0.1078
 6041TIP3    H139538   0.760   0.499   3.680  0.4978  0.3304 -0.2104
 6041TIP3    H239539   0.819   0.589   3.786  0.3901  0.2548 -0.0868
 6042TIP3   OH239540   1.406   6.199   0.945 -0.3880  0.4225  0.1981
 6042TIP3    H139541   1.440   6.132   1.005 -2.0630 -1.4327 -0.8698
 6042TIP3    H239542   1.485   6.234   0.902  0.3561 -3.1402 -1.5459
 6043TIP3   OH239543   4.301   4.676   5.640  0.1443 -0.3187 -0.0626
 6043TIP3    H139544   4.230   4.673   5.704  0.4619 -0.4347  0.2851
 6043TIP3    H239545   4.374   4.717   5.687 -0.0197  0.7811 -0.7389
 6044TIP3   OH239546   6.472   1.427   1.667  0.0240  0.4517 -0.3624
 6044TIP3    H139547   6.448   1.391   1.752  0.2473  0.1637 -0.4203
 6044TIP3    H239548   6.549   1.481   1.685 -1.8701  3.0311  0.1757
 6045TIP3   OH239549   1.768   6.517  16.015 -0.0620 -0.3864  0.7681
 6045TIP3    H139550   1.739   6.601  16.052 -0.1953 -0.0034 -0.1973
 6045TIP3    H239551   1.750   6.524  15.921  0.2677 -1.3575  0.6244
 6046TIP3   OH239552   6.585   2.775   4.377 -0.2235 -0.5504  0.4349
 6046TIP3    H139553   6.549   2.862   4.363  2.7577  0.6492 -0.3376
 6046TIP3    H239554   6.639   2.783   4.455 -1.0599 -2.0947  1.1891
 6047TIP3   OH239555   4.787   1.976  16.848 -0.0164  0.2603  0.4564
 6047TIP3    H139556   4.861   2.013  16.896  0.3539  0.1411 -0.0123
 6047TIP3    H239557   4.776   2.035  16.773 -0.7347  0.5751  0.8118
 6048TIP3   OH239558   0.501   2.327   1.267 -0.0268  0.0311 -0.3097
 6048TIP3    H139559   0.536   2.266   1.332 -1.2492 -0.9779 -0.5708
 6048TIP3    H239560   0.437   2.275   1.218 -1.1246  1.5432 -0.5097
 6049TIP3   OH239561   1.483   3.806  13.432  0.2125  0.2656  0.2933
 6049TIP3    H139562   1.529   3.824  13.514  1.4058  1.7461 -0.6644
 6049TIP3    H239563   1.390   3.815  13.454  0.5323  0.8277  1.4517
 6050TIP3   OH239564   5.691   4.338   2.481 -0.9673 -0.7308  0.1354
 6050TIP3    H139565   5.709   4.275   2.552  0.9934 -0.9371 -0.5404
 6050TIP3    H239566   5.633   4.290   2.422  1.1361 -2.2116 -0.7769
 6051TIP3   OH239567   6.020   4.499   4.728  0.0576 -0.1026  0.6430
 6051TIP3    H139568   5.953   4.535   4.671 -1.8856 -2.0088  1.6415
 6051TIP3    H239569   6.063   4.431   4.676  0.1177 -0.0123  0.5728
 6052TIP3   OH239570   2.095   2.379   4.577 -0.0980 -0.1739  0.0163
 6052TIP3    H139571   2.083   2.293   4.616  0.5053 -0.3357 -0.1577
 6052TIP3    H239572   2.008   2.403   4.545 -0.3050 -0.6345  0.2351
 6053TIP3   OH239573   0.459   1.015  16.286  0.5862  0.3985  0.0196
 6053TIP3    H139574   0.541   1.049  16.321  1.2182 -2.5106  1.5125
 6053TIP3    H239575   0.401   1.009  16.362 -1.0905  2.5137 -1.0342
 6054TIP3   OH239576   0.233   6.334   3.117  0.0861  0.3809 -0.1206
 6054TIP3    H139577   0.248   6.349   3.024  0.6284  0.8762  0.0437
 6054TIP3    H239578   0.319   6.314   3.153  0.2184  2.2244  0.6407
 6055TIP3   OH239579   0.782   1.437   4.144 -0.1911  0.0363 -0.2754
 6055TIP3    H139580   0.760   1.457   4.235  1.2516 -1.6431  0.4792
 6055TIP3    H239581   0.712   1.378   4.115 -0.5529  0.4239 -0.1788
 6056TIP3   OH239582   4.640   5.024  17.208 -0.3283  0.1198  0.1239
 6056TIP3    H139583   4.689   4.948  17.237 -0.4943 -0.2141 -0.4548
 6056TIP3    H239584   4.644   5.020  17.112 -0.4394  0.7696  0.0895
 6057TIP3   OH239585   4.597   6.443  14.252 -0.6649 -0.1752  0.1275
 6057TIP3    H139586   4.679   6.484  14.223 -1.5029  0.5844 -1.2279
 6057TIP3    H239587   4.557   6.411  14.171 -2.0019  0.0138  0.7056
 6058TIP3   OH239588   6.712   2.425   1.310 -0.0426  0.4191  0.7130
 6058TIP3    H139589   6.772   2.353   1.289 -1.8792 -1.0234  0.3946
 6058TIP3    H239590   6.683   2.457   1.224 -2.5395 -1.2642  0.9077
 6059TIP3   OH239591   1.382   5.824   1.279 -0.1466 -0.4725  0.0369
 6059TIP3    H139592   1.356   5.887   1.211 -3.5144 -0.6534  1.0631
 6059TIP3    H239593   1.467   5.856   1.309 -0.6247  2.1490 -1.2124
 6060TIP3   OH239594   1.116   1.663  11.585 -0.2683  0.3806 -0.1607
 6060TIP3    H139595   1.100   1.612  11.665 -1.7521 -1.1181 -1.3917
 6060TIP3    H239596   1.165   1.604  11.528 -1.1808  0.6334 -1.2295
 6061TIP3   OH239597   1.419   6.375  12.831 -0.4087  0.0606 -0.0442
 6061TIP3    H139598   1.343   6.430  12.847 -0.2827 -0.0748  1.0443
 6061TIP3    H239599   1.391   6.314  12.763 -0.3567  1.8385 -1.6948
 6062TIP3   OH239600   0.116   0.266  11.470 -0.7576 -0.6358 -0.1244
 6062TIP3    H139601   0.096   0.351  11.509 -0.0439 -1.8931  3.1453
 6062TIP3    H239602   0.183   0.284  11.403 -2.5612  1.6780 -1.3467
 6063TIP3   OH239603   4.794   2.387  16.325  0.2067 -0.9631  0.6098
 6063TIP3    H139604   4.804   2.472  16.282  0.5204 -1.6915 -0.8089
 6063TIP3    H239605   4.751   2.406  16.408 -0.7879  0.4616 -0.2131
 6064TIP3   OH239606   3.960   2.061   0.842  0.7021 -0.1343 -0.0984
 6064TIP3    H139607   4.029   1.996   0.850  0.1255 -0.3949  4.0963
 6064TIP3    H239608   3.996   2.140   0.882 -0.8515  0.1996  0.6889
 6065TIP3   OH239609   4.381   3.242  11.984  0.3190 -0.0414  0.3086
 6065TIP3    H139610   4.384   3.318  11.926 -0.0542 -1.0822 -1.1134
 6065TIP3    H239611   4.341   3.173  11.931 -1.3052 -0.6595  2.2580
 6066TIP3   OH239612   6.152   5.610   2.506  0.6209 -0.6360 -0.0442
 6066TIP3    H139613   6.221   5.638   2.565  0.6457  1.6852 -1.1224
 6066TIP3    H239614   6.084   5.677   2.514 -0.5527 -1.7356 -0.6073
 6067TIP3   OH239615   0.143   4.471   4.750 -0.1854 -0.1993 -0.3265
 6067TIP3    H139616   0.102   4.431   4.827 -1.0023 -0.3262 -0.8185
 6067TIP3    H239617   0.114   4.416   4.677  0.3413  0.0962 -0.7543
 6068TIP3   OH239618   3.505   3.333   4.406 -0.1833 -0.7704  0.4040
 6068TIP3    H139619   3.447   3.373   4.471  0.2231 -0.0993  0.3615
 6068TIP3    H239620   3.542   3.407   4.358  0.1545 -1.2265 -0.0496
 6069TIP3   OH239621   3.049   6.775   1.778 -0.2986 -0.3494  0.7922
 6069TIP3    H139622   2.991   6.699   1.779  0.2745 -0.7826  2.4741
 6069TIP3    H239623   2.995   6.846   1.814 -1.1227  0.2851 -1.6128
 6070TIP3   OH239624   0.963   0.105   3.313 -0.0764 -0.2996 -0.2070
 6070TIP3    H139625   0.875   0.075   3.336  0.0479 -0.1964  0.4132
 6070TIP3    H239626   0.999   0.035   3.257 -0.2320 -0.7474  0.2480
 6071TIP3   OH239627   4.077   5.540  13.678  0.0393  0.1627 -0.0175
 6071TIP3    H139628   4.139   5.611  13.692  1.4605 -0.6663 -1.8395
 6071TIP3    H239629   4.036   5.526  13.764  0.8115  2.1570  0.6974
 6072TIP3   OH239630   0.793   3.270  13.954 -0.6360 -0.3000  0.0776
 6072TIP3    H139631   0.851   3.342  13.928  0.5023 -0.8681  1.0153
 6072TIP3    H239632   0.706   3.310  13.961  0.0870  1.1009  1.1262
 6073TIP3   OH239633   1.002   0.462   6.282  0.9162 -0.1551 -0.1593
 6073TIP3    H139634   0.998   0.553   6.254  1.9407 -0.0753 -0.0634
 6073TIP3    H239635   0.914   0.443   6.315  0.7457  0.8461 -0.0270
 6074TIP3   OH239636   5.791   4.315  16.508 -0.6019  0.3754 -0.0774
 6074TIP3    H139637   5.708   4.355  16.479  0.2196  1.7116 -0.6625
 6074TIP3    H239638   5.857   4.382  16.490  0.6677 -0.8223  0.0232
 6075TIP3   OH239639   4.425   5.426  13.903 -0.3331 -0.3894  0.6405
 6075TIP3    H139640   4.408   5.420  13.809  1.6567 -1.2089  0.2988
 6075TIP3    H239641   4.520   5.425  13.910 -0.4577 -2.4951  2.8011
 6076TIP3   OH239642   2.093   2.294   2.182  0.5145 -0.5262  0.3025
 6076TIP3    H139643   2.045   2.328   2.258  0.7508  1.1168 -0.2567
 6076TIP3    H239644   2.045   2.215   2.156 -0.6019 -0.1133  1.0777
 6077TIP3   OH239645   4.648   5.190   1.393 -0.3204 -0.1732 -0.2743
 6077TIP3    H139646   4.713   5.144   1.446  0.3121  0.5500 -0.4111
 6077TIP3    H239647   4.680   5.182   1.303 -0.3551  0.2822 -0.3281
 6078TIP3   OH239648   5.323   6.592  16.149  0.0215 -0.2261  0.3535
 6078TIP3    H139649   5.381   6.665  16.128  2.1963 -1.7186  1.0791
 6078TIP3    H239650   5.275   6.621  16.227  1.2021  0.2558  0.9152
 6079TIP3   OH239651   4.068   4.332  16.207 -0.0279  0.0024 -0.2744
 6079TIP3    H139652   4.046   4.401  16.145 -2.4248 -0.3911  0.0920
 6079TIP3    H239653   3.998   4.335  16.273  1.0446 -1.3026  0.9684
 6080TIP3   OH239654   6.785   1.095  11.248  0.7824  0.2169 -0.4169
 6080TIP3    H139655   6.763   1.046  11.169  1.9319 -1.3166  0.1877
 6080TIP3    H239656   6.843   1.165  11.218  0.5672  0.1292 -1.0436
 6081TIP3   OH239657   5.998   1.091  16.828  0.0140 -0.7025 -0.3813
 6081TIP3    H139658   5.914   1.137  16.831 -0.0188 -0.7966  0.0909
 6081TIP3    H239659   6.063   1.161  16.820  0.0916 -0.4656  2.1115
 6082TIP3   OH239660   5.716   5.834   2.498  0.3614  0.0456  0.0050
 6082TIP3    H139661   5.639   5.881   2.465 -1.2445 -1.5268  1.4139
 6082TIP3    H239662   5.773   5.903   2.532 -0.6537  1.1985 -0.5722
 6083TIP3   OH239663   0.450   1.303   3.622  0.4181  0.1020  0.4051
 6083TIP3    H139664   0.400   1.370   3.669 -0.9242 -1.1859  0.8570
 6083TIP3    H239665   0.400   1.222   3.636  2.9127 -1.3373  1.3106
 6084TIP3   OH239666   0.119   6.487   3.930 -0.2289  0.1108 -0.2934
 6084TIP3    H139667   0.149   6.418   3.870 -1.5337 -0.9968  0.3041
 6084TIP3    H239668   0.168   6.472   4.011  1.4862  1.5683 -1.0386
 6085TIP3   OH239669   4.944   0.102   0.527 -0.0847 -0.1664  0.0134
 6085TIP3    H139670   4.944   0.133   0.437 -0.5577  1.1676  0.4711
 6085TIP3    H239671   4.852   0.085   0.547 -0.0408  0.1193  0.4524
 6086TIP3   OH239672   0.052   4.872  12.040  0.7125 -0.0599  0.4240
 6086TIP3    H139673   0.032   4.965  12.034 -2.1069 -0.6091  0.4005
 6086TIP3    H239674   0.067   4.855  12.133 -3.1729 -0.3345  1.0947
 6087TIP3   OH239675   3.062   5.114  11.507 -0.0533  0.5133 -0.5746
 6087TIP3    H139676   3.115   5.194  11.509  0.1922  0.3422 -0.2388
 6087TIP3    H239677   3.125   5.043  11.518 -0.2962  0.2845 -0.6579
 6088TIP3   OH239678   3.374   0.754  14.075 -0.0380  0.5085 -0.1136
 6088TIP3    H139679   3.288   0.718  14.050  1.3547 -2.4194 -0.9078
 6088TIP3    H239680   3.435   0.682  14.061  2.0133  1.2394  4.3601
 6089TIP3   OH239681   3.818   2.893  14.995  0.6343  0.1170 -0.2973
 6089TIP3    H139682   3.744   2.861  15.048  1.6395  1.2215  1.8326
 6089TIP3    H239683   3.857   2.814  14.959 -0.7562 -0.5816 -0.3206
 6090TIP3   OH239684   3.735   6.324   3.225  0.4254 -0.6313  0.1790
 6090TIP3    H139685   3.751   6.353   3.315  0.3297 -0.4842  0.1474
 6090TIP3    H239686   3.784   6.242   3.218 -1.2026 -1.7069  1.0151
 6091TIP3   OH239687   6.706   4.586  12.631  0.3094 -0.2625 -0.1271
 6091TIP3    H139688   6.700   4.656  12.567 -0.8309 -0.2557 -0.0158
 6091TIP3    H239689   6.680   4.627  12.714  0.2616 -0.6611  0.0557
 6092TIP3   OH239690   4.714   6.395   0.859 -0.3496 -0.1118 -0.1315
 6092TIP3    H139691   4.687   6.462   0.922 -0.8370  0.0058 -0.4667
 6092TIP3    H239692   4.698   6.312   0.904 -1.5790 -0.0532 -0.4488
 6093TIP3   OH239693   5.967   6.048  11.383  0.2922 -0.2808  0.1482
 6093TIP3    H139694   5.890   5.991  11.393 -0.1244 -0.1780 -2.1347
 6093TIP3    H239695   5.996   6.033  11.293  0.8471  2.2762 -0.1324
 6094TIP3   OH239696   5.054   2.148   1.768 -0.0295  0.3247  0.1688
 6094TIP3    H139697   5.023   2.078   1.710  0.8449  0.7493 -0.8208
 6094TIP3    H239698   5.100   2.101   1.839 -0.9239 -0.1837  0.4220
 6095TIP3   OH239699   2.481   5.209  12.234 -0.7680  0.3230 -0.2187
 6095TIP3    H139700   2.521   5.156  12.302 -0.2116 -0.3673 -1.0637
 6095TIP3    H239701   2.526   5.293  12.239  2.5689 -1.2168 -2.7388
 6096TIP3   OH239702   5.281   2.593  12.809  1.0688  0.0385  0.2263
 6096TIP3    H139703   5.232   2.671  12.783  0.7399  0.3092  1.6276
 6096TIP3    H239704   5.372   2.622  12.810  1.2277 -0.3028 -1.7797
 6097TIP3   OH239705   0.927   6.366   3.956 -0.1092 -0.4717  0.3993
 6097TIP3    H139706   0.951   6.396   3.868  1.5220 -0.0570  0.9706
 6097TIP3    H239707   0.913   6.447   4.006  0.9291 -0.6813  1.0405
 6098TIP3   OH239708   3.675   2.339  11.282 -0.2855  0.9583  0.3838
 6098TIP3    H139709   3.688   2.425  11.321 -1.3632  1.2573  0.0872
 6098TIP3    H239710   3.638   2.286  11.353 -1.4939  1.2836 -0.0020
 6099TIP3   OH239711   3.670   3.353   3.150  0.1683  0.7184 -0.3827
 6099TIP3    H139712   3.699   3.424   3.092  0.2240 -0.8062 -2.2554
 6099TIP3    H239713   3.575   3.354   3.144  0.1737  0.5611 -0.4849
 6100TIP3   OH239714   3.444   4.123   4.144  0.0971  0.3696  0.1192
 6100TIP3    H139715   3.457   4.052   4.081  1.4312  1.5334 -0.9537
 6100TIP3    H239716   3.380   4.088   4.206 -0.8174 -1.0233 -1.5490
 6101TIP3   OH239717   1.721   0.763   5.035  0.1643 -0.2488 -0.2282
 6101TIP3    H139718   1.788   0.725   5.091 -2.2794 -2.3714  1.3408
 6101TIP3    H239719   1.704   0.697   4.968 -1.3727 -0.3510  0.2420
 6102TIP3   OH239720   3.073   6.176   2.347  0.0014 -0.0527 -0.7543
 6102TIP3    H139721   2.981   6.153   2.363  0.0537  0.6963  0.7209
 6102TIP3    H239722   3.076   6.272   2.356  0.7120  0.0623 -1.9881
 6103TIP3   OH239723   2.398   5.176  16.401  0.3329  0.6138 -0.1007
 6103TIP3    H139724   2.446   5.104  16.360 -2.1466 -0.2285 -1.6732
 6103TIP3    H239725   2.414   5.165  16.495  3.0423  0.3005 -0.5460
 6104TIP3   OH239726   4.255   5.579   2.863  0.8473  0.4252 -0.4946
 6104TIP3    H139727   4.243   5.554   2.771  1.2220  0.1705 -0.4748
 6104TIP3    H239728   4.186   5.531   2.909  1.7461 -0.8242 -0.4191
 6105TIP3   OH239729   4.917   4.235  14.674 -0.0255 -0.2037  0.8072
 6105TIP3    H139730   4.837   4.184  14.661  0.6470 -0.9751 -0.4570
 6105TIP3    H239731   4.946   4.212  14.762 -0.7638 -0.5233  0.9709
 6106TIP3   OH239732   3.194   2.188   0.210  0.0743 -0.4664  0.0532
 6106TIP3    H139733   3.173   2.231   0.127  1.4178  0.5492  0.2228
 6106TIP3    H239734   3.111   2.150   0.239 -0.4228 -0.8245 -1.7387
 6107TIP3   OH239735   2.667   1.449   2.357 -0.3597  0.1849  0.4993
 6107TIP3    H139736   2.577   1.449   2.327 -0.7808 -1.3962  1.7098
 6107TIP3    H239737   2.693   1.357   2.358  1.0649  0.5665  0.7452
 6108TIP3   OH239738   3.741   1.108  11.815 -0.3598  0.4656 -0.7029
 6108TIP3    H139739   3.715   1.191  11.856  0.4993  0.3202  0.1517
 6108TIP3    H239740   3.836   1.115  11.804 -0.3393 -0.2337 -1.0114
 6109TIP3   OH239741   6.522   1.569  13.013 -0.0504 -0.5609  0.2336
 6109TIP3    H139742   6.461   1.501  13.040 -2.0353  1.0022 -0.1616
 6109TIP3    H239743   6.481   1.651  13.043  1.2242  0.6266 -1.1820
 6110TIP3   OH239744   3.005   2.128  10.700 -0.0941 -0.1404 -0.1963
 6110TIP3    H139745   2.933   2.165  10.649 -0.5733 -0.8188 -0.0178
 6110TIP3    H239746   3.025   2.196  10.765 -2.0131 -0.7954  1.1398
 6111TIP3   OH239747   3.138   6.304   0.120 -0.0879  0.4525  0.7027
 6111TIP3    H139748   3.164   6.306   0.027 -0.5462  0.2608  0.5697
 6111TIP3    H239749   3.072   6.373   0.128  0.1976  0.6981  0.9638
 6112TIP3   OH239750   1.680   3.379  11.034  0.0640  0.3808 -0.0799
 6112TIP3    H139751   1.676   3.381  10.939 -0.8734  1.2141 -0.0372
 6112TIP3    H239752   1.759   3.429  11.056  0.1469  0.3946 -0.4131
 6113TIP3   OH239753   6.004   0.587  13.166  0.1384  0.2821  0.2979
 6113TIP3    H139754   6.082   0.635  13.138  0.2242 -0.6232 -1.0759
 6113TIP3    H239755   5.967   0.641  13.236  2.4571  0.3059  1.5789
 6114TIP3   OH239756   3.460   0.484   4.459 -0.0177  0.4692 -0.1732
 6114TIP3    H139757   3.417   0.524   4.535 -1.9463 -1.3259 -0.2547
 6114TIP3    H239758   3.401   0.504   4.386  0.4790 -0.0598 -0.7163
 6115TIP3   OH239759   5.794   2.583   5.261 -0.1531 -0.6522  0.5372
 6115TIP3    H139760   5.790   2.665   5.212 -0.6676  0.1923  1.9522
 6115TIP3    H239761   5.880   2.547   5.239  0.9135  1.2373  1.3792
 6116TIP3   OH239762   0.534   1.586  13.106  0.1337  0.2501  1.0827
 6116TIP3    H139763   0.460   1.584  13.045  0.2372  0.9522  0.9268
 6116TIP3    H239764   0.586   1.662  13.078  0.8290 -0.1422  1.2906
 6117TIP3   OH239765   2.110   5.374  15.443  0.0182  0.0137  0.5461
 6117TIP3    H139766   2.180   5.315  15.469  0.0452  0.5333  1.7046
 6117TIP3    H239767   2.030   5.324  15.458  0.0273  0.3455  1.7848
 6118TIP3   OH239768   3.310   6.222  12.871  0.1441 -0.1079  0.0765
 6118TIP3    H139769   3.230   6.267  12.899 -0.6522 -0.6832 -1.2230
 6118TIP3    H239770   3.357   6.287  12.819 -0.2083 -0.2587 -0.4264
 6119TIP3   OH239771   5.615   4.534  12.018  0.0174  0.5408 -0.1202
 6119TIP3    H139772   5.602   4.461  12.078  0.1444  0.5895 -0.0345
 6119TIP3    H239773   5.668   4.497  11.947  0.4153  0.6507  0.1177
 6120TIP3   OH239774   0.507   6.344  15.982 -0.1261 -0.0842  0.2424
 6120TIP3    H139775   0.562   6.290  15.925  0.1851  0.6450 -0.1567
 6120TIP3    H239776   0.419   6.308  15.970  0.1943 -1.0125  0.5961
 6121TIP3   OH239777   0.379   1.026   5.169  0.8709 -0.4033  0.0499
 6121TIP3    H139778   0.426   1.010   5.087  1.8450  1.9058  0.1112
 6121TIP3    H239779   0.419   1.106   5.204 -0.5333 -0.5343  2.0368
 6122TIP3   OH239780   1.959   0.815  13.709  0.1478  0.2154 -0.8071
 6122TIP3    H139781   1.888   0.765  13.749  0.6385  1.0625  1.1647
 6122TIP3    H239782   2.037   0.762  13.727  0.1645 -0.2327 -2.1304
 6123TIP3   OH239783   5.830   2.650   1.682  0.7612  0.3175  0.5858
 6123TIP3    H139784   5.821   2.586   1.753 -0.5332 -0.8702 -0.6421
 6123TIP3    H239785   5.919   2.637   1.650  0.2819 -1.3668 -0.1146
 6124TIP3   OH239786   1.268   2.851  15.544 -0.0457  0.3171 -0.5498
 6124TIP3    H139787   1.216   2.930  15.527 -0.0521  0.2304 -0.9306
 6124TIP3    H239788   1.316   2.870  15.624  0.7915  1.1234 -1.2410
 6125TIP3   OH239789   6.536   6.590   1.576  0.3751  0.3470 -0.4459
 6125TIP3    H139790   6.547   6.681   1.601  1.0123  0.0497  0.3518
 6125TIP3    H239791   6.623   6.562   1.547  0.2718 -0.1257 -0.3054
 6126TIP3   OH239792   0.372   3.308  14.433  0.3271  0.0901  0.5647
 6126TIP3    H139793   0.449   3.324  14.487  0.7346 -0.5895  0.1846
 6126TIP3    H239794   0.405   3.303  14.343 -0.3323  1.1278  0.2453
 6127TIP3   OH239795   6.655   3.696  15.682  0.3578  0.2790  0.1139
 6127TIP3    H139796   6.589   3.730  15.743 -0.7521 -1.0611 -0.2928
 6127TIP3    H239797   6.729   3.671  15.737 -0.2197  0.0531  0.7934
 6128TIP3   OH239798   1.998   1.681   3.731  0.3347  0.1182 -0.2249
 6128TIP3    H139799   2.077   1.734   3.726  2.1034 -2.5364 -1.2263
 6128TIP3    H239800   1.987   1.664   3.825  2.5506 -1.7666 -0.2690
 6129TIP3   OH239801   3.572   4.054  13.527  0.0278  0.2175  0.0931
 6129TIP3    H139802   3.491   4.091  13.493 -0.2245  0.7962  1.3159
 6129TIP3    H239803   3.544   3.997  13.599  0.7252  0.5269  0.6028
 6130TIP3   OH239804   5.176   2.131  11.716 -0.2469 -0.2070 -0.4665
 6130TIP3    H139805   5.093   2.135  11.668 -0.5948 -0.4343  0.1071
 6130TIP3    H239806   5.239   2.101  11.651 -0.6555 -0.2282 -0.8617
 6131TIP3   OH239807   5.028   0.674   0.237  0.1913  0.3786  0.0504
 6131TIP3    H139808   5.050   0.647   0.326  0.5482  0.2334 -0.0820
 6131TIP3    H239809   5.094   0.740   0.215  1.0870 -0.7383 -0.6979
 6132TIP3   OH239810   0.958   6.381   4.947 -0.2296 -0.7043  0.2828
 6132TIP3    H139811   0.879   6.374   5.001 -1.2781  0.7628 -1.0060
 6132TIP3    H239812   1.021   6.426   5.004 -1.5215  1.3849  0.1268
 6133TIP3   OH239813   6.755   2.049   3.793  0.1249  0.4363 -0.0382
 6133TIP3    H139814   6.817   2.022   3.726  0.4656 -0.1716  0.5124
 6133TIP3    H239815   6.810   2.065   3.870 -0.3121  0.6906  0.2219
 6134TIP3   OH239816   1.309   6.757  11.939 -0.2719  0.0599 -0.7977
 6134TIP3    H139817   1.390   6.806  11.951  0.6271 -1.4531 -0.5594
 6134TIP3    H239818   1.338   6.668  11.918 -1.8695 -0.5199 -0.5946
 6135TIP3   OH239819   4.120   3.985   5.993 -0.3681  0.0009  0.2448
 6135TIP3    H139820   4.128   3.933   6.073 -0.0935 -2.1194 -1.1305
 6135TIP3    H239821   4.025   3.991   5.978 -0.3412 -2.6689 -1.2017
 6136TIP3   OH239822   2.222   4.904  16.687  0.1248 -0.3589  0.1164
 6136TIP3    H139823   2.249   4.987  16.647  1.1487 -0.4939  0.5054
 6136TIP3    H239824   2.286   4.889  16.757 -0.3440 -1.2292  0.3694
 6137TIP3   OH239825   6.541   3.438   1.642  0.2451 -0.2064  0.1729
 6137TIP3    H139826   6.609   3.418   1.707  0.2744  1.3388  0.6297
 6137TIP3    H239827   6.568   3.390   1.564  2.1736  0.8278  0.1663
 6138TIP3   OH239828   1.942   2.919   1.119  0.5642  0.1537  0.1200
 6138TIP3    H139829   1.922   2.902   1.211 -0.3141 -0.1862 -0.1280
 6138TIP3    H239830   1.864   2.963   1.086  0.3887 -0.8195 -0.7706
 6139TIP3   OH239831   2.522   3.685  12.887  0.0692  1.1625  0.2066
 6139TIP3    H139832   2.547   3.674  12.979 -0.0589 -0.1417  0.0817
 6139TIP3    H239833   2.593   3.645  12.837 -1.6778 -1.5479 -0.1738
 6140TIP3   OH239834   1.531   3.668   4.763 -0.6300 -0.3905 -0.5579
 6140TIP3    H139835   1.577   3.665   4.679 -1.3221  0.2272 -0.9645
 6140TIP3    H239836   1.517   3.761   4.779 -1.9083 -0.5688 -0.5444
 6141TIP3   OH239837   2.446   1.228  16.611 -0.7670 -0.4330 -0.2119
 6141TIP3    H139838   2.509   1.291  16.577  0.6113 -2.1937 -0.9807
 6141TIP3    H239839   2.441   1.246  16.705  1.7121 -0.9550  0.0560
 6142TIP3   OH239840   3.061   6.017  12.310  0.6676 -0.2032  0.7349
 6142TIP3    H139841   3.003   5.958  12.359  0.8481 -2.1122 -1.2455
 6142TIP3    H239842   3.042   6.104  12.345 -1.6803 -1.0924  1.7896
 6143TIP3   OH239843   1.112   6.482  16.876  0.3594  0.3355  0.2566
 6143TIP3    H139844   1.099   6.442  16.790  0.5307  1.0170 -0.0918
 6143TIP3    H239845   1.188   6.436  16.913 -0.2694 -0.5831  0.4363
 6144TIP3   OH239846   2.819   2.442   3.060 -0.6502  0.2688 -0.2550
 6144TIP3    H139847   2.808   2.525   3.106 -0.2259 -0.1012  0.5282
 6144TIP3    H239848   2.762   2.449   2.984 -1.7467  0.7129  0.5888
 6145TIP3   OH239849   2.270   2.299  11.508  0.5877  0.3740 -0.1320
 6145TIP3    H139850   2.338   2.296  11.440 -0.1203 -1.3661 -0.8065
 6145TIP3    H239851   2.211   2.227  11.485 -0.8094  1.0917  1.1509
 6146TIP3   OH239852   1.642   0.610  12.620 -0.2664 -0.3657 -0.1429
 6146TIP3    H139853   1.563   0.601  12.567  1.2450 -0.8298 -2.4072
 6146TIP3    H239854   1.663   0.520  12.645  0.8497 -0.5442 -1.6022
 6147TIP3   OH239855   4.510   0.087  13.425  0.4258 -0.3077 -0.4571
 6147TIP3    H139856   4.589   0.044  13.393  0.0252 -0.2159 -1.5724
 6147TIP3    H239857   4.524   0.180  13.405 -0.5605 -0.4618 -1.9137
 6148TIP3   OH239858   1.907   3.937  11.964  0.4010 -0.1415 -0.2194
 6148TIP3    H139859   1.966   3.896  12.027  0.4112 -0.4511 -0.4315
 6148TIP3    H239860   1.827   3.953  12.014  1.1888  1.7387  0.5196
 6149TIP3   OH239861   5.465   4.478  11.648 -0.0329 -0.6035 -0.3588
 6149TIP3    H139862   5.535   4.513  11.703 -0.0261 -2.4243  0.8209
 6149TIP3    H239863   5.386   4.523  11.678  0.1800 -0.6341  0.2532
 6150TIP3   OH239864   4.418   3.755   2.867 -0.0267  0.1780 -0.6453
 6150TIP3    H139865   4.356   3.701   2.818  0.1457 -1.2188  0.6623
 6150TIP3    H239866   4.476   3.792   2.800 -1.5973  0.6493 -1.7698
 6151TIP3   OH239867   2.521   2.606  15.005 -0.1213 -0.1358  0.3842
 6151TIP3    H139868   2.535   2.625  14.913 -3.3779  0.6143  0.0032
 6151TIP3    H239869   2.520   2.692  15.048  2.3584 -0.5182  1.3325
 6152TIP3   OH239870   4.623   0.327   4.582  0.6156  0.0640  0.4709
 6152TIP3    H139871   4.651   0.413   4.611  0.2220  0.4950 -0.3968
 6152TIP3    H239872   4.642   0.269   4.655  0.5925  0.9445  1.1765
 6153TIP3   OH239873   1.276   5.155   4.708 -0.0662 -0.3081 -0.0481
 6153TIP3    H139874   1.221   5.233   4.704  0.2732 -0.0106  0.8290
 6153TIP3    H239875   1.215   5.082   4.719 -0.3238 -0.0442  0.2700
 6154TIP3   OH239876   2.504   1.784  11.213  0.1217 -0.3918 -0.2029
 6154TIP3    H139877   2.494   1.750  11.123  1.6747 -0.4419 -0.3641
 6154TIP3    H239878   2.477   1.711  11.269  2.1098 -1.4473 -0.5803
 6155TIP3   OH239879   4.396   3.482   3.454 -0.0900  0.2665 -0.1367
 6155TIP3    H139880   4.309   3.496   3.492  0.8523 -0.0335  2.1969
 6155TIP3    H239881   4.403   3.387   3.445 -0.9495  0.3952 -2.7167
 6156TIP3   OH239882   0.278   2.235  15.132 -0.0912  0.2671  0.3110
 6156TIP3    H139883   0.237   2.160  15.090  1.0045 -0.1519 -0.0413
 6156TIP3    H239884   0.348   2.260  15.071  0.4159  0.7177  1.0769
 6157TIP3   OH239885   5.488   6.770  13.441  0.0690 -0.0183 -0.4229
 6157TIP3    H139886   5.516   6.793  13.530 -1.5407  0.6199 -0.0715
 6157TIP3    H239887   5.564   6.790  13.387  0.9803 -0.1678  0.7779
 6158TIP3   OH239888   1.225   1.924  14.663 -0.1974  0.0711  0.2552
 6158TIP3    H139889   1.165   1.999  14.669  1.0164  1.1798 -1.0733
 6158TIP3    H239890   1.291   1.941  14.730 -1.6899 -1.5042  2.2020
 6159TIP3   OH239891   6.232   6.157  11.948  0.2062  0.0341  0.1992
 6159TIP3    H139892   6.228   6.232  11.889  0.4786 -0.6875 -0.7487
 6159TIP3    H239893   6.289   6.186  12.020 -0.9531  1.2620  0.6323
 6160TIP3   OH239894   5.449   6.785   5.634  0.8899  0.2072  0.1171
 6160TIP3    H139895   5.428   6.734   5.712 -0.9842  1.3358  0.3824
 6160TIP3    H239896   5.541   6.764   5.615  0.6532 -1.8966  1.2210
 6161TIP3   OH239897   0.583   1.859   2.689 -0.2378 -0.3023  0.1068
 6161TIP3    H139898   0.552   1.923   2.753 -1.4361 -1.0410  0.2761
 6161TIP3    H239899   0.577   1.904   2.605  0.7234  0.4494  0.4247
 6162TIP3   OH239900   5.092   1.845   0.498 -0.9645 -0.6215  0.1838
 6162TIP3    H139901   5.118   1.785   0.428  3.6472  1.6055 -0.1971
 6162TIP3    H239902   5.038   1.910   0.454 -1.0891 -1.2420 -0.5927
 6163TIP3   OH239903   1.794   1.809   2.477  0.4273  1.3240 -0.0091
 6163TIP3    H139904   1.878   1.784   2.438  0.1482  0.6642 -0.1977
 6163TIP3    H239905   1.803   1.785   2.569  0.7622  2.0628  0.1557
 6164TIP3   OH239906   3.928   3.903  13.060 -0.3719 -0.3340  0.1186
 6164TIP3    H139907   3.946   3.824  13.112  0.4653 -0.3112 -0.1322
 6164TIP3    H239908   3.954   3.879  12.971 -1.5977 -0.2951 -0.2473
 6165TIP3   OH239909   6.572   1.967   5.216 -0.1315 -0.2330 -0.3855
 6165TIP3    H139910   6.598   2.008   5.299  0.2224  0.1438 -0.6743
 6165TIP3    H239911   6.558   2.041   5.156 -1.7503 -0.4392 -0.2835
 6166TIP3   OH239912   0.861   4.631   3.586 -0.4209 -0.8831  0.3857
 6166TIP3    H139913   0.852   4.576   3.665  2.4750 -0.0545  1.3558
 6166TIP3    H239914   0.801   4.704   3.601  0.0949 -0.7394  1.8305
 6167TIP3   OH239915   4.702   5.443   5.724  0.4645  0.2575  0.0445
 6167TIP3    H139916   4.641   5.499   5.772  0.0641 -1.0617  1.1247
 6167TIP3    H239917   4.773   5.427   5.786  0.4470 -0.6206 -0.1493
 6168TIP3   OH239918   5.525   6.726   2.825 -0.0970 -0.0253  0.0179
 6168TIP3    H139919   5.527   6.739   2.730 -2.1119  0.2445 -0.0081
 6168TIP3    H239920   5.438   6.756   2.851  0.3374 -0.3766  1.9170
 6169TIP3   OH239921   5.120   2.374   0.046  0.3460 -0.2891 -0.0429
 6169TIP3    H139922   5.149   2.323  -0.029 -1.0161 -1.1622  0.0067
 6169TIP3    H239923   5.064   2.315   0.096  0.2274  0.6723  0.9907
 6170TIP3   OH239924   1.811   5.108   0.167 -0.0625  0.6521  0.0361
 6170TIP3    H139925   1.794   5.141   0.256  0.3814  1.0181 -0.0090
 6170TIP3    H239926   1.781   5.178   0.110  0.2933  0.7086 -0.0814
 6171TIP3   OH239927   1.112   3.179   3.632  0.3425  0.3853 -0.3393
 6171TIP3    H139928   1.053   3.105   3.618 -0.5447  0.9208  0.5194
 6171TIP3    H239929   1.200   3.141   3.625 -0.1069 -0.8921  0.8315
 6172TIP3   OH239930   6.458   4.159   5.436 -0.2102  0.4677 -0.4765
 6172TIP3    H139931   6.449   4.254   5.424  2.0446  0.9202  1.0866
 6172TIP3    H239932   6.543   4.138   5.398  0.4035 -0.4820  1.3259
 6173TIP3   OH239933   1.084   4.719  11.633  0.4596 -0.1995  0.0177
 6173TIP3    H139934   0.991   4.738  11.635  0.1429 -1.6885 -0.6510
 6173TIP3    H239935   1.114   4.741  11.722 -0.8402 -1.3504  0.7474
 6174TIP3   OH239936   6.367   3.260  12.659  0.0675 -0.0866  0.4654
 6174TIP3    H139937   6.350   3.324  12.729  0.4409  1.2709 -0.6743
 6174TIP3    H239938   6.386   3.313  12.582  1.9220 -1.5858 -0.1334
 6175TIP3   OH239939   2.114   0.752   5.093 -0.3370  0.7341 -0.1818
 6175TIP3    H139940   2.192   0.751   5.036 -0.1471 -0.3387  0.0851
 6175TIP3    H239941   2.134   0.818   5.159  0.2313  0.6718 -0.2862
 6176TIP3   OH239942   2.137   3.847  10.474  0.2654 -0.2050  0.0256
 6176TIP3    H139943   2.174   3.838  10.386 -0.4307 -1.3699 -0.1578
 6176TIP3    H239944   2.181   3.780  10.526 -0.5721 -0.6778  0.1358
 6177TIP3   OH239945   3.085   5.182  16.020  0.1499  0.7287  0.1067
 6177TIP3    H139946   3.022   5.245  15.985  2.1608  2.8961  0.2572
 6177TIP3    H239947   3.043   5.097  16.007 -2.7127  2.0843  0.0769
 6178TIP3   OH239948   0.517   4.130   1.902  0.6554  0.1406  0.1475
 6178TIP3    H139949   0.578   4.203   1.896 -0.2525  0.8730 -0.4240
 6178TIP3    H239950   0.458   4.142   1.827  0.7161 -1.3889 -0.1844
 6179TIP3   OH239951   2.957   1.523  13.683 -0.3676 -0.3496 -0.5406
 6179TIP3    H139952   2.893   1.467  13.727  0.0247 -0.6556 -0.3569
 6179TIP3    H239953   3.027   1.463  13.657 -0.2738 -0.0568 -0.9686
 6180TIP3   OH239954   4.338   5.742  13.238  0.0366 -0.2938  0.2324
 6180TIP3    H139955   4.247   5.738  13.267 -0.0656  0.0872 -0.0302
 6180TIP3    H239956   4.333   5.775  13.148  0.4120 -0.5952  0.0986
 6181TIP3   OH239957   1.435   5.009  13.064 -0.1809  0.7440  0.5389
 6181TIP3    H139958   1.482   5.048  12.990 -0.3156 -1.6457 -0.8521
 6181TIP3    H239959   1.487   5.034  13.140  0.5295  2.3847 -0.4553
 6182TIP3   OH239960   4.900   2.415  16.881  0.2166  0.1559 -0.5112
 6182TIP3    H139961   4.836   2.456  16.939 -0.7464 -0.4633 -1.1149
 6182TIP3    H239962   4.979   2.467  16.891  0.4322 -0.6550  2.2681
 6183TIP3   OH239963   6.513   1.221  14.373 -0.7785  0.3293 -0.3411
 6183TIP3    H139964   6.503   1.306  14.330  0.2952  0.5709 -0.1202
 6183TIP3    H239965   6.442   1.168  14.337 -0.7363  0.9531 -1.3632
 6184TIP3   OH239966   0.899   5.310   1.893 -0.1866 -0.1177  0.1206
 6184TIP3    H139967   0.861   5.369   1.827  1.8686  1.1977  0.0684
 6184TIP3    H239968   0.851   5.228   1.882  0.1290  0.0609 -3.0590
 6185TIP3   OH239969   3.565   3.874  13.753 -0.0199 -0.4660  0.0463
 6185TIP3    H139970   3.525   3.826  13.680 -1.4622  1.3745 -0.3951
 6185TIP3    H239971   3.549   3.819  13.829 -2.4347 -0.2875 -0.3093
 6186TIP3   OH239972   6.435   3.240  16.762  0.5979  0.3294 -0.4453
 6186TIP3    H139973   6.474   3.325  16.786  0.3657  0.3694 -0.2140
 6186TIP3    H239974   6.405   3.203  16.845 -0.1037  0.4155 -0.6582
 6187TIP3   OH239975   4.353   4.394   3.211  0.2123  0.5494 -0.2179
 6187TIP3    H139976   4.415   4.369   3.142  0.2013  2.4630 -0.9516
 6187TIP3    H239977   4.273   4.345   3.191  0.3546  0.7561 -1.3101
 6188TIP3   OH239978   2.280   3.095   3.362  0.4847  0.4484 -0.3919
 6188TIP3    H139979   2.236   3.157   3.304  0.2834  0.5663 -0.1126
 6188TIP3    H239980   2.235   3.012   3.346  0.7279  0.3796 -0.7364
 6189TIP3   OH239981   4.734   2.545   0.705  0.1586  0.7332  0.2913
 6189TIP3    H139982   4.796   2.538   0.777  1.2213  2.9271 -0.3538
 6189TIP3    H239983   4.649   2.526   0.745  0.8303  1.0448  1.9336
 6190TIP3   OH239984   4.260   3.443  10.955 -0.3802  0.0900  0.1354
 6190TIP3    H139985   4.316   3.413  10.883 -1.0484 -0.7280 -0.0597
 6190TIP3    H239986   4.191   3.493  10.911 -1.2302 -1.0670  0.1054
 6191TIP3   OH239987   4.087   5.651   0.156  0.3865 -0.5755 -0.7580
 6191TIP3    H139988   4.125   5.707   0.088  0.8465  0.5812  0.4363
 6191TIP3    H239989   4.161   5.631   0.214 -0.4060  0.0858  0.5051
 6192TIP3   OH239990   5.337   2.767  14.317 -0.6998  0.2337 -0.3157
 6192TIP3    H139991   5.354   2.684  14.360 -1.0052  0.1488 -0.3547
 6192TIP3    H239992   5.308   2.743  14.229  1.3472  0.4488 -1.0626
 6193TIP3   OH239993   1.166   0.985   0.644  0.3588  0.0384  0.3539
 6193TIP3    H139994   1.225   0.912   0.626  0.2775  0.0927 -0.1237
 6193TIP3    H239995   1.092   0.945   0.689 -1.0546 -0.6352 -2.4851
 6194TIP3   OH239996   1.126   1.236   0.787  0.1627 -0.1068 -0.5216
 6194TIP3    H139997   1.141   1.293   0.711 -0.8420 -0.3716 -0.9257
 6194TIP3    H239998   1.140   1.148   0.754  1.8418 -0.1005  0.1387
 6195TIP3   OH239999   2.504   6.367  11.020  0.0606 -0.0316  0.7154
 6195TIP3    H140000   2.564   6.394  10.950 -1.1568 -0.9576 -0.7228
 6195TIP3    H240001   2.521   6.273  11.031 -1.1354 -0.3100  0.2610
 6196TIP3   OH240002   1.283   3.063   0.968 -0.2869 -0.1682 -0.2111
 6196TIP3    H140003   1.310   2.980   0.928 -0.3491  0.6975 -2.0878
 6196TIP3    H240004   1.192   3.073   0.943  0.0343  1.0052 -0.9308
 6197TIP3   OH240005   4.327   4.746  16.405 -0.2511  0.0361 -0.8826
 6197TIP3    H140006   4.257   4.729  16.343 -0.2917  0.8819 -1.0810
 6197TIP3    H240007   4.304   4.830  16.445  0.0545 -0.2384 -0.1183
 6198TIP3   OH240008   1.619   5.877   2.194 -0.0549 -0.2317 -0.3835
 6198TIP3    H140009   1.639   5.957   2.147 -0.5720 -0.4497 -0.9733
 6198TIP3    H240010   1.524   5.876   2.202  0.1257  0.7613  2.3670
 6199TIP3   OH240011   6.445   6.134   3.591  0.1582  0.2752  0.2953
 6199TIP3    H140012   6.432   6.216   3.639  1.7675  0.9136 -0.3296
 6199TIP3    H240013   6.428   6.065   3.655  0.7622  1.1113  1.3648
 6200TIP3   OH240014   6.437   0.006  14.294  0.5109 -0.0332 -0.1838
 6200TIP3    H140015   6.383  -0.030  14.224 -2.3385  1.7355  1.0134
 6200TIP3    H240016   6.470   0.089  14.258  1.0676 -0.3203 -0.3285
 6201TIP3   OH240017   2.897   6.737  15.539  0.0096  0.0894 -0.1575
 6201TIP3    H140018   2.970   6.700  15.489  0.7601  1.6249 -0.2082
 6201TIP3    H240019   2.821   6.687  15.510  1.1683 -2.1765  0.5997
 6202TIP3   OH240020   0.199   0.721   2.129  0.4574 -0.3850  0.0242
 6202TIP3    H140021   0.129   0.699   2.068 -0.1036 -2.1090  1.2828
 6202TIP3    H240022   0.274   0.670   2.099  1.5997  2.3531 -2.0487
 6203TIP3   OH240023   1.798   4.484  15.462 -0.0663  0.6992  0.6489
 6203TIP3    H140024   1.768   4.568  15.427 -1.6706  0.2142  0.8221
 6203TIP3    H240025   1.808   4.499  15.556  1.9894  1.3587  0.3333
 6204TIP3   OH240026   5.408   1.275  12.548 -0.2084 -0.1951  0.0586
 6204TIP3    H140027   5.430   1.331  12.623 -0.5313  0.0969 -0.0641
 6204TIP3    H240028   5.357   1.331  12.490 -0.2501 -0.5224 -0.2220
 6205TIP3   OH240029   2.487   2.511   1.771 -0.1387 -0.0874  0.3427
 6205TIP3    H140030   2.441   2.427   1.773 -0.3174  0.0104  0.3750
 6205TIP3    H240031   2.576   2.491   1.797  0.0309 -0.4087 -0.4759
 6206TIP3   OH240032   1.285   6.390   2.289 -0.0585  0.0109  0.2262
 6206TIP3    H140033   1.238   6.307   2.280  0.8255 -0.2420 -2.3534
 6206TIP3    H240034   1.217   6.457   2.283 -0.5390 -0.4456  0.4731
 6207TIP3   OH240035   5.059   0.894   4.754 -0.6409 -0.3317  0.0404
 6207TIP3    H140036   5.097   0.824   4.808 -1.6299 -1.3302 -0.5217
 6207TIP3    H240037   5.098   0.880   4.668  0.1152  0.6008  0.2217
 6208TIP3   OH240038   5.428   6.426  15.924  0.2617  0.3309  0.5213
 6208TIP3    H140039   5.337   6.422  15.893 -0.4164  0.6094  2.4064
 6208TIP3    H240040   5.480   6.390  15.852 -1.5377 -1.8328  0.2693
 6209TIP3   OH240041   3.906   2.575  11.571 -0.0711 -0.5771  0.3647
 6209TIP3    H140042   3.930   2.516  11.642  0.4697  1.7390  2.1497
 6209TIP3    H240043   3.818   2.606  11.594 -0.0798 -0.1534 -0.2281
 6210TIP3   OH240044   5.563   5.188   1.012  0.7661 -0.5572  0.6417
 6210TIP3    H140045   5.505   5.196   0.937  0.7626 -3.0861  0.3167
 6210TIP3    H240046   5.603   5.101   1.003  2.7040  0.1190  2.1929
 6211TIP3   OH240047   4.972   2.656   3.179 -0.2308 -0.2005 -0.3188
 6211TIP3    H140048   5.050   2.638   3.231 -1.9006 -1.7525  1.7448
 6211TIP3    H240049   5.001   2.720   3.114  2.5946 -0.2816  0.7766
 6212TIP3   OH240050   6.518   6.075  11.614 -0.2220 -0.0844  0.0343
 6212TIP3    H140051   6.500   5.989  11.651 -0.8191 -0.8526 -1.9448
 6212TIP3    H240052   6.553   6.057  11.527 -1.6589  1.6737 -0.9627
 6213TIP3   OH240053   6.491   1.795   2.032  0.1116  0.0637  0.2810
 6213TIP3    H140054   6.483   1.845   1.951  1.9309 -0.9709 -0.5510
 6213TIP3    H240055   6.421   1.731   2.028  0.1357  0.0822 -0.4217
 6214TIP3   OH240056   5.507   4.857   6.632 -0.8441 -0.0515  0.0677
 6214TIP3    H140057   5.452   4.887   6.560 -1.0867 -0.2031  0.1914
 6214TIP3    H240058   5.586   4.825   6.590 -0.5168  0.8993 -0.0650
 6215TIP3   OH240059   4.832   3.056   3.732 -0.4758  0.7562  0.7348
 6215TIP3    H140060   4.777   3.087   3.660  1.0981  0.6132 -0.5619
 6215TIP3    H240061   4.773   3.050   3.807 -2.0274  1.4189 -0.4132
 6216TIP3   OH240062   1.850   5.520   5.420 -0.0245  0.2953  0.2075
 6216TIP3    H140063   1.781   5.539   5.483 -1.1565 -0.8757 -0.6323
 6216TIP3    H240064   1.894   5.603   5.406 -1.8987  1.2911  0.0391
 6217TIP3   OH240065   0.169   6.121  11.734 -0.6664  0.1445  0.2682
 6217TIP3    H140066   0.173   6.211  11.767  1.8375 -1.1358  3.7112
 6217TIP3    H240067   0.127   6.072  11.805 -2.2415 -1.4147 -1.6753
 6218TIP3   OH240068   2.504   0.688  12.030  0.3913 -0.6139 -0.2617
 6218TIP3    H140069   2.596   0.682  12.056  0.8455  0.6386 -1.5063
 6218TIP3    H240070   2.504   0.750  11.957 -1.1842 -2.0350 -1.5075
 6219TIP3   OH240071   1.617   4.556  14.782  0.3957  0.6895 -0.2273
 6219TIP3    H140072   1.675   4.564  14.707  0.3907  3.7387  0.0569
 6219TIP3    H240073   1.667   4.590  14.856 -0.5601  0.2454  0.6545
 6220TIP3   OH240074   5.807   0.476   5.022  0.1282  0.6735  0.4246
 6220TIP3    H140075   5.723   0.458   4.979 -0.4009 -1.2157  2.1804
 6220TIP3    H240076   5.866   0.411   4.986  0.4361  0.9728  0.3878
 6221TIP3   OH240077   1.531   0.616   0.146 -0.5969  0.3896  0.0673
 6221TIP3    H140078   1.457   0.598   0.204 -0.8188  0.5050 -0.1770
 6221TIP3    H240079   1.504   0.582   0.061  0.1489 -0.7253  0.2618
 6222TIP3   OH240080   0.553   3.196   1.885 -0.3355  0.0451 -0.0359
 6222TIP3    H140081   0.613   3.136   1.841 -1.2293 -0.5050 -0.5231
 6222TIP3    H240082   0.605   3.274   1.902 -0.1541  0.5715 -2.7796
 6223TIP3   OH240083   0.798   6.310   5.831  0.4611 -0.1057 -0.2400
 6223TIP3    H140084   0.739   6.346   5.898  1.0594  0.4336  0.0049
 6223TIP3    H240085   0.799   6.216   5.848  0.0914 -0.0535  0.0890
 6224TIP3   OH240086   3.332   2.838  10.937 -0.2304  0.0746  0.2271
 6224TIP3    H140087   3.294   2.801  10.858 -1.1026  1.0716  0.1697
 6224TIP3    H240088   3.426   2.840  10.920 -0.4430  0.6134 -0.9262
 6225TIP3   OH240089   4.994   0.776   2.130 -0.0404 -0.4538  0.0457
 6225TIP3    H140090   5.059   0.713   2.160 -0.6918 -0.4152  1.5833
 6225TIP3    H240091   4.960   0.738   2.049 -0.0805 -1.8319  0.6955
 6226TIP3   OH240092   0.025   3.054  16.923  0.3047 -0.5378  0.5957
 6226TIP3    H140093   0.056   2.964  16.910  3.6590  0.5804  0.3062
 6226TIP3    H240094   0.029   3.067  17.018  2.4059  0.1368  0.4333
 6227TIP3   OH240095   4.061   3.974   0.817 -0.3487 -0.3286  0.1435
 6227TIP3    H140096   4.104   4.044   0.768 -1.8435  2.7507  3.0488
 6227TIP3    H240097   3.976   3.963   0.775 -0.8996  1.0269  0.8812
 6228TIP3   OH240098   4.862   4.984   3.805 -0.5534  0.5971 -0.1846
 6228TIP3    H140099   4.775   4.945   3.807  1.5045 -4.4197 -0.6036
 6228TIP3    H240100   4.861   5.042   3.729 -3.1305 -0.4330 -0.9756
 6229TIP3   OH240101   3.751   2.819   5.970  0.2746 -0.2291  0.5264
 6229TIP3    H140102   3.777   2.900   6.014  0.9984 -0.6952  0.9543
 6229TIP3    H240103   3.809   2.814   5.894  0.0044 -0.1793  0.3142
 6230TIP3   OH240104   3.621   4.802  11.803 -0.7383 -0.4624  0.4800
 6230TIP3    H140105   3.624   4.821  11.897 -0.8182 -1.2710  0.6490
 6230TIP3    H240106   3.530   4.781  11.785 -0.6937 -0.4661  0.2570
 6231TIP3   OH240107   1.267   1.321   5.276 -0.3332 -0.0775 -0.4621
 6231TIP3    H140108   1.329   1.323   5.349 -1.8379  0.6613  0.8371
 6231TIP3    H240109   1.306   1.377   5.209  0.3152  0.5200  0.4092
 6232TIP3   OH240110   1.938   5.443  12.471  0.3762  0.5643  0.0154
 6232TIP3    H140111   1.880   5.439  12.547  1.2187  1.5602  0.7367
 6232TIP3    H240112   1.943   5.353  12.439  0.8768 -0.0707  1.8128
 6233TIP3   OH240113   0.954   3.773  13.389 -0.3050  0.3611 -0.4198
 6233TIP3    H140114   0.974   3.684  13.361  0.0057 -0.4527  2.2195
 6233TIP3    H240115   0.861   3.784  13.370 -0.6983 -1.0734  0.5607
 6234TIP3   OH240116   4.559   4.915   6.205  0.0762  0.1476 -0.4713
 6234TIP3    H140117   4.587   4.895   6.294  0.8066  2.3635 -0.1780
 6234TIP3    H240118   4.464   4.905   6.207  0.0021  0.9483  0.7892
 6235TIP3   OH240119   5.071   6.556  14.297 -0.2521 -0.2599  0.0257
 6235TIP3    H140120   5.146   6.594  14.343 -0.6917 -0.1030  0.5989
 6235TIP3    H240121   5.002   6.621  14.305 -0.3062 -0.1910 -0.9242
 6236TIP3   OH240122   6.353   6.544  14.553 -0.0004 -0.3384 -0.3954
 6236TIP3    H140123   6.281   6.482  14.563  0.0233 -0.3477 -0.2800
 6236TIP3    H240124   6.407   6.507  14.482  0.7417 -1.1527  0.5655
 6237TIP3   OH240125   5.649   1.100  15.730  0.3321 -0.0190 -0.3244
 6237TIP3    H140126   5.709   1.160  15.775 -0.3184 -0.4123  1.0944
 6237TIP3    H240127   5.568   1.150  15.721  0.7322  0.3619 -1.8538
 6238TIP3   OH240128   5.366   5.375  13.178  0.0560  0.1756  0.2365
 6238TIP3    H140129   5.291   5.367  13.119 -0.4733 -2.5963  1.2029
 6238TIP3    H240130   5.442   5.356  13.123 -0.3672 -1.5809  0.2197
 6239TIP3   OH240131   5.454   2.444  15.028  0.1421  0.1978 -0.2612
 6239TIP3    H140132   5.363   2.474  15.025  0.7178  2.0043 -0.1540
 6239TIP3    H240133   5.469   2.423  15.120 -0.0509  0.2480 -0.2188
 6240TIP3   OH240134   1.786   3.567  14.945  0.5622 -0.0103  0.4868
 6240TIP3    H140135   1.801   3.658  14.970 -0.2516  0.8454 -1.9349
 6240TIP3    H240136   1.698   3.567  14.908  1.2234 -1.4057 -1.1394
 6241TIP3   OH240137   0.248   3.267  12.039 -0.2865 -0.0996 -0.1991
 6241TIP3    H140138   0.235   3.362  12.046 -1.4755 -0.1824 -1.1448
 6241TIP3    H240139   0.160   3.230  12.041  0.0832 -1.0819 -1.3982
 6242TIP3   OH240140   5.534   3.258  15.809 -0.3414  0.5395  0.1837
 6242TIP3    H140141   5.525   3.336  15.755 -0.0556  1.3802  1.3337
 6242TIP3    H240142   5.444   3.225  15.818 -0.2932 -0.0574 -1.4464
 6243TIP3   OH240143   6.564   6.082   3.901  0.0999 -0.6133  0.6159
 6243TIP3    H140144   6.520   6.023   3.839  0.4615 -1.0004  0.7220
 6243TIP3    H240145   6.508   6.081   3.978  0.7852 -1.8546  1.1026
 6244TIP3   OH240146   6.156   0.725  14.907  0.6607 -0.0859  0.0919
 6244TIP3    H140147   6.175   0.637  14.941 -0.3569 -0.9017 -1.3528
 6244TIP3    H240148   6.192   0.785  14.972  1.7350 -1.5797  0.9035
 6245TIP3   OH240149   4.140   1.851   1.435  0.4749  0.0519  0.0895
 6245TIP3    H140150   4.230   1.817   1.431  0.7414  0.5624  1.7181
 6245TIP3    H240151   4.134   1.893   1.520 -1.1128  0.6190 -0.2968
 6246TIP3   OH240152   4.494   4.020  12.315 -0.6365 -0.3345  0.1426
 6246TIP3    H140153   4.564   3.958  12.336  0.2774  1.0663  1.3536
 6246TIP3    H240154   4.506   4.091  12.378 -3.7145 -0.4860  0.9704
 6247TIP3   OH240155   1.696   2.606   0.444  0.5797  0.1450  0.4660
 6247TIP3    H140156   1.757   2.660   0.494  0.0375  0.1590  1.1165
 6247TIP3    H240157   1.638   2.568   0.510  0.9963 -1.2759  0.0280
 6248TIP3   OH240158   1.029   2.107   4.474 -0.0977  0.3907 -0.3637
 6248TIP3    H140159   0.999   2.185   4.521 -1.3375 -0.7032  0.7087
 6248TIP3    H240160   0.986   2.034   4.519  0.0524 -0.8234 -2.1295
 6249TIP3   OH240161   0.731   3.581  16.292 -0.0947 -0.2218 -0.4351
 6249TIP3    H140162   0.702   3.672  16.301  0.2123 -0.1672  0.0711
 6249TIP3    H240163   0.819   3.587  16.253 -0.2332 -0.3213 -0.7650
 6250TIP3   OH240164   5.772   1.067  17.068 -0.1398 -0.6672 -0.7465
 6250TIP3    H140165   5.774   1.157  17.098  0.8447 -0.2085 -2.1593
 6250TIP3    H240166   5.858   1.031  17.093 -1.3041 -1.8630  1.7158
 6251TIP3   OH240167   4.175   3.279   5.366  0.3253  0.1559 -0.0331
 6251TIP3    H140168   4.207   3.249   5.281  0.8227  1.8807 -0.4691
 6251TIP3    H240169   4.111   3.347   5.345  0.7969  0.9226  0.9810
 6252TIP3   OH240170   2.655   6.499   3.512 -0.0902  0.0198 -0.0011
 6252TIP3    H140171   2.649   6.570   3.576 -0.4701 -0.1944  0.2002
 6252TIP3    H240172   2.745   6.504   3.480  0.1594  0.0046  0.6920
 6253TIP3   OH240173   0.638   6.601  13.962  0.5552 -0.1638  0.3612
 6253TIP3    H140174   0.579   6.676  13.966  1.8961  0.8713  1.3673
 6253TIP3    H240175   0.602   6.545  13.894 -0.7700  1.1411 -0.0302
 6254TIP3   OH240176   3.538   4.835   3.289 -0.3637 -0.8295 -0.6712
 6254TIP3    H140177   3.489   4.886   3.226 -3.1893 -2.2552  0.2919
 6254TIP3    H240178   3.494   4.750   3.290  0.9051 -1.4963  1.6841
 6255TIP3   OH240179   3.206   0.207  15.687  0.1917 -0.3311  0.5127
 6255TIP3    H140180   3.269   0.241  15.625 -0.1668  2.3953  1.5820
 6255TIP3    H240181   3.258   0.175  15.760  0.4185  0.7453  0.8325
 6256TIP3   OH240182   3.598   2.055   4.332  0.1532  0.1310  0.0179
 6256TIP3    H140183   3.587   2.127   4.395  1.0627  2.8975 -2.8854
 6256TIP3    H240184   3.509   2.027   4.312 -0.2540  1.1529  0.3555
 6257TIP3   OH240185   6.603   0.453  14.422  0.6009  0.4696  0.6948
 6257TIP3    H140186   6.591   0.423  14.332  1.6754 -0.2766  0.7979
 6257TIP3    H240187   6.542   0.401  14.473 -0.1176  0.9979  0.3875
 6258TIP3   OH240188   3.520   3.386   5.237  0.9220 -0.5825  0.4245
 6258TIP3    H140189   3.435   3.379   5.195  1.7483  0.0065 -1.3940
 6258TIP3    H240190   3.543   3.296   5.261  0.1807 -0.8448  0.1502
 6259TIP3   OH240191   2.100   5.116   0.208  0.2745 -0.9096 -0.2661
 6259TIP3    H140192   2.033   5.113   0.140 -0.1631 -0.6450  0.1515
 6259TIP3    H240193   2.183   5.110   0.160  0.0010  0.2949 -0.9146
 6260TIP3   OH240194   2.684   1.710  16.904  0.7088 -0.3253 -0.3445
 6260TIP3    H140195   2.700   1.804  16.903  1.3109 -0.4118  0.4759
 6260TIP3    H240196   2.641   1.692  16.821  0.4854  0.6923 -0.4526
 6261TIP3   OH240197   3.061   2.308   3.456  0.7742 -0.7066 -0.0992
 6261TIP3    H140198   3.110   2.362   3.395  0.5096 -2.1789 -1.6415
 6261TIP3    H240199   2.973   2.302   3.419 -0.1333  0.4795  1.7546
 6262TIP3   OH240200   2.766   1.745  13.931 -0.0638 -0.0971  0.4911
 6262TIP3    H140201   2.834   1.809  13.953  1.5490 -0.8441 -2.0451
 6262TIP3    H240202   2.798   1.663  13.968 -0.1864 -0.1968  0.3783
 6263TIP3   OH240203   4.828   2.269   2.959 -0.3181  0.0995  0.2763
 6263TIP3    H140204   4.882   2.242   3.033 -0.9137 -1.1969  0.2472
 6263TIP3    H240205   4.750   2.309   2.998  0.1865  1.0582  0.3238
 6264TIP3   OH240206   5.689   4.398  15.895  0.0754 -0.2988 -0.1786
 6264TIP3    H140207   5.678   4.303  15.899  1.8270 -0.5155  0.0327
 6264TIP3    H240208   5.603   4.433  15.920 -0.0450 -1.8193  1.7065
 6265TIP3   OH240209   3.192   1.919   3.408 -0.1287 -0.2490 -0.6597
 6265TIP3    H140210   3.210   1.997   3.462  1.6326 -1.0224 -0.1154
 6265TIP3    H240211   3.270   1.865   3.417 -0.6054 -1.2749 -2.4895
 6266TIP3   OH240212   1.674   0.617   5.672  0.5049 -0.3841 -0.1997
 6266TIP3    H140213   1.596   0.635   5.725  1.0039 -1.2292  0.8329
 6266TIP3    H240214   1.653   0.654   5.586 -0.5428  0.4800  0.4118
 6267TIP3   OH240215   1.373   3.950  15.488  0.3195  0.1563 -0.3230
 6267TIP3    H140216   1.446   3.996  15.446 -0.8141  2.4278  0.0938
 6267TIP3    H240217   1.373   3.981  15.578 -1.9966  1.2807 -0.6735
 6268TIP3   OH240218   1.708   5.091   2.644  0.0238 -0.2740 -0.0845
 6268TIP3    H140219   1.775   5.112   2.579 -1.3022  1.7589 -0.8232
 6268TIP3    H240220   1.755   5.091   2.727  0.5750  3.4623 -0.2997
 6269TIP3   OH240221   0.944   3.395  15.096  0.1500  0.0815 -0.3215
 6269TIP3    H140222   0.866   3.450  15.087 -1.0315 -0.6664  4.1077
 6269TIP3    H240223   1.000   3.442  15.157  0.7822 -1.8543  0.6471
 6270TIP3   OH240224   2.441   1.269  13.728 -0.7202 -0.2273 -0.3205
 6270TIP3    H140225   2.375   1.200  13.722 -0.9241 -0.3018  2.3975
 6270TIP3    H240226   2.524   1.223  13.740 -0.3135 -0.0875 -2.3770
 6271TIP3   OH240227   5.626   3.540  15.731  0.0288 -0.2779 -0.2763
 6271TIP3    H140228   5.672   3.623  15.740  0.7537 -0.7248  0.1911
 6271TIP3    H240229   5.542   3.553  15.775  1.5052 -0.8555  2.8345
 6272TIP3   OH240230   4.507   3.893  14.652 -0.0952  0.4197  0.3441
 6272TIP3    H140231   4.454   3.896  14.573 -0.1781 -1.4814  0.2982
 6272TIP3    H240232   4.533   3.801  14.660  0.7572  0.7789  1.9636
 6273TIP3   OH240233   5.064   4.894  13.975  0.1662 -0.5344  0.6789
 6273TIP3    H140234   5.083   4.988  13.970  0.9622 -0.5672  2.7178
 6273TIP3    H240235   4.984   4.883  13.923  0.5041  1.1307 -0.2399
 6274TIP3   OH240236   5.245   6.348   3.970 -0.1922  0.5987  0.9771
 6274TIP3    H140237   5.253   6.366   4.064  0.1624  1.9788  0.6991
 6274TIP3    H240238   5.271   6.256   3.960 -0.3833  0.4022  2.2439
 6275TIP3   OH240239   2.548   5.757   2.677  0.0482  0.0738 -0.5141
 6275TIP3    H140240   2.563   5.812   2.600  0.8349  1.6028  0.7061
 6275TIP3    H240241   2.454   5.739   2.675 -0.1795  1.2299 -1.1066
 6276TIP3   OH240242   0.533   0.380  10.092 -0.3392  0.5166  0.3809
 6276TIP3    H140243   0.615   0.428  10.084 -1.2987  2.2453  0.6030
 6276TIP3    H240244   0.483   0.429  10.157 -1.9783  0.1513 -0.5640
 6277TIP3   OH240245   3.244   1.271   5.776 -0.1632 -0.2777 -0.8353
 6277TIP3    H140246   3.160   1.280   5.820  1.2303  1.6470  1.5323
 6277TIP3    H240247   3.293   1.209   5.830  0.7720  0.4015 -0.8879
 6278TIP3   OH240248   4.268   6.703   5.718  0.5908  0.1036  0.1661
 6278TIP3    H140249   4.229   6.788   5.738  0.0719 -0.1197  0.1039
 6278TIP3    H240250   4.287   6.665   5.804  1.9721  0.8028  0.1863
 6279TIP3   OH240251   2.147   1.377   6.610 -0.0707  0.1501 -0.2444
 6279TIP3    H140252   2.228   1.420   6.583 -0.0458 -0.1230 -0.6061
 6279TIP3    H240253   2.133   1.308   6.545 -0.5031  0.0865 -0.0877
 6280TIP3   OH240254   4.833   5.876  16.452 -0.3534  0.0516  0.2377
 6280TIP3    H140255   4.820   5.782  16.438  0.1676  0.1312 -0.8049
 6280TIP3    H240256   4.918   5.895  16.411 -0.8754  1.1551 -0.3475
 6281TIP3   OH240257   5.225   1.072   0.883  0.3477  0.2599 -0.1976
 6281TIP3    H140258   5.176   1.063   0.802  1.3041 -0.1750 -0.7342
 6281TIP3    H240259   5.178   1.139   0.932 -0.8880 -0.2807 -0.6156
 6282TIP3   OH240260   4.946   1.171  13.160 -0.5864  0.0233 -0.1218
 6282TIP3    H140261   4.910   1.259  13.158 -2.5290 -0.7527 -0.6148
 6282TIP3    H240262   4.870   1.114  13.177  0.4587 -1.6277 -0.8235
 6283TIP3   OH240263   6.061   4.766   0.430  0.1454  0.1764  0.1151
 6283TIP3    H140264   6.126   4.829   0.399 -0.3925  0.0153 -1.3841
 6283TIP3    H240265   5.985   4.819   0.451 -0.1397  0.0917 -0.6795
 6284TIP3   OH240266   5.657   5.622  11.791 -0.3138  0.1650  0.2246
 6284TIP3    H140267   5.598   5.627  11.866  0.6519  0.8408  0.9600
 6284TIP3    H240268   5.600   5.629  11.714 -1.3477 -0.9088  0.8844
 6285TIP3   OH240269   0.773   5.069   1.957  0.3085  0.5399 -0.5331
 6285TIP3    H140270   0.710   5.025   1.901  0.6778  1.6364 -1.8247
 6285TIP3    H240271   0.724   5.090   2.037 -1.5353  3.1503 -2.3036
 6286TIP3   OH240272   3.849   1.841   1.138  0.0642 -0.1673  0.1566
 6286TIP3    H140273   3.853   1.935   1.156  0.0514 -0.4443  1.6998
 6286TIP3    H240274   3.873   1.800   1.221  1.9238 -1.5174 -1.0048
 6287TIP3   OH240275   2.137   5.739  12.483 -1.0217 -0.2407 -0.2867
 6287TIP3    H140276   2.072   5.731  12.413 -1.1442 -0.0001 -0.2035
 6287TIP3    H240277   2.166   5.830  12.478 -1.1470 -0.1795  0.0739
 6288TIP3   OH240278   3.136   2.364   1.378 -0.2498 -0.6294  0.1446
 6288TIP3    H140279   3.131   2.291   1.440  1.5958 -0.1596  0.8831
 6288TIP3    H240280   3.158   2.439   1.433 -1.9498  0.4763 -0.6274
 6289TIP3   OH240281   5.747   3.019  11.248  0.1071 -0.4654 -0.0250
 6289TIP3    H140282   5.673   2.961  11.230 -0.2550  0.6015 -2.1957
 6289TIP3    H240283   5.720   3.104  11.213  1.7768  0.2896  0.4586
 6290TIP3   OH240284   2.588   2.999  13.603 -0.5144  0.1887 -0.5388
 6290TIP3    H140285   2.546   3.086  13.603  1.7178  1.3246  1.6994
 6290TIP3    H240286   2.645   3.001  13.525 -0.1322  0.9265 -0.2534
 6291TIP3   OH240287   0.563   2.013   5.135  0.0507  0.0974  0.1606
 6291TIP3    H140288   0.581   1.926   5.098 -0.6032 -0.0621  0.2044
 6291TIP3    H240289   0.525   2.062   5.062 -0.2460  0.1204  0.3310
 6292TIP3   OH240290   0.185   4.014  13.702 -0.3542 -0.1262  0.0874
 6292TIP3    H140291   0.143   4.022  13.616  1.2846 -0.4457 -0.7516
 6292TIP3    H240292   0.137   3.942  13.744 -3.8613  2.6543  1.0814
 6293TIP3   OH240293   3.340   0.623  16.378  0.0654 -0.7392 -0.5229
 6293TIP3    H140294   3.349   0.711  16.415  0.4696 -1.0727  0.1652
 6293TIP3    H240295   3.391   0.567  16.435 -2.5287 -1.9023  0.7209
 6294TIP3   OH240296   0.535   4.089  12.095 -0.4741 -0.4601  0.4407
 6294TIP3    H140297   0.597   4.154  12.064 -2.2031  2.3147  2.6148
 6294TIP3    H240298   0.467   4.087  12.028 -0.2841 -0.2711  0.2404
 6295TIP3   OH240299   4.924   0.132   1.521  0.1681 -0.1547 -0.1709
 6295TIP3    H140300   4.999   0.185   1.492  0.3742 -0.6765 -0.5938
 6295TIP3    H240301   4.917   0.063   1.455  0.3278 -1.0629  0.7605
 6296TIP3   OH240302   4.573   5.256  16.973  0.3962  0.3191 -0.0458
 6296TIP3    H140303   4.607   5.321  16.911 -2.2724  0.9015 -0.9762
 6296TIP3    H240304   4.580   5.173  16.927 -1.8135  0.7809 -1.3154
 6297TIP3   OH240305   3.715   4.890   0.483  0.3716  0.0476 -0.3163
 6297TIP3    H140306   3.790   4.855   0.532  0.7778  0.3738 -0.7014
 6297TIP3    H240307   3.709   4.981   0.511  1.2054  0.4995 -1.5931
 6298TIP3   OH240308   1.310   6.673  13.098 -0.0845  0.1689 -0.1238
 6298TIP3    H140309   1.301   6.601  13.161  0.5283 -2.4393 -2.8685
 6298TIP3    H240310   1.248   6.651  13.028  0.7230  1.8904 -1.4064
 6299TIP3   OH240311   2.433   0.515  14.779 -0.3292  0.1633 -0.3016
 6299TIP3    H140312   2.452   0.556  14.695 -0.9336  3.1698  0.9852
 6299TIP3    H240313   2.517   0.513  14.825 -0.2057 -0.5539 -0.5378
 6300TIP3   OH240314   3.837   2.624  16.493 -0.3692 -0.1058 -0.3794
 6300TIP3    H140315   3.806   2.611  16.583  0.5211 -6.1930 -0.7397
 6300TIP3    H240316   3.757   2.632  16.442 -0.9747 -0.5168  0.4870
 6301TIP3   OH240317   3.138   3.765   3.182  0.4570  0.0525 -0.2252
 6301TIP3    H140318   3.132   3.820   3.104 -1.3599  1.4073  0.8371
 6301TIP3    H240319   3.191   3.690   3.154  1.1785  1.2963 -2.2909
 6302TIP3   OH240320   5.669   4.415   4.119 -0.5676 -0.7930 -0.0277
 6302TIP3    H140321   5.706   4.460   4.195 -1.0321 -0.8633  0.2424
 6302TIP3    H240322   5.604   4.475   4.085 -1.1363 -1.2243  0.2895
 6303TIP3   OH240323   3.609   1.692  11.674  0.0294 -0.4063 -0.2281
 6303TIP3    H140324   3.577   1.609  11.707 -0.6585  0.5331  1.5116
 6303TIP3    H240325   3.575   1.757  11.735  0.0130  1.2214 -1.9187
 6304TIP3   OH240326   5.557   5.011  12.418 -0.3591 -0.4827  0.0609
 6304TIP3    H140327   5.621   5.052  12.476 -0.9646  0.3788  0.1383
 6304TIP3    H240328   5.586   4.920  12.410  0.5446 -0.2404  0.5483
 6305TIP3   OH240329   4.707   5.783   3.048  0.1190  0.6839  0.3543
 6305TIP3    H140330   4.639   5.716   3.048 -0.0708  0.8617 -1.1211
 6305TIP3    H240331   4.708   5.816   2.958  0.9399  1.9141  0.8072
 6306TIP3   OH240332   5.609   3.456  16.362 -0.2619 -0.7592 -0.0506
 6306TIP3    H140333   5.558   3.496  16.291  0.4211 -0.4603 -0.3710
 6306TIP3    H240334   5.552   3.463  16.439 -0.0370  1.0909 -0.0420
 6307TIP3   OH240335   6.250   5.236  16.501  0.0105  0.1386 -0.3042
 6307TIP3    H140336   6.162   5.259  16.472 -0.8714 -4.3041 -1.5707
 6307TIP3    H240337   6.248   5.249  16.596 -1.4591  1.6483 -0.5232
 6308TIP3   OH240338   2.233   1.368  11.173 -0.4003  0.1765  0.2400
 6308TIP3    H140339   2.199   1.457  11.184  0.8529  0.5125  1.5485
 6308TIP3    H240340   2.269   1.367  11.085 -1.5646  0.5705 -0.2528
 6309TIP3   OH240341   4.680   1.503  13.512 -0.6585 -0.1830  0.0401
 6309TIP3    H140342   4.733   1.564  13.460 -0.7673 -0.2376 -0.1389
 6309TIP3    H240343   4.709   1.416  13.483 -0.0690 -0.2239  0.7373
 6310TIP3   OH240344   5.640   2.620   3.376 -0.1114 -0.3277 -0.5395
 6310TIP3    H140345   5.676   2.675   3.445 -0.4934  0.0642 -0.6531
 6310TIP3    H240346   5.547   2.614   3.396  0.0666 -1.5888 -0.0742
 6311TIP3   OH240347   0.252   5.669  11.146 -0.8156 -0.4130 -0.3623
 6311TIP3    H140348   0.160   5.670  11.172 -1.0281  2.3070 -1.0883
 6311TIP3    H240349   0.254   5.615  11.067 -1.1553 -3.4991  1.6433
 6312TIP3   OH240350   4.725   1.995  12.859 -0.2975 -0.6660 -0.0632
 6312TIP3    H140351   4.672   2.008  12.937 -1.0075  1.1124 -0.8165
 6312TIP3    H240352   4.676   2.038  12.789  0.1633 -2.5315 -1.5676
 6313TIP3   OH240353   4.654   4.468   6.876 -0.1591  0.1285 -0.0966
 6313TIP3    H140354   4.615   4.495   6.793  0.0582  0.0725 -0.2137
 6313TIP3    H240355   4.701   4.387   6.856 -2.7213 -1.6491  0.7255
 6314TIP3   OH240356   5.666   2.958   0.800 -0.0422 -0.1031  0.3749
 6314TIP3    H140357   5.742   2.951   0.859  1.0315  1.0048 -0.8581
 6314TIP3    H240358   5.703   2.985   0.716 -1.8638  1.0356 -0.0891
 6315TIP3   OH240359   5.242   5.744  15.089  0.4236  0.2423  0.0325
 6315TIP3    H140360   5.194   5.797  15.026 -0.4387 -0.1878  0.3070
 6315TIP3    H240361   5.325   5.788  15.100 -0.6038  2.0211  0.8916
 6316TIP3   OH240362   6.187   1.392   5.147  0.8731 -0.1226  0.4241
 6316TIP3    H140363   6.252   1.440   5.096 -0.3762  1.9541  0.7395
 6316TIP3    H240364   6.200   1.421   5.237 -0.1296 -0.1114  0.5710
 6317TIP3   OH240365   1.217   1.112  13.785 -0.2330  0.4695  0.0230
 6317TIP3    H140366   1.225   1.114  13.690  0.9118  1.4702  0.1288
 6317TIP3    H240367   1.192   1.021  13.805  0.0787  0.1068 -1.1863
 6318TIP3   OH240368   4.098   5.457  15.511 -0.4238  0.5889  0.0393
 6318TIP3    H140369   4.173   5.498  15.468 -0.1741 -0.0341 -0.1400
 6318TIP3    H240370   4.044   5.426  15.438 -0.6708  0.7205  0.1698
 6319TIP3   OH240371   3.914   6.282   1.091 -0.5811 -0.4675 -0.8315
 6319TIP3    H140372   3.846   6.234   1.138 -1.0873  0.0780 -1.0019
 6319TIP3    H240373   3.892   6.271   0.999 -0.8749  0.3390 -0.8633
 6320TIP3   OH240374   5.327   5.908  11.051  0.7199  0.4407  0.7012
 6320TIP3    H140375   5.410   5.931  11.010  0.6893 -1.0167 -0.2219
 6320TIP3    H240376   5.306   5.821  11.016 -1.6005  1.1376  0.2609
 6321TIP3   OH240377   0.214   3.004  14.783 -0.5149  0.1066 -0.2091
 6321TIP3    H140378   0.226   3.050  14.700  0.3959  1.1565  0.4963
 6321TIP3    H240379   0.231   3.070  14.850  1.3733 -1.3711  0.8245
 6322TIP3   OH240380   6.067   3.199  14.332 -0.7413 -0.3327  0.4117
 6322TIP3    H140381   6.114   3.172  14.252 -1.2695 -0.2971  0.0839
 6322TIP3    H240382   5.978   3.167  14.318 -1.2013  0.9639  0.3361
 6323TIP3   OH240383   1.960   5.556  16.996  0.3553 -0.2168 -0.2636
 6323TIP3    H140384   1.894   5.489  17.014 -0.8125  0.7939 -0.6488
 6323TIP3    H240385   2.032   5.510  16.953 -1.0563 -0.9793 -1.8649
 6324TIP3   OH240386   3.367   3.493  16.535 -0.4508  0.2278  0.1051
 6324TIP3    H140387   3.428   3.421  16.556  0.1322  0.6349 -0.1713
 6324TIP3    H240388   3.390   3.518  16.445  0.8718  2.2494  0.9646
 6325TIP3   OH240389   0.120   1.533  16.380 -0.0218 -0.1088  0.6609
 6325TIP3    H140390   0.182   1.471  16.419  0.6069  0.5068  0.6494
 6325TIP3    H240391   0.161   1.618  16.392  0.1341  0.1111 -1.2374
 6326TIP3   OH240392   3.722   0.579  11.455  0.8043 -0.0522 -0.2704
 6326TIP3    H140393   3.650   0.522  11.428  0.5349  0.1457  0.0172
 6326TIP3    H240394   3.747   0.547  11.542 -1.4370  2.1823  1.2817
 6327TIP3   OH240395   1.894   4.269   1.022  0.5501 -0.3338  0.5852
 6327TIP3    H140396   1.961   4.262   0.954 -2.0720 -0.8443 -2.0532
 6327TIP3    H240397   1.842   4.190   1.013  0.0145 -0.3178  3.1049
 6328TIP3   OH240398   0.982   3.665  11.940  0.1775 -0.5300 -0.0314
 6328TIP3    H140399   0.977   3.570  11.924  1.4565 -0.7243  0.5863
 6328TIP3    H240400   1.066   3.691  11.903  0.7189 -0.0042  1.5085
 6329TIP3   OH240401   5.968   0.617   0.321  0.0083  0.0884 -0.1901
 6329TIP3    H140402   5.937   0.575   0.402  0.4164 -0.5723 -0.3674
 6329TIP3    H240403   5.893   0.613   0.262 -0.5881  1.4165  0.4687
 6330TIP3   OH240404   2.324   5.972   6.815  0.6477  0.0236 -0.0767
 6330TIP3    H140405   2.379   6.046   6.840  1.0777 -0.1384 -0.5407
 6330TIP3    H240406   2.368   5.934   6.738 -0.0816 -0.1303 -0.4227
 6331TIP3   OH240407   6.512   4.470  15.969 -0.3466  0.6430 -0.3320
 6331TIP3    H140408   6.462   4.410  16.024 -0.4359 -0.4739 -1.5997
 6331TIP3    H240409   6.570   4.413  15.919  0.8644  1.7785 -0.2435
 6332TIP3   OH240410   1.650   0.828   0.329 -0.1546  0.1710 -0.2646
 6332TIP3    H140411   1.673   0.892   0.263  1.5287 -1.7312 -1.5930
 6332TIP3    H240412   1.599   0.762   0.282 -0.6343 -0.1912  0.7473
 6333TIP3   OH240413   0.226   2.272  16.565 -0.2039  0.3200  0.2970
 6333TIP3    H140414   0.279   2.292  16.488 -1.9324  2.0702 -0.4789
 6333TIP3    H240415   0.289   2.258  16.635  1.3481 -0.0234 -1.1466
 6334TIP3   OH240416   4.557   3.638   3.278 -0.7619  0.1651 -1.0749
 6334TIP3    H140417   4.524   3.562   3.326 -0.2891  0.3537 -0.4405
 6334TIP3    H240418   4.479   3.691   3.261 -1.0878 -0.4336 -1.4795
 6335TIP3   OH240419   1.567   0.360  12.438  0.6205 -0.1944  0.3344
 6335TIP3    H140420   1.593   0.371  12.530  0.1519 -0.8760  0.5491
 6335TIP3    H240421   1.517   0.439  12.419  1.2734  0.2619  0.4634
 6336TIP3   OH240422   3.654   4.382  11.186  0.1226 -0.4015 -0.6228
 6336TIP3    H140423   3.692   4.395  11.272  0.3894 -0.2401 -0.7644
 6336TIP3    H240424   3.729   4.371  11.127 -0.0648 -1.2383 -0.7208
 6337TIP3   OH240425   3.422   0.812  15.428 -0.1213 -0.0230 -0.0908
 6337TIP3    H140426   3.345   0.825  15.484  1.0607 -2.4999  2.2605
 6337TIP3    H240427   3.412   0.722  15.397  1.2282  0.0436 -0.7059
 6338TIP3   OH240428   6.783   0.703  11.215  0.2075  0.4764  0.2970
 6338TIP3    H140429   6.823   0.633  11.164 -3.3992 -1.4528  0.0019
 6338TIP3    H240430   6.754   0.767  11.150  0.6243  0.7365  0.3615
 6339TIP3   OH240431   0.524   1.288  13.780  0.2114 -0.4473 -0.6903
 6339TIP3    H140432   0.471   1.281  13.701  1.1828  2.0243 -1.5903
 6339TIP3    H240433   0.614   1.298  13.749  0.5556  1.0267  0.7094
 6340TIP3   OH240434   1.405   4.593  12.426 -0.0390  0.2494  0.0124
 6340TIP3    H140435   1.494   4.564  12.407  0.4007  0.7723  1.2067
 6340TIP3    H240436   1.416   4.667  12.486 -1.1862  2.0126 -1.9040
 6341TIP3   OH240437   6.580   3.894   3.630 -0.0802  0.2549  0.2931
 6341TIP3    H140438   6.545   3.964   3.685  1.6098  0.1392  1.5649
 6341TIP3    H240439   6.646   3.937   3.575  0.1164 -0.1238  0.2327
 6342TIP3   OH240440   5.571   0.050  13.711 -0.3387  0.7013 -0.0148
 6342TIP3    H140441   5.562  -0.030  13.762  1.2379 -1.8342 -3.5106
 6342TIP3    H240442   5.664   0.073  13.717 -0.3261  0.9187 -0.9624
 6343TIP3   OH240443   1.471   1.921  15.884  0.3968 -0.8051 -0.0331
 6343TIP3    H140444   1.430   1.947  15.967  2.8703 -2.2088  1.6786
 6343TIP3    H240445   1.533   1.991  15.865  1.5828 -1.6696  0.5979
 6344TIP3   OH240446   1.116   4.494   3.920 -0.1267  0.0966 -0.1785
 6344TIP3    H140447   1.056   4.448   3.979 -0.2248  0.1349 -0.2487
 6344TIP3    H240448   1.184   4.430   3.900  1.4236  0.9057  2.1759
 6345TIP3   OH240449   5.514   2.015  16.430 -0.5887 -0.3891 -0.6752
 6345TIP3    H140450   5.498   2.014  16.524  1.1129  1.1113 -0.3280
 6345TIP3    H240451   5.511   1.923  16.404 -1.4803 -0.7821  0.7656
 6346TIP3   OH240452   6.217   0.729  15.375  0.1492  0.1250 -0.0873
 6346TIP3    H140453   6.149   0.737  15.442  0.1172 -0.1985 -0.0809
 6346TIP3    H240454   6.244   0.819  15.357  0.4356  0.1932  0.6461
 6347TIP3   OH240455   1.777   6.718  13.501  0.0409 -0.0612  0.1405
 6347TIP3    H140456   1.721   6.793  13.483 -0.8834 -0.4303  1.3567
 6347TIP3    H240457   1.738   6.678  13.580  0.9540 -1.3674 -0.0584
 6348TIP3   OH240458   0.141   1.175   6.497 -0.0478  0.1854 -0.2683
 6348TIP3    H140459   0.231   1.145   6.514 -0.0813  1.5997  2.6754
 6348TIP3    H240460   0.140   1.266   6.527 -1.9185  0.8280 -2.2214
 6349TIP3   OH240461   3.851   4.016   3.414 -0.0281  0.0118  0.0891
 6349TIP3    H140462   3.820   4.096   3.373 -1.5075  0.0300  1.1998
 6349TIP3    H240463   3.772   3.968   3.437  0.8322 -1.4802  0.0192
 6350TIP3   OH240464   4.676   5.434   1.493 -0.2735  0.0094  0.0817
 6350TIP3    H140465   4.688   5.339   1.487  1.5785  0.3838 -3.5785
 6350TIP3    H240466   4.626   5.456   1.415  1.1500  2.3027 -0.2101
 6351TIP3   OH240467   5.721   5.071   1.862  0.0150 -0.1064 -0.1693
 6351TIP3    H140468   5.755   4.984   1.840 -0.3256 -0.5226  0.9400
 6351TIP3    H240469   5.652   5.055   1.926  0.8270  1.0747  1.0290
 6352TIP3   OH240470   0.358   2.466   5.375  0.6498 -0.2048 -0.0238
 6352TIP3    H140471   0.285   2.476   5.314  0.2470 -0.5203  0.4119
 6352TIP3    H240472   0.320   2.429   5.454  1.0043  1.1546  0.8018
 6353TIP3   OH240473   0.605   6.601  12.454  0.0552  0.2578 -0.4194
 6353TIP3    H140474   0.558   6.682  12.435  0.4473  1.2872  2.6802
 6353TIP3    H240475   0.542   6.532  12.432 -1.6684  1.5340  0.3210
 6354TIP3   OH240476   0.601   2.691   4.990  0.3735 -0.1845 -0.1540
 6354TIP3    H140477   0.694   2.681   4.970 -0.3176 -2.2971 -2.5072
 6354TIP3    H240478   0.561   2.720   4.908 -1.2074 -0.3120  0.5579
 6355TIP3   OH240479   4.615   1.426  15.142 -0.2368  0.5438  0.1193
 6355TIP3    H140480   4.647   1.369  15.072  0.7944 -0.2122  1.1996
 6355TIP3    H240481   4.560   1.369  15.196 -1.2777  1.2008 -0.2510
 6356TIP3   OH240482   6.443   6.002  15.909  0.9432 -0.1408 -0.5870
 6356TIP3    H140483   6.385   5.941  15.863  1.0056 -2.1431  1.8732
 6356TIP3    H240484   6.387   6.075  15.933 -0.4683 -1.7469  1.1774
 6357TIP3   OH240485   2.323   4.104  12.572 -0.3154  0.1133  0.8418
 6357TIP3    H140486   2.289   4.099  12.661 -1.1352 -1.5513  0.4578
 6357TIP3    H240487   2.277   4.035  12.525  1.7493 -0.5109 -0.3342
 6358TIP3   OH240488   5.993   5.460  10.746 -0.4134  0.8409 -0.0782
 6358TIP3    H140489   5.968   5.552  10.760 -1.4098  0.5223  0.3008
 6358TIP3    H240490   6.073   5.465  10.693  0.6703  1.9663  1.6313
 6359TIP3   OH240491   4.162   2.526  16.571 -1.0981  0.2223 -0.6607
 6359TIP3    H140492   4.145   2.448  16.518 -1.5093 -1.1776  1.4327
 6359TIP3    H240493   4.075   2.561  16.591 -1.1041 -0.7713  1.1995
 6360TIP3   OH240494   2.295   3.654  16.673 -0.3710 -0.0170  0.3527
 6360TIP3    H140495   2.379   3.691  16.648 -0.4156 -0.0552  0.1444
 6360TIP3    H240496   2.303   3.635  16.766  0.1307 -0.7440  0.1715
 6361TIP3   OH240497   5.212   4.061   2.438  0.4534 -0.3400  0.0566
 6361TIP3    H140498   5.147   3.999   2.471 -0.5035  0.5276 -0.1789
 6361TIP3    H240499   5.262   4.011   2.374  0.2564 -1.1185  0.5040
 6362TIP3   OH240500   3.909   6.054   3.233  0.1707  0.3742 -0.0972
 6362TIP3    H140501   3.845   5.984   3.229 -0.5730  1.0915 -0.9891
 6362TIP3    H240502   3.944   6.060   3.144  0.2972  1.0674 -0.0041
 6363TIP3   OH240503   0.992   3.757  12.216  0.0064 -0.1496 -0.2215
 6363TIP3    H140504   0.985   3.755  12.121 -1.2343 -0.8516 -0.1191
 6363TIP3    H240505   0.919   3.704  12.247  0.1759  0.3927  1.1369
 6364TIP3   OH240506   4.984   3.514  11.415  0.0952  0.7909 -0.1002
 6364TIP3    H140507   4.961   3.455  11.343  0.9073  0.1041  0.1958
 6364TIP3    H240508   4.904   3.563  11.432 -0.8381 -0.7671  0.1454
 6365TIP3   OH240509   6.672   4.923   4.345 -0.0056 -0.5496 -0.4024
 6365TIP3    H140510   6.661   4.927   4.440  2.6182  1.3267 -0.1199
 6365TIP3    H240511   6.696   5.012   4.319  1.0010 -1.3989 -2.5904
 6366TIP3   OH240512   2.887   0.811   4.855 -0.2026  0.1219  0.4778
 6366TIP3    H140513   2.820   0.869   4.891 -1.1188 -1.1284  0.8410
 6366TIP3    H240514   2.846   0.724   4.856  0.1666 -0.1223 -2.5079
 6367TIP3   OH240515   4.106   6.683  14.319 -0.0603 -0.1667 -0.7541
 6367TIP3    H140516   4.083   6.742  14.391  2.4701  0.5923 -0.5375
 6367TIP3    H240517   4.173   6.625  14.355 -1.6769 -2.4912 -1.3128
 6368TIP3   OH240518   0.794   4.229  16.691  0.4063 -0.0270  0.0900
 6368TIP3    H140519   0.715   4.281  16.679  0.2586 -0.0333  1.0130
 6368TIP3    H240520   0.850   4.252  16.617  0.0496  0.9037  0.1098
 6369TIP3   OH240521   0.876   1.409   2.350 -0.0795  0.1407  0.3641
 6369TIP3    H140522   0.944   1.367   2.402 -0.6419 -0.8879  0.2809
 6369TIP3    H240523   0.868   1.497   2.387  0.8047  0.0320  0.8226
 6370TIP3   OH240524   1.849   5.036   3.640 -0.0133  0.5523  0.9018
 6370TIP3    H140525   1.942   5.024   3.619 -0.1722  0.6372  0.1174
 6370TIP3    H240526   1.803   4.996   3.566 -0.5824  2.3365  0.2824
 6371TIP3   OH240527   0.443   6.340  11.981 -0.7730  0.1769 -0.1394
 6371TIP3    H140528   0.348   6.330  11.976 -0.6808 -0.5864 -0.3333
 6371TIP3    H240529   0.461   6.421  11.933 -1.2389 -0.1351 -0.8460
 6372TIP3   OH240530   5.682   4.414  13.554 -0.1640 -0.3489 -0.0736
 6372TIP3    H140531   5.751   4.362  13.514 -0.1701 -0.3324 -0.1062
 6372TIP3    H240532   5.638   4.457  13.481  1.0516  1.2254  0.0674
 6373TIP3   OH240533   3.596   4.482   2.946  0.0199  0.3097 -0.2337
 6373TIP3    H140534   3.580   4.398   2.903  1.2434  0.3973 -0.8794
 6373TIP3    H240535   3.627   4.458   3.034  1.2282  0.0673 -0.7234
 6374TIP3   OH240536   6.485   3.922   2.200  0.3868  0.1370 -0.0283
 6374TIP3    H140537   6.539   3.966   2.266  0.3282 -0.3684  0.3556
 6374TIP3    H240538   6.544   3.862   2.156  0.1515 -0.4114  0.3868
 6375TIP3   OH240539   3.928   0.435   5.123 -0.2442 -0.4584 -0.3905
 6375TIP3    H140540   3.994   0.375   5.158 -0.5802  0.2078  1.4314
 6375TIP3    H240541   3.967   0.522   5.133 -1.0855 -0.1222 -0.0020
 6376TIP3   OH240542   4.652   4.096   1.266  0.0327  0.5145 -0.0011
 6376TIP3    H140543   4.579   4.044   1.300  0.5702  0.0501  0.4611
 6376TIP3    H240544   4.669   4.160   1.335  1.5344 -0.8274  0.9141
 6377TIP3   OH240545   0.154   3.686   4.006 -0.7876 -0.0854 -0.3280
 6377TIP3    H140546   0.223   3.620   3.999 -2.1900 -1.7407  1.0610
 6377TIP3    H240547   0.132   3.707   3.916 -0.6314 -1.8565 -0.8016
 6378TIP3   OH240548   3.686   2.432  12.141 -0.2482  0.5014  0.6463
 6378TIP3    H140549   3.658   2.522  12.155 -4.1492 -0.6622  0.8921
 6378TIP3    H240550   3.707   2.427  12.048 -2.6181  1.0644  0.0443
 6379TIP3   OH240551   4.767   5.403   1.145 -0.3563 -0.3610 -0.2527
 6379TIP3    H140552   4.854   5.432   1.170 -0.5607  1.2058 -1.2751
 6379TIP3    H240553   4.768   5.308   1.157  0.2570  0.0478  3.4293
 6380TIP3   OH240554   5.618   5.456   1.212 -0.1558  0.7763  0.3348
 6380TIP3    H140555   5.550   5.506   1.169  0.4009 -0.2235 -1.7523
 6380TIP3    H240556   5.571   5.400   1.274 -1.1259  0.9147 -0.2727
 6381TIP3   OH240557   6.728   3.459  12.258  0.1796  0.2860  0.5231
 6381TIP3    H140558   6.740   3.523  12.328  1.6495  0.4384  0.1345
 6381TIP3    H240559   6.809   3.462  12.208 -0.9374  0.3153 -1.3208
 6382TIP3   OH240560   0.632   4.779   4.308  0.4624  0.0427  0.4304
 6382TIP3    H140561   0.547   4.822   4.308  0.1866 -0.4582 -0.9126
 6382TIP3    H240562   0.695   4.851   4.313 -0.0259  0.4740  0.4886
 6383TIP3   OH240563   5.201   1.999  15.461 -0.2064 -0.2848  0.3597
 6383TIP3    H140564   5.200   1.967  15.551 -0.2615  1.1492  0.8901
 6383TIP3    H240565   5.150   1.935  15.412  1.4253 -2.0966  0.9843
 6384TIP3   OH240566   2.556   5.995   6.241  0.3562 -0.1240 -0.1311
 6384TIP3    H140567   2.579   5.928   6.306  1.4280  1.4312  1.1338
 6384TIP3    H240568   2.640   6.028   6.210 -0.1682  0.8079 -0.5665
 6385TIP3   OH240569   5.754   5.340   4.667 -0.2466 -0.1661 -0.0323
 6385TIP3    H140570   5.822   5.380   4.613 -1.5224  1.3507 -0.5287
 6385TIP3    H240571   5.746   5.398   4.743 -1.1614 -0.2301 -0.0854
 6386TIP3   OH240572   1.534   0.422   1.465  0.1387  0.0414 -0.1361
 6386TIP3    H140573   1.579   0.413   1.549 -0.9560 -0.3492  0.4195
 6386TIP3    H240574   1.447   0.387   1.481  0.2355 -0.9912 -1.7150
 6387TIP3   OH240575   1.401   0.703  16.199  0.7244 -0.6486  0.2018
 6387TIP3    H140576   1.438   0.687  16.112 -1.2613 -0.5057 -0.6859
 6387TIP3    H240577   1.418   0.622  16.247  0.1584 -1.4561 -0.9288
 6388TIP3   OH240578   4.355   4.535   2.724 -0.3223  0.2828 -0.5085
 6388TIP3    H140579   4.373   4.625   2.695 -0.1866  1.1081  1.9802
 6388TIP3    H240580   4.427   4.516   2.784 -0.4256 -1.4733 -0.9352
 6389TIP3   OH240581   2.461   4.766   0.595 -0.0096 -0.0945 -0.3899
 6389TIP3    H140582   2.498   4.831   0.654  0.4790 -0.9248  0.2262
 6389TIP3    H240583   2.530   4.749   0.531  0.1759 -0.6157 -0.0583
 6390TIP3   OH240584   1.821   5.947  16.587 -0.0966 -0.0073  0.1269
 6390TIP3    H140585   1.832   5.989  16.672 -0.9231  1.6923 -0.5954
 6390TIP3    H240586   1.870   6.002  16.526  1.2473 -1.6975 -0.3941
 6391TIP3   OH240587   1.105   2.579  14.210  0.5844 -0.2053 -0.1943
 6391TIP3    H140588   1.164   2.546  14.278  1.7168 -0.8173 -1.4617
 6391TIP3    H240589   1.082   2.502  14.159 -0.1710  0.2743 -0.5859
 6392TIP3   OH240590   1.567   4.678   0.253  0.1033 -0.0996 -0.4206
 6392TIP3    H140591   1.499   4.715   0.310 -0.9267 -1.2672 -0.8829
 6392TIP3    H240592   1.519   4.634   0.184  1.3366 -1.3851 -0.4757
 6393TIP3   OH240593   1.293   3.169  11.530  0.0089 -0.6507  0.5109
 6393TIP3    H140594   1.387   3.154  11.520 -0.1376 -0.5808 -1.0476
 6393TIP3    H240595   1.271   3.127  11.613  1.3706 -0.8744  0.7730
 6394TIP3   OH240596   3.670   5.216  11.785 -0.0229  0.0479 -0.2088
 6394TIP3    H140597   3.739   5.149  11.794 -0.7726 -0.6209  0.6615
 6394TIP3    H240598   3.715   5.291  11.747  1.0626 -0.5984 -0.2440
 6395TIP3   OH240599   0.906   1.050  11.196  0.3274 -0.0620  0.1892
 6395TIP3    H140600   0.868   1.014  11.116 -0.2198  0.8832  0.0239
 6395TIP3    H240601   0.907   0.976  11.257  0.1581 -0.6234 -0.4815
 6396TIP3   OH240602   5.342   2.369  13.258 -0.6619 -0.2032 -0.5717
 6396TIP3    H140603   5.255   2.328  13.263  0.2657 -2.2183 -0.4159
 6396TIP3    H240604   5.390   2.314  13.195  1.3014 -0.6561  1.2686
 6397TIP3   OH240605   2.205   2.151  15.494  0.2192 -0.8374  0.4865
 6397TIP3    H140606   2.185   2.095  15.419 -0.5607 -1.0091  0.8234
 6397TIP3    H240607   2.298   2.171  15.485  0.1307 -0.8659 -0.5253
 6398TIP3   OH240608   4.521   2.506  10.694  0.0095  0.0603 -0.2419
 6398TIP3    H140609   4.571   2.576  10.737 -0.2560 -0.3267  0.7025
 6398TIP3    H240610   4.570   2.487  10.614 -0.1709  1.6531 -0.7417
 6399TIP3   OH240611   3.425   0.466  13.380 -0.6970  0.4537 -0.3294
 6399TIP3    H140612   3.448   0.374  13.366  0.9310  0.3329  2.5910
 6399TIP3    H240613   3.475   0.514  13.314 -0.1520 -0.6343 -0.7183
 6400TIP3   OH240614   6.442   3.726  12.114  0.0320  0.0331  0.0174
 6400TIP3    H140615   6.532   3.737  12.143  0.1572 -1.6506  0.2917
 6400TIP3    H240616   6.389   3.761  12.185  0.4325 -0.3652  0.5135
 6401TIP3   OH240617   0.747   0.826  15.183  0.3078 -0.2883 -0.2735
 6401TIP3    H140618   0.698   0.873  15.251 -1.4244 -0.4295 -1.3845
 6401TIP3    H240619   0.733   0.733  15.203 -0.7528 -0.3303 -1.1968
 6402TIP3   OH240620   2.226   4.316   2.169  0.2850  0.1126  0.5581
 6402TIP3    H140621   2.279   4.243   2.201 -1.3924 -0.9386  1.0038
 6402TIP3    H240622   2.174   4.277   2.098 -0.2351  1.0166  0.4444
 6403TIP3   OH240623   0.477   3.368  17.179  0.4285  1.0149  0.2102
 6403TIP3    H140624   0.554   3.417  17.150  1.1174 -0.4446 -0.4553
 6403TIP3    H240625   0.512   3.296  17.232 -0.3721 -0.4383 -1.1892
 6404TIP3   OH240626   4.498   6.337  14.496 -0.9617  0.1057  0.5247
 6404TIP3    H140627   4.517   6.273  14.427 -1.0000  0.9405 -0.2677
 6404TIP3    H240628   4.578   6.390  14.502 -1.0741  0.2330  0.9089
 6405TIP3   OH240629   1.047   0.312   1.701 -0.7072 -0.1213 -0.0427
 6405TIP3    H140630   1.137   0.324   1.672 -0.6468  0.0754  0.2243
 6405TIP3    H240631   1.052   0.246   1.770 -1.0133 -1.5389 -1.3558
 6406TIP3   OH240632   0.736   0.867  16.509  0.2085 -0.1029 -0.1366
 6406TIP3    H140633   0.801   0.937  16.498  0.3592 -0.0456  0.9861
 6406TIP3    H240634   0.689   0.892  16.589  0.9325 -1.8039  0.8546
 6407TIP3   OH240635   0.407   3.602   0.089  0.0197  0.2903  0.4519
 6407TIP3    H140636   0.451   3.547   0.024  1.1388 -0.8566  2.1260
 6407TIP3    H240637   0.316   3.575   0.085 -0.0729  0.8063 -1.2038
 6408TIP3   OH240638   5.429   1.700  11.661  0.3043  0.0134 -0.1123
 6408TIP3    H140639   5.407   1.789  11.687  2.3507  0.4000  0.4029
 6408TIP3    H240640   5.449   1.656  11.743  1.0352 -0.4187 -0.5229
 6409TIP3   OH240641   5.518   5.383  15.103  0.0177  0.3845  0.5948
 6409TIP3    H140642   5.568   5.317  15.055 -0.1700  0.1138  0.7749
 6409TIP3    H240643   5.427   5.358  15.091 -0.0515  0.5818  0.7064
 6410TIP3   OH240644   2.186   3.458   4.332 -0.0182  0.1354 -0.2457
 6410TIP3    H140645   2.200   3.363   4.336  0.2223  0.1534 -0.7112
 6410TIP3    H240646   2.144   3.479   4.416 -0.5022 -0.4541 -0.3313
 6411TIP3   OH240647   1.467   5.521  16.279  0.8399  0.4003  0.3253
 6411TIP3    H140648   1.404   5.491  16.344  0.6298 -0.3083 -0.1913
 6411TIP3    H240649   1.433   5.488  16.196  2.0543 -0.2490  0.0777
 6412TIP3   OH240650   5.044   3.190   0.504 -0.0838 -0.5262 -0.2456
 6412TIP3    H140651   4.965   3.149   0.540  1.5306 -1.5939  2.1845
 6412TIP3    H240652   5.046   3.276   0.547  0.7197 -0.9847  0.6502
 6413TIP3   OH240653   4.312   2.806  12.502 -0.4047  0.4722 -0.1391
 6413TIP3    H140654   4.320   2.735  12.438 -0.3969  0.3636 -0.0188
 6413TIP3    H240655   4.384   2.791  12.562 -2.3138 -1.3705  1.7935
 6414TIP3   OH240656   1.586   1.723   5.463  0.2335  0.0251 -0.8126
 6414TIP3    H140657   1.679   1.737   5.476  0.2860 -0.3374 -0.8096
 6414TIP3    H240658   1.555   1.804   5.422  0.8197 -0.4203 -2.1522
 6415TIP3   OH240659   2.645   1.072   6.292  0.6499  0.1143 -0.7774
 6415TIP3    H140660   2.689   1.114   6.218  1.7034  1.1535  0.4254
 6415TIP3    H240661   2.691   1.104   6.369  0.1873 -1.7047  0.2907
 6416TIP3   OH240662   3.848   1.564  11.816  0.1928  0.3646  0.4067
 6416TIP3    H140663   3.929   1.614  11.824  0.1747  0.2118  1.7392
 6416TIP3    H240664   3.805   1.600  11.739  0.9451  1.3010  0.4136
 6417TIP3   OH240665   5.291   3.277  13.051 -0.4496 -0.3135  0.0260
 6417TIP3    H140666   5.271   3.184  13.039  0.2009 -0.3043 -1.1987
 6417TIP3    H240667   5.283   3.315  12.964  3.0195  0.0581 -0.1794
 6418TIP3   OH240668   2.707   2.928  11.682  0.3306 -0.0834 -0.3118
 6418TIP3    H140669   2.691   2.954  11.772  0.1837 -0.5043 -0.2158
 6418TIP3    H240670   2.621   2.908  11.646  0.3008  0.8593 -0.7916
 6419TIP3   OH240671   3.311   6.310   2.061 -0.3217  0.1554 -0.1394
 6419TIP3    H140672   3.364   6.370   2.113  1.0701 -1.9573  0.9443
 6419TIP3    H240673   3.359   6.301   1.979 -0.9543  1.1453 -0.6228
 6420TIP3   OH240674   4.312   3.765   3.238 -0.2815  0.0819 -0.3828
 6420TIP3    H140675   4.342   3.835   3.180  0.3161  1.2166  1.2331
 6420TIP3    H240676   4.242   3.807   3.290 -0.1946 -0.6366  0.3189
 6421TIP3   OH240677   5.853   1.583   1.470  0.3983  0.1760  0.1466
 6421TIP3    H140678   5.823   1.643   1.538  0.4908  0.4994 -0.0935
 6421TIP3    H240679   5.944   1.607   1.456  1.1193 -1.6013  1.7199
 6422TIP3   OH240680   2.663   4.582   0.788  0.6770  0.0891  0.2511
 6422TIP3    H140681   2.717   4.540   0.721  0.7143 -0.7259  0.7871
 6422TIP3    H240682   2.707   4.665   0.806  0.9108  0.1067 -0.4179
 6423TIP3   OH240683   2.118   5.763   4.735 -0.3492 -0.5456 -0.2925
 6423TIP3    H140684   2.207   5.763   4.700 -0.7166  2.6133 -1.2951
 6423TIP3    H240685   2.061   5.758   4.658 -1.0766  2.0256  0.0343
 6424TIP3   OH240686   2.166   2.712   1.641 -0.2389 -0.4581 -0.0053
 6424TIP3    H140687   2.219   2.733   1.718  0.3504 -0.7020 -0.3389
 6424TIP3    H240688   2.130   2.796   1.612  0.8292 -0.1374 -0.4087
 6425TIP3   OH240689   0.523   2.231   0.611 -0.0086 -0.0873 -0.1335
 6425TIP3    H140690   0.465   2.196   0.678  0.6019 -0.4727  0.1904
 6425TIP3    H240691   0.557   2.153   0.566  1.5707  0.0773  0.7721
 6426TIP3   OH240692   5.205   4.318   3.529 -0.5991 -0.2905  0.0041
 6426TIP3    H140693   5.238   4.233   3.501 -0.5124 -0.3070  0.1568
 6426TIP3    H240694   5.154   4.300   3.608 -0.3459 -0.1641  0.1972
 6427TIP3   OH240695   6.598   2.172  15.288 -0.3623  0.0682  0.5251
 6427TIP3    H140696   6.679   2.132  15.320 -0.1553 -0.9597 -1.2121
 6427TIP3    H240697   6.534   2.154  15.356  0.3559 -1.0510  0.9240
 6428TIP3   OH240698   6.539   0.474   1.608  0.1655  0.3231 -0.0018
 6428TIP3    H140699   6.585   0.471   1.693  0.8721 -1.9405 -0.4275
 6428TIP3    H240700   6.525   0.567   1.592  1.6771  0.8897  1.7338
 6429TIP3   OH240701   0.283   4.073   6.300 -0.3129 -0.4207  0.3828
 6429TIP3    H140702   0.324   3.990   6.324  0.8195 -0.1569 -0.6111
 6429TIP3    H240703   0.299   4.082   6.206 -1.1039  0.5505  0.3309
 6430TIP3   OH240704   0.762   0.846   2.087  0.2231  0.0328 -0.0484
 6430TIP3    H140705   0.848   0.886   2.097  0.1666  0.2175 -0.3053
 6430TIP3    H240706   0.744   0.850   1.993 -0.4847  0.8634  0.1132
 6431TIP3   OH240707   6.323   6.735   4.574  0.1574  0.0691 -0.1152
 6431TIP3    H140708   6.290   6.670   4.636 -0.7138  0.3611 -0.2633
 6431TIP3    H240709   6.249   6.751   4.515  0.4463  1.0306 -0.2167
 6432TIP3   OH240710   5.428   0.058  16.159  0.1223  0.1415  0.0478
 6432TIP3    H140711   5.418   0.122  16.230  1.1576  1.1787 -0.7117
 6432TIP3    H240712   5.355   0.076  16.100 -1.0809 -1.1185  1.1396
 6433TIP3   OH240713   1.788   1.333   5.048  0.5410  0.5273  0.6218
 6433TIP3    H140714   1.837   1.257   5.079 -0.1799  1.4163  4.2283
 6433TIP3    H240715   1.706   1.296   5.014  1.7818 -0.5715 -1.2839
 6434TIP3   OH240716   1.963   3.086   6.552 -0.4918 -0.4064 -0.3109
 6434TIP3    H140717   2.028   3.155   6.563  0.3460 -1.5516  2.6423
 6434TIP3    H240718   1.881   3.132   6.536  0.1546  1.2730  1.0412
 6435TIP3   OH240719   6.150   5.806   1.826 -0.1551 -0.4547  0.1139
 6435TIP3    H140720   6.087   5.735   1.829 -0.3609 -0.2974 -0.4265
 6435TIP3    H240721   6.204   5.788   1.749 -0.5634  0.2680 -0.3473
 6436TIP3   OH240722   1.532   2.654  15.335 -0.1532 -0.4292 -0.2309
 6436TIP3    H140723   1.603   2.620  15.389  0.5091 -1.4730 -1.7174
 6436TIP3    H240724   1.551   2.621  15.247 -2.2845 -0.4172 -0.7222
 6437TIP3   OH240725   6.101   4.253  15.308 -0.3817 -0.1711  0.1012
 6437TIP3    H140726   6.117   4.280  15.399 -1.3946 -1.6361  0.7252
 6437TIP3    H240727   6.113   4.158  15.309 -1.6293 -0.3466 -1.0277
 6438TIP3   OH240728   1.162   5.297  17.070 -0.1461  0.4140 -0.4348
 6438TIP3    H140729   1.169   5.226  17.133 -1.0084  0.4811 -0.2608
 6438TIP3    H240730   1.249   5.338  17.070  0.0169  0.0709  0.2893
 6439TIP3   OH240731   4.405   1.799  12.569 -0.7378  0.0695 -0.0703
 6439TIP3    H140732   4.342   1.741  12.613 -0.0867 -0.2139  0.5012
 6439TIP3    H240733   4.439   1.747  12.497 -2.3596  0.7934 -1.3944
 6440TIP3   OH240734   4.500   0.375  15.082 -0.0570 -0.6155 -0.7029
 6440TIP3    H140735   4.484   0.318  15.007 -2.3186 -1.5104  0.4063
 6440TIP3    H240736   4.557   0.444  15.048  1.5454 -2.7207 -2.4248
 6441TIP3   OH240737   2.772   3.802   2.652  0.3782  0.1185 -0.0491
 6441TIP3    H140738   2.757   3.857   2.729  0.5304  0.2294 -0.0984
 6441TIP3    H240739   2.722   3.722   2.670  1.5315 -0.4287  0.7844
 6442TIP3   OH240740   4.385   6.195  16.103 -0.6681 -0.2928  0.0563
 6442TIP3    H140741   4.421   6.152  16.025  0.7250 -1.0331  1.1037
 6442TIP3    H240742   4.290   6.185  16.093 -0.5068 -0.5993 -1.4199
 6443TIP3   OH240743   1.657   2.531  13.296  0.2973  0.1714  0.0616
 6443TIP3    H140744   1.599   2.605  13.313  0.5155  0.5662 -0.9347
 6443TIP3    H240745   1.732   2.546  13.353 -0.2580  0.0083  0.8540
 6444TIP3   OH240746   0.603   1.717  15.329 -0.3647 -0.5707  0.1129
 6444TIP3    H140747   0.519   1.734  15.287  0.5893  0.2619 -1.5120
 6444TIP3    H240748   0.592   1.633  15.373 -1.7721 -0.8836 -0.8190
 6445TIP3   OH240749   1.138   3.345  11.837 -0.0108 -0.2337 -0.4003
 6445TIP3    H140750   1.105   3.265  11.877 -1.0535  0.8764  1.0023
 6445TIP3    H240751   1.068   3.373  11.778 -0.2599  0.4119  0.1956
 6446TIP3   OH240752   2.994   0.845  11.680 -0.2751 -0.1259 -0.0112
 6446TIP3    H140753   3.056   0.851  11.608 -0.8845  1.6433 -0.4140
 6446TIP3    H240754   2.918   0.801  11.643 -0.1250 -0.3072 -0.1077
 6447TIP3   OH240755   3.591   5.156   5.290 -0.4761  0.5262  0.4857
 6447TIP3    H140756   3.603   5.229   5.229 -1.9545  0.6066  0.2734
 6447TIP3    H240757   3.565   5.198   5.373  0.1560  0.3364  0.7777
 6448TIP3   OH240758   4.639   2.532  14.826  0.2567  0.6489  0.2869
 6448TIP3    H140759   4.619   2.441  14.848  0.1927  0.2141 -1.4958
 6448TIP3    H240760   4.561   2.563  14.781  1.2284  0.7844 -1.3614
 6449TIP3   OH240761   1.189   0.924  14.698  0.5592  0.0470 -0.2118
 6449TIP3    H140762   1.268   0.958  14.654  0.0254  0.7184 -0.6638
 6449TIP3    H240763   1.129   0.903  14.626  1.6773 -4.0179 -0.1032
 6450TIP3   OH240764   6.536   3.581   4.591  0.2694 -0.6879 -1.0100
 6450TIP3    H140765   6.582   3.607   4.511  1.9446 -1.1163 -0.2151
 6450TIP3    H240766   6.568   3.493   4.610 -2.0355 -1.6173 -1.2535
 6451TIP3   OH240767   2.880   0.361  13.365 -0.1861 -0.1373 -0.5753
 6451TIP3    H140768   2.899   0.271  13.390 -1.1645  0.4063  2.3309
 6451TIP3    H240769   2.964   0.396  13.335  0.3943 -1.7220 -0.8234
 6452TIP3   OH240770   4.053   2.450  11.103  0.5936  0.3336 -0.8165
 6452TIP3    H140771   4.040   2.545  11.099  3.3609  0.7850 -0.5896
 6452TIP3    H240772   4.113   2.431  11.030 -0.3986 -1.3440 -1.2242
 6453TIP3   OH240773   2.668   4.224   3.299  0.0653  0.1306 -0.3019
 6453TIP3    H140774   2.661   4.284   3.225  1.9716  0.3779 -0.3132
 6453TIP3    H240775   2.741   4.258   3.350 -1.4126  0.1305  1.8618
 6454TIP3   OH240776   3.759   4.990  16.059  0.2721 -0.3561  0.0449
 6454TIP3    H140777   3.830   5.025  16.112  0.4492 -0.2893 -0.2345
 6454TIP3    H240778   3.692   5.059  16.060  0.6939  0.0662 -0.6522
 6455TIP3   OH240779   1.371   5.251   4.477  0.2436 -0.3798  0.0415
 6455TIP3    H140780   1.443   5.313   4.479  0.7728 -0.9432 -1.1525
 6455TIP3    H240781   1.363   5.220   4.567  0.0487  1.3130  0.6320
 6456TIP3   OH240782   1.366   6.201   2.613  0.1952  0.7370  0.0205
 6456TIP3    H140783   1.453   6.210   2.574 -0.2886  0.2922 -1.1763
 6456TIP3    H240784   1.379   6.139   2.684  0.5394 -0.6755 -1.2426
 6457TIP3   OH240785   3.759   2.411  16.294  0.5871  0.4421 -0.3863
 6457TIP3    H140786   3.794   2.500  16.292  0.8188  0.3551 -0.2312
 6457TIP3    H240787   3.837   2.355  16.298  0.4099  0.2832  1.0859
 6458TIP3   OH240788   4.343   0.949  13.054 -0.1848 -0.2635 -0.0856
 6458TIP3    H140789   4.368   1.035  13.089 -1.3351 -0.4503  1.2162
 6458TIP3    H240790   4.353   0.889  13.128 -1.4640 -0.8825 -0.4074
 6459TIP3   OH240791   3.908   2.754   2.810 -0.0956 -0.2215  0.0469
 6459TIP3    H140792   3.913   2.843   2.844  2.0699 -0.9081  1.6709
 6459TIP3    H240793   3.942   2.761   2.720  1.1298  0.4412  0.5406
 6460TIP3   OH240794   6.395   5.643   4.852  0.0602  0.6042 -0.8367
 6460TIP3    H140795   6.342   5.658   4.774 -1.2565 -0.4376 -0.1564
 6460TIP3    H240796   6.354   5.568   4.895  1.7560  0.1325 -0.0056
 6461TIP3   OH240797   5.104   3.869  15.248 -0.1118  0.4703  0.3799
 6461TIP3    H140798   5.023   3.820  15.261 -1.3101  2.3440  0.2674
 6461TIP3    H240799   5.136   3.841  15.162 -1.0612  0.2667  0.0898
 6462TIP3   OH240800   1.912   0.368  14.731 -0.0485  0.7155  0.2013
 6462TIP3    H140801   1.855   0.435  14.767  1.2932  1.8832  0.1796
 6462TIP3    H240802   1.889   0.363  14.639  1.7396  3.1628 -0.4324
 6463TIP3   OH240803   6.011   5.722  11.750 -0.5047  0.1668  0.3651
 6463TIP3    H140804   5.926   5.765  11.757 -0.4124  0.2090  1.2868
 6463TIP3    H240805   6.074   5.787  11.783 -0.0436  0.3736 -0.9080
 6464TIP3   OH240806   6.415   4.223   5.874  0.1888 -0.8424  0.6271
 6464TIP3    H140807   6.412   4.226   5.970  0.5092  0.7512  0.5991
 6464TIP3    H240808   6.406   4.314   5.847  0.1848 -1.2785 -0.8631
 6465TIP3   OH240809   0.046   2.358  13.462  0.0294 -0.2710 -0.7067
 6465TIP3    H140810   0.125   2.336  13.511  0.3364  1.7757 -0.2181
 6465TIP3    H240811  -0.006   2.410  13.523 -0.3737  0.8120 -1.9574
 6466TIP3   OH240812   1.801   5.255  11.112  0.0159  0.0866  0.1003
 6466TIP3    H140813   1.883   5.206  11.116 -1.3100 -2.1051  1.8336
 6466TIP3    H240814   1.753   5.217  11.039 -0.0708  0.4109 -0.0171
 6467TIP3   OH240815   1.691   5.007   5.741 -0.5939 -0.8086  0.1606
 6467TIP3    H140816   1.701   5.070   5.812 -1.8499 -1.5938  1.0530
 6467TIP3    H240817   1.604   4.969   5.754 -1.4613  0.1256 -2.7234
 6468TIP3   OH240818   4.138   3.287   0.176  0.1690  0.0104 -0.6814
 6468TIP3    H140819   4.105   3.202   0.205 -2.2504  0.4334 -2.1223
 6468TIP3    H240820   4.087   3.351   0.225  0.8279  0.6527 -0.8287
 6469TIP3   OH240821   5.528   1.817  16.153 -0.5037 -0.0801 -0.0402
 6469TIP3    H140822   5.484   1.787  16.233 -0.9267 -0.3608 -0.3835
 6469TIP3    H240823   5.613   1.850  16.185 -0.5468 -0.4667  0.4920
 6470TIP3   OH240824   0.358   5.713   0.698  0.1270  0.3803  0.1672
 6470TIP3    H140825   0.327   5.801   0.679  0.7766  0.6004  0.1111
 6470TIP3    H240826   0.316   5.658   0.632  1.4335  0.9698 -1.1825
 6471TIP3   OH240827   2.391   2.010  11.064 -0.1052  0.4678  0.0840
 6471TIP3    H140828   2.341   1.950  11.009 -2.2958  1.2302  1.2083
 6471TIP3    H240829   2.455   1.954  11.109 -0.3262 -0.5974 -0.9266
 6472TIP3   OH240830   6.494   6.538  12.945  0.1157 -0.0370 -0.0607
 6472TIP3    H140831   6.431   6.466  12.940  1.9273 -1.5360 -1.9310
 6472TIP3    H240832   6.446   6.614  12.912 -1.1884 -0.8113 -0.0036
 6473TIP3   OH240833   0.040   0.709   5.742 -0.1594  0.2025  0.0682
 6473TIP3    H140834   0.058   0.757   5.822  1.6538 -0.1034 -0.1388
 6473TIP3    H240835   0.099   0.634   5.744 -0.7926 -0.3565 -1.0874
 6474TIP3   OH240836   2.638   5.434  11.919  0.0287 -0.0020 -0.1862
 6474TIP3    H140837   2.552   5.476  11.922 -0.4699 -0.8126 -2.1037
 6474TIP3    H240838   2.648   5.407  11.827  1.0847 -2.4586  0.5953
 6475TIP3   OH240839   0.362   2.627  16.428  0.0658  0.0466  0.7923
 6475TIP3    H140840   0.295   2.664  16.486 -2.8799 -0.7026 -1.9935
 6475TIP3    H240841   0.327   2.541  16.403  3.0771 -1.2815  0.8790
 6476TIP3   OH240842   0.798   2.315  16.703 -0.2887 -0.4819  0.1584
 6476TIP3    H140843   0.743   2.380  16.746 -0.0367  1.6333 -2.5753
 6476TIP3    H240844   0.747   2.286  16.627  1.6103  0.2497 -1.4600
 6477TIP3   OH240845   2.489   5.142   5.206  0.0320 -0.2557  0.6475
 6477TIP3    H140846   2.537   5.155   5.124 -0.9972  0.2150  0.1033
 6477TIP3    H240847   2.509   5.220   5.258 -1.0050  0.4790 -0.0255
 6478TIP3   OH240848   0.237   0.930  13.591  0.8576  0.2200 -0.3631
 6478TIP3    H140849   0.310   0.953  13.649  1.0501  1.5967 -1.1343
 6478TIP3    H240850   0.218   1.010  13.542 -1.0047 -0.1907 -0.3674
 6479TIP3   OH240851   0.094   5.221  15.524  0.5191  0.3066 -0.7130
 6479TIP3    H140852   0.141   5.261  15.597  1.9635 -0.5151 -1.1651
 6479TIP3    H240853   0.064   5.295  15.471  2.8036  0.8359 -1.3234
 6480TIP3   OH240854   0.827   3.122  12.500  0.0271  0.3871  0.0959
 6480TIP3    H140855   0.749   3.121  12.555 -0.0433 -0.8090 -0.0136
 6480TIP3    H240856   0.876   3.044  12.527  0.4004  0.2596 -0.9410
 6481TIP3   OH240857   0.813   3.000   4.869 -0.0922 -0.7057  0.1121
 6481TIP3    H140858   0.771   2.975   4.786 -1.8475 -2.6416  1.5379
 6481TIP3    H240859   0.888   2.941   4.875 -1.7950 -2.7946  1.4092
 6482TIP3   OH240860   5.025   6.067  14.248 -0.2627 -0.2437  0.4841
 6482TIP3    H140861   4.935   6.044  14.269 -0.7122 -0.2598 -1.4263
 6482TIP3    H240862   5.044   6.144  14.302 -1.0644 -0.8557  1.6576
 6483TIP3   OH240863   3.995   4.911   1.267  0.7003  0.0896 -0.3672
 6483TIP3    H140864   3.904   4.928   1.290  0.7899 -1.3897  1.2584
 6483TIP3    H240865   4.045   4.977   1.314  0.6050 -0.5754  0.7051
 6484TIP3   OH240866   1.147   4.762   1.237 -0.2913 -0.0558  0.1968
 6484TIP3    H140867   1.210   4.729   1.300  2.2926  2.6452 -0.8845
 6484TIP3    H240868   1.151   4.699   1.164 -1.0992 -1.5062  1.3560
 6485TIP3   OH240869   6.622   5.580  12.727  0.1780  0.5756 -0.2662
 6485TIP3    H140870   6.675   5.560  12.804  0.6752  2.4012 -0.1078
 6485TIP3    H240871   6.538   5.609  12.761  0.1410  0.6687 -0.4327
 6486TIP3   OH240872   3.529   5.324   1.433  0.0313  0.7180 -0.2439
 6486TIP3    H140873   3.557   5.259   1.497  2.9397 -0.3011 -2.4055
 6486TIP3    H240874   3.456   5.282   1.387  2.0510 -1.2214 -1.8023
 6487TIP3   OH240875   4.615   3.262   5.180 -0.0209 -0.1871  0.4928
 6487TIP3    H140876   4.647   3.342   5.139  1.9324 -1.4709 -0.5837
 6487TIP3    H240877   4.586   3.289   5.267  0.2122  1.7545 -0.0197
 6488TIP3   OH240878   4.531   4.901  10.805  0.0850 -1.1787 -0.1158
 6488TIP3    H140879   4.498   4.833  10.863 -1.2359  1.0317  1.8111
 6488TIP3    H240880   4.452   4.942  10.769  0.8123  0.3845  0.0345
 6489TIP3   OH240881   0.359   6.781   4.206 -0.7077 -0.2612  0.2526
 6489TIP3    H140882   0.304   6.797   4.282 -0.9046 -1.0508  0.2889
 6489TIP3    H240883   0.373   6.686   4.206 -0.2368 -0.2003 -0.3666
 6490TIP3   OH240884   6.332   3.358  14.319 -0.4755 -0.3773 -0.2508
 6490TIP3    H140885   6.278   3.355  14.240 -1.5359  0.7367  0.4244
 6490TIP3    H240886   6.288   3.420  14.376  0.7624 -0.5214  0.8811
 6491TIP3   OH240887   4.015   4.146   1.035  0.0983 -0.0365  0.0524
 6491TIP3    H140888   4.066   4.073   1.002  3.3456  1.0364  2.4883
 6491TIP3    H240889   3.973   4.113   1.114 -0.2161  0.0971 -0.0571
 6492TIP3   OH240890   3.865   5.795   4.395 -0.7644  0.7145 -1.0411
 6492TIP3    H140891   3.775   5.824   4.412 -0.7103 -0.3208  1.2216
 6492TIP3    H240892   3.917   5.875   4.395 -1.4015  1.1305 -0.3701
 6493TIP3   OH240893   0.155   5.500   3.582 -0.6888  0.1509 -0.0022
 6493TIP3    H140894   0.081   5.543   3.539  1.0861  1.2099 -2.0506
 6493TIP3    H240895   0.219   5.570   3.597  0.6755 -1.0779  0.0390
 6494TIP3   OH240896   3.436   2.523  10.516 -0.4147 -0.3833  0.2985
 6494TIP3    H140897   3.481   2.439  10.522  0.6325  0.0180 -1.6387
 6494TIP3    H240898   3.354   2.503  10.471 -0.2832 -0.4182  0.0726
 6495TIP3   OH240899   4.957   5.993   3.587  0.0763 -0.6828 -0.0226
 6495TIP3    H140900   4.885   6.055   3.579  0.3294  0.2072  3.6586
 6495TIP3    H240901   5.031   6.037   3.545 -0.0572  1.0017  1.4733
 6496TIP3   OH240902   5.612   0.834   3.738  0.5732 -0.3006  0.1378
 6496TIP3    H140903   5.585   0.753   3.780  1.8246 -0.6112  0.3631
 6496TIP3    H240904   5.579   0.903   3.795 -1.3251 -0.6209 -0.5548
 6497TIP3   OH240905   1.492   1.977   1.292  0.3860 -0.1789 -0.7104
 6497TIP3    H140906   1.417   1.967   1.351  2.7028 -0.0810  2.3882
 6497TIP3    H240907   1.505   2.071   1.285  0.3422 -0.1994 -1.0593
 6498TIP3   OH240908   4.788   0.871  16.599  0.6621  0.0163  0.3806
 6498TIP3    H140909   4.870   0.887  16.646  0.6316 -2.8818  1.5722
 6498TIP3    H240910   4.728   0.838  16.667 -1.5223  2.0879 -0.4642
 6499TIP3   OH240911   5.999   5.296  16.017 -0.3042 -0.1559  0.6298
 6499TIP3    H140912   5.995   5.211  15.974  0.8277  0.8149 -1.5313
 6499TIP3    H240913   6.089   5.326  16.002 -1.6090  2.9282 -1.7936
 6500TIP3   OH240914   3.407   0.470   3.577  0.6056 -0.6342  0.2591
 6500TIP3    H140915   3.430   0.556   3.541  1.0857 -1.4112 -1.3278
 6500TIP3    H240916   3.343   0.489   3.646 -0.8566  0.8479 -1.4674
 6501TIP3   OH240917   0.681   0.747  13.036  0.2221  0.1097  0.1938
 6501TIP3    H140918   0.588   0.754  13.055  0.3273 -1.0516  1.1820
 6501TIP3    H240919   0.693   0.801  12.957 -1.7045 -1.5936 -1.3213
 6502TIP3   OH240920   2.691   4.180  16.041  0.7929 -0.6019  0.4776
 6502TIP3    H140921   2.739   4.150  15.963  1.0380 -0.0320  0.4079
 6502TIP3    H240922   2.757   4.223  16.095  0.2323  0.8532  0.0365
 6503TIP3   OH240923   3.621   3.919   2.703  0.1354 -0.5775 -0.1473
 6503TIP3    H140924   3.529   3.937   2.685  0.4115  0.3960 -0.6574
 6503TIP3    H240925   3.653   3.876   2.624  0.9951  2.3965 -1.4946
 6504TIP3   OH240926   3.667   4.410   5.121 -0.0208 -0.3886 -0.2622
 6504TIP3    H140927   3.736   4.475   5.133  0.5217 -1.4395  2.8007
 6504TIP3    H240928   3.589   4.449   5.162 -0.8791  0.1380 -2.3233
 6505TIP3   OH240929   1.831   1.812   2.063  0.1003  0.5263 -0.2039
 6505TIP3    H140930   1.896   1.858   2.009  1.6759 -0.7812  0.5262
 6505TIP3    H240931   1.794   1.747   2.004  1.8188 -0.8986  0.2348
 6506TIP3   OH240932   1.423   6.537   2.472 -0.6650  0.3574  1.1745
 6506TIP3    H140933   1.371   6.470   2.429  1.1087 -0.3882  0.1743
 6506TIP3    H240934   1.400   6.618   2.427 -1.8891  0.2476  1.5786
 6507TIP3   OH240935   6.381   6.410  16.345 -0.7285  0.6627  0.5124
 6507TIP3    H140936   6.384   6.392  16.439 -0.9587  1.1308  0.6113
 6507TIP3    H240937   6.397   6.325  16.304 -1.5963  0.2792  0.9711
 6508TIP3   OH240938   1.356   5.134   1.679  0.3939 -0.0848  0.4132
 6508TIP3    H140939   1.452   5.131   1.672  0.3382  0.6735 -0.7457
 6508TIP3    H240940   1.340   5.159   1.770  1.3259  0.9886  0.2989
 6509TIP3   OH240941   2.342   0.714  12.688 -0.6194 -0.1626  0.3527
 6509TIP3    H140942   2.263   0.696  12.738 -0.2665 -0.3789  0.8426
 6509TIP3    H240943   2.409   0.730  12.754  0.0458 -1.2994 -0.0180
 6510TIP3   OH240944   6.267   3.537   2.973 -0.0458 -0.7006  0.0804
 6510TIP3    H140945   6.253   3.595   3.048  0.6210 -0.2465 -0.1406
 6510TIP3    H240946   6.328   3.585   2.917  0.0104 -1.3464 -0.4130
 6511TIP3   OH240947   0.420   1.369   3.339 -0.7964  0.2314 -0.1267
 6511TIP3    H140948   0.478   1.376   3.264  0.2645  0.2847  0.6857
 6511TIP3    H240949   0.444   1.286   3.380 -1.4425  0.1499  0.0896
 6512TIP3   OH240950   2.933   1.437   5.367  0.1542 -0.4375  0.2269
 6512TIP3    H140951   2.959   1.512   5.421  2.2267 -0.5860 -0.5352
 6512TIP3    H240952   2.914   1.475   5.281  2.8934 -0.9477 -0.6576
 6513TIP3   OH240953   5.886   3.933  11.810  0.3052  0.7510 -0.8645
 6513TIP3    H140954   5.888   3.837  11.806 -1.9740  0.7425 -2.3926
 6513TIP3    H240955   5.978   3.958  11.812  0.9482 -1.4708 -0.0620
 6514TIP3   OH240956   4.244   3.855  13.420 -0.1009 -0.1167 -0.7082
 6514TIP3    H140957   4.324   3.803  13.434 -0.6514 -0.9021 -0.4535
 6514TIP3    H240958   4.247   3.922  13.488  0.3147 -0.1781 -0.6630
 6515TIP3   OH240959   1.515   4.252  13.549 -0.3038 -0.2004  0.1108
 6515TIP3    H140960   1.527   4.191  13.621  2.5920  0.1875 -0.0024
 6515TIP3    H240961   1.429   4.292  13.566 -0.3630 -1.2424  2.4687
 6516TIP3   OH240962   0.232   2.948   1.807 -0.4294  1.1576 -0.0381
 6516TIP3    H140963   0.241   3.037   1.773  0.9630  1.0096 -0.1084
 6516TIP3    H240964   0.187   2.958   1.890  0.6551  2.0416  0.4534
 6517TIP3   OH240965   4.804   4.714   5.288 -0.3965 -0.0157 -0.8275
 6517TIP3    H140966   4.755   4.711   5.370  0.5152 -1.1462 -0.3028
 6517TIP3    H240967   4.738   4.701   5.220 -1.2416  1.4977 -0.3217
 6518TIP3   OH240968   4.755   4.206  11.677 -0.1159  0.0616  0.8209
 6518TIP3    H140969   4.727   4.114  11.681 -2.3228  0.6200 -0.8035
 6518TIP3    H240970   4.723   4.243  11.759 -1.4930 -0.0414  0.3440
 6519TIP3   OH240971   1.224   4.093  12.597  0.0775  0.0157 -0.5403
 6519TIP3    H140972   1.307   4.133  12.572  0.3699  0.5497  1.2333
 6519TIP3    H240973   1.194   4.048  12.518  1.3858  0.9484 -1.5803
 6520TIP3   OH240974   5.600   5.780   5.483  0.0581 -0.7422  0.3445
 6520TIP3    H140975   5.609   5.875   5.496 -1.7508 -0.6878  1.3457
 6520TIP3    H240976   5.690   5.747   5.486  0.5679  0.7267  1.8591
 6521TIP3   OH240977   4.401   1.920  11.548  0.1305 -0.1817  0.0626
 6521TIP3    H140978   4.391   1.977  11.624  1.0850  0.2411 -0.1147
 6521TIP3    H240979   4.397   1.980  11.473  2.8032 -0.0882 -0.0581
 6522TIP3   OH240980   2.219   2.487  16.484 -0.5352  0.1606  0.1326
 6522TIP3    H140981   2.261   2.437  16.554 -3.5504  0.2761  2.0708
 6522TIP3    H240982   2.266   2.570  16.483  1.2390 -0.8072  0.2080
 6523TIP3   OH240983   0.093   2.493   3.491  0.5210 -0.5090  0.6757
 6523TIP3    H140984   0.010   2.456   3.522  1.1130 -2.0660  0.4753
 6523TIP3    H240985   0.068   2.554   3.422 -0.6077  0.7855  2.1999
 6524TIP3   OH240986   2.995   1.466  12.327 -0.2268  0.2321  0.0758
 6524TIP3    H140987   3.041   1.492  12.248 -1.4710  2.0446 -0.0731
 6524TIP3    H240988   2.932   1.400  12.298 -1.3272  1.5700 -0.6234
 6525TIP3   OH240989   5.887   6.297  11.457  0.0335 -0.6496  0.2098
 6525TIP3    H140990   5.919   6.208  11.444  1.2427 -0.2660  0.5421
 6525TIP3    H240991   5.963   6.346  11.489 -1.0761  0.0873  1.7847
 6526TIP3   OH240992   5.737   4.747  11.047 -0.1434 -0.7296  0.1042
 6526TIP3    H140993   5.683   4.817  11.010  3.4078  0.3765 -3.3191
 6526TIP3    H240994   5.764   4.695  10.972  3.6034 -1.1767  1.6779
 6527TIP3   OH240995   0.584   6.258   1.388 -0.2522 -0.1629 -0.0194
 6527TIP3    H140996   0.521   6.189   1.367 -0.6355  0.6282 -1.5537
 6527TIP3    H240997   0.534   6.339   1.379  0.1617  0.3388  1.8802
 6528TIP3   OH240998   3.605   5.374   5.119  0.0092 -0.2021  0.2816
 6528TIP3    H140999   3.529   5.406   5.072 -0.6936 -1.3559  0.6239
 6528TIP3    H241000   3.628   5.445   5.179 -0.0235  0.6477 -0.6996
 6529TIP3   OH241001   1.470   2.647  14.065 -0.0435 -0.0613 -0.3950
 6529TIP3    H141002   1.418   2.643  13.984  0.7534  0.1064 -0.9170
 6529TIP3    H241003   1.481   2.740  14.081  2.7084 -0.0664 -1.9806
 6530TIP3   OH241004   0.257   1.500  14.838 -0.2601  0.5736 -0.1434
 6530TIP3    H141005   0.211   1.434  14.890  2.1147  0.8677  2.4452
 6530TIP3    H241006   0.244   1.473  14.747 -3.0518 -0.9371  0.6681
 6531TIP3   OH241007   5.386   1.378   1.101  0.0748  0.2407 -0.3662
 6531TIP3    H141008   5.294   1.352   1.103  0.4982 -1.1892  0.9369
 6531TIP3    H241009   5.398   1.416   1.013 -1.4456 -0.6316 -0.9661
 6532TIP3   OH241010   4.803   1.293   5.652  0.2085 -0.2325 -0.2064
 6532TIP3    H141011   4.786   1.328   5.564 -1.3828 -1.6171 -0.4650
 6532TIP3    H241012   4.806   1.198   5.639  0.1545 -0.4320  1.2136
 6533TIP3   OH241013   5.367   1.864   5.987  0.0393 -0.1974  0.3005
 6533TIP3    H141014   5.408   1.877   5.902  0.0416 -0.6510  0.2335
 6533TIP3    H241015   5.314   1.785   5.977  1.6409 -1.4218  1.3202
 6534TIP3   OH241016   0.005   6.373   2.608  0.5145 -0.3312 -0.0360
 6534TIP3    H141017   0.029   6.303   2.669 -0.5615 -1.1815 -0.5687
 6534TIP3    H241018  -0.061   6.334   2.551  0.3075  0.9519 -0.7037
 6535TIP3   OH241019   3.974   0.184  13.767  0.2700  0.0042  0.5155
 6535TIP3    H141020   4.010   0.104  13.729  0.6651  0.8741 -0.9692
 6535TIP3    H241021   4.038   0.210  13.833  0.4665 -0.5405  0.5436
 6536TIP3   OH241022   1.009   2.607  15.583 -0.1125 -0.1267  0.2404
 6536TIP3    H141023   0.967   2.674  15.637  0.0687 -0.0294  0.2607
 6536TIP3    H241024   1.053   2.656  15.514  1.3144 -0.1187  1.1308
 6537TIP3   OH241025   3.358   0.258  13.595 -0.1478  0.0277 -0.0709
 6537TIP3    H141026   3.432   0.203  13.569 -1.5548 -2.2179  0.5203
 6537TIP3    H241027   3.318   0.285  13.512  0.3933 -0.0642 -0.3677
 6538TIP3   OH241028   3.730   3.384  11.391  0.2587 -0.5725 -0.5042
 6538TIP3    H141029   3.788   3.344  11.327  1.3181  0.6664 -0.3376
 6538TIP3    H241030   3.732   3.325  11.466 -1.8389 -2.6059 -1.9802
 6539TIP3   OH241031   3.224   0.017  13.426 -0.3864 -0.0479  0.1599
 6539TIP3    H141032   3.237  -0.027  13.342 -0.8171 -1.1812  0.6655
 6539TIP3    H241033   3.146   0.070  13.414  0.1140  0.5651 -0.4470
 6540TIP3   OH241034   1.538   0.916   5.284 -0.6974  0.0310  0.3350
 6540TIP3    H141035   1.566   0.998   5.244 -0.7335  0.3864  1.0281
 6540TIP3    H241036   1.481   0.942   5.356  0.3733 -0.5272  1.4173
 6541TIP3   OH241037   0.851   3.151  12.887 -0.2345  0.3774 -0.3376
 6541TIP3    H141038   0.800   3.185  12.960 -0.0438 -0.3424  0.1385
 6541TIP3    H241039   0.937   3.192  12.896 -0.8903  2.0182 -1.4614
 6542TIP3   OH241040   4.886   0.388   5.779  0.3897 -0.5802 -0.5200
 6542TIP3    H141041   4.810   0.348   5.823  1.4825  0.6936  2.7157
 6542TIP3    H241042   4.961   0.339   5.812  1.1984 -0.1690 -1.7269
 6543TIP3   OH241043   6.707   6.704  12.570 -0.3088  0.6430  0.4471
 6543TIP3    H141044   6.685   6.708  12.663  1.0788  2.2701  0.7326
 6543TIP3    H241045   6.800   6.725  12.566  0.0783 -1.2873 -1.1619
 6544TIP3   OH241046   1.706   4.596  12.468  0.0231  0.5793 -0.4114
 6544TIP3    H141047   1.795   4.578  12.435  0.1438 -1.0835  0.7301
 6544TIP3    H241048   1.690   4.525  12.530 -2.4008  0.4526 -1.1514
 6545TIP3   OH241049   0.589   5.914  13.214 -0.0831  0.1346  0.1711
 6545TIP3    H141050   0.603   5.820  13.202 -0.9144 -0.0501  0.5973
 6545TIP3    H241051   0.519   5.936  13.153  0.7200  0.6581 -0.5641
 6546TIP3   OH241052   5.169   6.110  14.556  0.0387  0.8392  0.1108
 6546TIP3    H141053   5.124   6.194  14.544 -2.6987 -0.0896  3.1782
 6546TIP3    H241054   5.224   6.124  14.634  0.6001  0.1477 -0.1549
 6547TIP3   OH241055   2.237   0.827   1.167 -0.1986  0.3887  0.3072
 6547TIP3    H141056   2.262   0.896   1.106 -0.1150  0.7578  0.7601
 6547TIP3    H241057   2.167   0.780   1.122  0.7937 -0.1876 -0.6431
 6548TIP3   OH241058   1.844   2.793  15.770 -0.6474 -0.0314 -0.9550
 6548TIP3    H141059   1.862   2.700  15.786 -1.1373  0.1175  0.5820
 6548TIP3    H241060   1.929   2.830  15.745 -0.1283 -0.6041 -0.0823
 6549TIP3   OH241061   1.196   0.965  12.262 -0.0745 -0.3356 -0.8115
 6549TIP3    H141062   1.122   0.929  12.311 -0.8003  1.4227 -0.5726
 6549TIP3    H241063   1.158   1.037  12.211  1.4324  0.5099 -0.7766
 6550TIP3   OH241064   3.266   6.049   2.833  0.2141  0.9057  0.3174
 6550TIP3    H141065   3.283   6.093   2.916 -0.6820 -0.6167  1.3341
 6550TIP3    H241066   3.183   6.085   2.803 -0.7317 -0.3347  1.3585
 6551TIP3   OH241067   0.920   4.969   3.231 -0.6934 -0.0141  0.6796
 6551TIP3    H141068   0.981   4.898   3.212 -1.6099 -0.8044  0.6340
 6551TIP3    H241069   0.928   4.984   3.325  2.3945  2.5431  0.0792
 6552TIP3   OH241070   1.401   4.975   4.216  0.6113 -0.8478  0.4211
 6552TIP3    H141071   1.420   4.942   4.128  0.6711  0.2816  0.0017
 6552TIP3    H241072   1.307   4.996   4.213  0.4471 -1.4930  0.8603
 6553TIP3   OH241073   1.204   1.858   4.147 -0.5122 -0.3371 -0.4529
 6553TIP3    H141074   1.125   1.843   4.200 -0.6281  1.6317 -0.0354
 6553TIP3    H241075   1.207   1.953   4.136  1.3127 -0.4824 -1.2461
 6554TIP3   OH241076   6.441   4.944  14.300  0.5857  0.3143 -0.1226
 6554TIP3    H141077   6.400   4.866  14.336  0.5524  0.5750  0.4161
 6554TIP3    H241078   6.535   4.925  14.299  0.6062  0.3952  0.3226
 6555TIP3   OH241079   3.943   1.299  14.352  0.0010  0.5842  0.3655
 6555TIP3    H141080   3.872   1.235  14.343  0.9604 -0.2925 -1.1687
 6555TIP3    H241081   3.901   1.383  14.337 -0.7617  0.0938 -0.2992
 6556TIP3   OH241082   2.539   4.508   3.957  0.9332  0.2374  0.3466
 6556TIP3    H141083   2.529   4.473   3.868  2.8343  1.7701 -0.5254
 6556TIP3    H241084   2.585   4.591   3.945 -1.6121  2.0432  2.5357
 6557TIP3   OH241085   4.112   2.214  15.601 -0.5546  0.2572  0.4242
 6557TIP3    H141086   4.207   2.204  15.613 -0.2762  0.0741 -1.6845
 6557TIP3    H241087   4.077   2.127  15.618 -0.3020  0.2389  0.8600
 6558TIP3   OH241088   6.589   0.689  15.706 -0.1879  0.5683 -0.4817
 6558TIP3    H141089   6.499   0.718  15.722 -0.4165  0.2453 -1.1819
 6558TIP3    H241090   6.581   0.617  15.643  0.7343  2.3129 -2.6639
 6559TIP3   OH241091   0.397   6.690   5.340 -0.6282  0.0739 -0.0513
 6559TIP3    H141092   0.418   6.759   5.277 -2.4838 -0.5929 -1.4011
 6559TIP3    H241093   0.320   6.647   5.305  1.5533 -3.9145 -0.1589
 6560TIP3   OH241094   6.555   3.824  17.202 -0.6245  0.7847 -0.4471
 6560TIP3    H141095   6.613   3.827  17.278 -0.9838  1.4378 -0.1979
 6560TIP3    H241096   6.490   3.757  17.225 -0.0020  0.0752 -0.7137
 6561TIP3   OH241097   4.982   0.982  13.458  0.4950 -0.3655  0.1868
 6561TIP3    H141098   4.930   1.058  13.485  3.0186  2.0298 -1.4605
 6561TIP3    H241099   4.960   0.914  13.522 -3.2393  1.1202  0.5910
 6562TIP3   OH241100   1.678   5.383   2.342  0.6453  0.7186  0.8289
 6562TIP3    H141101   1.587   5.384   2.311  1.2177 -1.0415 -0.9468
 6562TIP3    H241102   1.672   5.352   2.432 -0.4748  0.2452  0.6018
 6563TIP3   OH241103   2.489   4.040  15.785  0.2148  0.1811  0.0015
 6563TIP3    H141104   2.476   4.133  15.766 -2.6374 -0.0163  0.7439
 6563TIP3    H241105   2.404   3.999  15.765  1.1639 -2.1190  0.4926
 6564TIP3   OH241106   0.722   5.741   0.025  0.4237 -0.0644 -0.4917
 6564TIP3    H141107   0.747   5.827   0.058 -1.1870 -0.9628  3.3954
 6564TIP3    H241108   0.784   5.680   0.065 -0.2439 -1.0024 -0.8522
 6565TIP3   OH241109   6.370   3.947  15.944 -0.4843 -0.1890  0.1081
 6565TIP3    H141110   6.384   3.862  15.985 -2.4407 -0.4766  0.1930
 6565TIP3    H241111   6.421   4.008  15.997  3.4054 -1.6780 -1.6620
 6566TIP3   OH241112   3.556   2.083  12.133  0.7085  0.1907 -0.9056
 6566TIP3    H141113   3.591   2.172  12.127 -0.4260  1.1556  4.2167
 6566TIP3    H241114   3.598   2.046  12.211 -1.6244 -2.4041 -0.7806
 6567TIP3   OH241115   6.006   3.112  10.960  0.3276  0.0288  0.3591
 6567TIP3    H141116   6.000   3.207  10.951  1.0304  0.0871  0.5135
 6567TIP3    H241117   5.928   3.079  10.915  0.7128  0.6219 -0.7584
 6568TIP3   OH241118   2.123   2.000  11.244  0.0074  0.5372  0.2064
 6568TIP3    H141119   2.060   1.950  11.192  0.8875  0.2741 -0.5983
 6568TIP3    H241120   2.208   1.976  11.209  0.4551  2.5510 -0.1487
 6569TIP3   OH241121   1.110   4.784  16.807  0.3451 -0.2513 -0.5037
 6569TIP3    H141122   1.179   4.767  16.743  0.6248 -1.2154  0.0486
 6569TIP3    H241123   1.041   4.721  16.786  0.5055 -0.6775  0.2381
 6570TIP3   OH241124   4.894   6.050   0.127 -0.3274  0.0303  0.4813
 6570TIP3    H141125   4.863   6.027   0.040 -1.8368  2.5475  0.3055
 6570TIP3    H241126   4.840   5.998   0.187  1.8246 -2.9813 -0.0219
 6571TIP3   OH241127   5.592   6.587  13.797 -0.6430  0.1807  0.3483
 6571TIP3    H141128   5.627   6.570  13.884  0.5363  0.5496 -0.0361
 6571TIP3    H241129   5.637   6.523  13.741 -2.8095 -1.3657  0.2843
 6572TIP3   OH241130   0.234   0.282   6.150 -0.0879 -0.1151 -0.7517
 6572TIP3    H141131   0.271   0.370   6.148  1.1352 -0.5588  1.2736
 6572TIP3    H241132   0.140   0.296   6.141 -0.1096  1.5729  1.6213
 6573TIP3   OH241133   2.270   3.567   2.056  0.5662 -0.2784 -0.6740
 6573TIP3    H141134   2.190   3.606   2.019  0.8173  0.5344 -0.3711
 6573TIP3    H241135   2.273   3.479   2.019  0.8224  0.5194 -2.6559
 6574TIP3   OH241136   4.419   4.122  11.941  0.6584 -0.0309 -0.4400
 6574TIP3    H141137   4.408   4.080  11.856 -1.1143  0.2698 -0.3815
 6574TIP3    H241138   4.397   4.054  12.005  1.4384 -0.0946 -0.2376
 6575TIP3   OH241139   6.124   4.546   0.280 -0.5334  0.5383 -0.2400
 6575TIP3    H141140   6.084   4.628   0.307 -1.0912  0.8031 -1.8207
 6575TIP3    H241141   6.109   4.487   0.354 -1.9380  1.2668  0.0821
 6576TIP3   OH241142   3.257   1.622   4.736 -0.0093  0.2219  0.1896
 6576TIP3    H141143   3.187   1.669   4.783 -0.3040 -1.4454  1.4683
 6576TIP3    H241144   3.215   1.542   4.704  0.9781 -0.1283 -0.2598
 6577TIP3   OH241145   6.273   4.489  12.695  0.0643 -0.4599  0.1600
 6577TIP3    H141146   6.182   4.470  12.718 -0.2086  2.2301  1.6314
 6577TIP3    H241147   6.267   4.551  12.623  0.6291  1.2730  1.5526
 6578TIP3   OH241148   5.243   1.997  14.149 -0.5218 -0.0740  0.9294
 6578TIP3    H141149   5.250   1.917  14.097  0.4424 -1.2915  2.8719
 6578TIP3    H241150   5.321   1.997  14.204 -0.1246  2.6319  0.4041
 6579TIP3   OH241151   4.607   5.959  11.027  0.2687 -0.1224  0.3511
 6579TIP3    H141152   4.563   5.917  10.954  0.9742 -1.1048  0.4890
 6579TIP3    H241153   4.683   6.003  10.988  2.3676 -3.1431  0.8555
 6580TIP3   OH241154   2.779   6.771  11.501 -0.4289  0.5684  0.3461
 6580TIP3    H141155   2.763   6.812  11.416 -2.8415 -1.2825 -0.1448
 6580TIP3    H241156   2.740   6.831  11.564 -2.2929 -0.0188 -0.2159
 6581TIP3   OH241157   2.314   2.809  15.390 -0.3411 -0.2432 -0.3753
 6581TIP3    H141158   2.291   2.899  15.415  0.6485  0.0793 -0.5667
 6581TIP3    H241159   2.256   2.789  15.316  0.4061  0.7799 -1.2635
 6582TIP3   OH241160   1.164   2.783  12.780  0.2095 -0.1117  0.1899
 6582TIP3    H141161   1.201   2.714  12.836 -1.0476 -0.9705 -0.0266
 6582TIP3    H241162   1.120   2.842  12.841  1.4936  0.6548  0.4010
 6583TIP3   OH241163   1.124   4.171  16.820  0.0565  0.9784 -0.2941
 6583TIP3    H141164   1.202   4.222  16.801  0.0884  0.4329 -1.7095
 6583TIP3    H241165   1.075   4.223  16.884  1.1579  1.7154 -0.0499
 6584TIP3   OH241166   3.900   2.581   1.661 -0.2044 -0.3413  0.5308
 6584TIP3    H141167   3.981   2.545   1.697  0.6664 -1.2964 -2.2736
 6584TIP3    H241168   3.831   2.524   1.696  0.3988 -0.0447  2.2388
 6585TIP3   OH241169   6.545   0.024  17.235 -0.5476 -0.1874 -0.0165
 6585TIP3    H141170   6.633   0.017  17.270 -1.0664 -1.0181  1.1648
 6585TIP3    H241171   6.536  -0.052  17.177 -0.6402 -0.3653  0.2283
 6586TIP3   OH241172   4.795   0.199  13.076  0.5901  0.3614  0.2649
 6586TIP3    H141173   4.763   0.129  13.133  0.8737 -1.0067 -1.2186
 6586TIP3    H241174   4.887   0.208  13.099  0.2654  1.0830  1.2964
 6587TIP3   OH241175   6.040   4.360   3.207  0.0287  0.2542 -0.0792
 6587TIP3    H141176   6.068   4.417   3.278  1.7270 -2.6251  1.6365
 6587TIP3    H241177   5.968   4.309   3.243  0.8252 -1.1476 -0.4349
 6588TIP3   OH241178   1.702   5.699  16.649  0.2223 -0.1467 -0.0396
 6588TIP3    H141179   1.673   5.707  16.740  0.3063  0.2444 -0.0472
 6588TIP3    H241180   1.766   5.769  16.638 -1.1585  0.9886 -0.9469
 6589TIP3   OH241181   2.165   6.533   3.251 -0.4071 -0.0769 -0.3968
 6589TIP3    H141182   2.094   6.592   3.274  0.3971  0.4959  0.6436
 6589TIP3    H241183   2.172   6.541   3.155 -0.0253  1.8535 -0.2357
 6590TIP3   OH241184   2.295   1.959  14.883  0.5378 -0.4633  0.2000
 6590TIP3    H141185   2.231   2.001  14.826  0.6197  1.2760  1.3670
 6590TIP3    H241186   2.328   1.885  14.831 -1.1633 -0.3670 -1.0468
 6591TIP3   OH241187   4.363   5.570   3.879  0.3136  0.4174  0.2699
 6591TIP3    H141188   4.389   5.487   3.919 -1.5044  0.2411  1.1409
 6591TIP3    H241189   4.388   5.637   3.943 -1.7661  0.2064  1.3483
 6592TIP3   OH241190   1.926   6.290   2.001  0.4720 -0.0902  0.5939
 6592TIP3    H141191   1.940   6.221   1.936  1.0784  0.1484  0.4665
 6592TIP3    H241192   1.967   6.368   1.964 -0.2325  0.3511  0.7290
 6593TIP3   OH241193   4.893   3.873  15.627  0.7432 -0.2067 -0.0424
 6593TIP3    H141194   4.981   3.895  15.657  0.4490  0.1572  0.5548
 6593TIP3    H241195   4.878   3.933  15.553  0.8976 -0.0962  0.0144
 6594TIP3   OH241196   5.363   6.528   0.013 -0.6937 -0.0967 -0.0433
 6594TIP3    H141197   5.438   6.488  -0.031 -0.1183  0.1529  0.7095
 6594TIP3    H241198   5.387   6.530   0.106 -1.0893  1.1545  0.0491
 6595TIP3   OH241199   1.396   3.572   4.330 -0.7855 -0.1518  0.0229
 6595TIP3    H141200   1.305   3.602   4.328 -0.1460  1.7794 -1.1197
 6595TIP3    H241201   1.401   3.506   4.261 -1.4041 -0.4751  0.2895
 6596TIP3   OH241202   0.119   1.535   2.687 -0.3304 -0.9646 -0.2100
 6596TIP3    H141203   0.087   1.543   2.777 -0.0612 -4.0357  0.2041
 6596TIP3    H241204   0.207   1.573   2.690 -0.8482  0.2011  0.4931
 6597TIP3   OH241205   5.889   3.635  12.598  0.0743  0.0849 -0.2848
 6597TIP3    H141206   5.863   3.577  12.526  0.7824  0.2028 -0.6464
 6597TIP3    H241207   5.887   3.579  12.676 -0.1706 -0.1811 -0.4812
 6598TIP3   OH241208   0.692   2.384  12.075 -0.5546  0.0322  0.2432
 6598TIP3    H141209   0.685   2.352  12.165 -0.5310 -0.3025  0.1265
 6598TIP3    H241210   0.614   2.438  12.063  0.9046  2.4673  1.4057
 6599TIP3   OH241211   3.690   4.088   5.714 -0.6573 -0.0688  0.0248
 6599TIP3    H141212   3.768   4.135   5.683 -0.1419 -0.1208  1.1993
 6599TIP3    H241213   3.724   4.026   5.780 -1.7799  0.4805  1.1418
 6600TIP3   OH241214   2.546   1.665   3.341  0.3488  0.2893 -0.2914
 6600TIP3    H141215   2.461   1.678   3.384  1.4141  2.3041  1.2557
 6600TIP3    H241216   2.532   1.697   3.252 -0.6621  0.0463 -0.2329
 6601TIP3   OH241217   0.944   0.954   1.426 -0.7558  0.3520 -0.0379
 6601TIP3    H141218   0.913   0.953   1.335 -1.2712  1.0146  0.1282
 6601TIP3    H241219   1.016   0.892   1.427 -1.7395 -0.8342 -0.5575
 6602TIP3   OH241220   4.394   3.408   4.169  0.1672  0.5355 -0.1654
 6602TIP3    H141221   4.384   3.503   4.171  1.5186  0.7296  5.2811
 6602TIP3    H241222   4.304   3.374   4.171 -0.3194  1.6317 -2.0662
 6603TIP3   OH241223   3.206   3.126   4.533 -0.3403 -0.5549 -0.3253
 6603TIP3    H141224   3.251   3.203   4.566 -0.3320 -0.6594 -0.0849
 6603TIP3    H241225   3.130   3.160   4.487 -0.9227 -0.4342  0.6955
 6604TIP3   OH241226   2.209   6.306  11.838  0.3869 -0.4028 -0.2618
 6604TIP3    H141227   2.203   6.233  11.776  1.9414  0.7902 -1.8700
 6604TIP3    H241228   2.149   6.371  11.803  2.4923  0.9344 -1.4850
 6605TIP3   OH241229   2.977   0.834  13.597 -0.7564  0.4121 -0.0946
 6605TIP3    H141230   2.942   0.772  13.533  1.8444 -0.7576 -0.4394
 6605TIP3    H241231   2.945   0.803  13.681 -0.4095 -0.7314 -0.3851
 6606TIP3   OH241232   3.382   5.396  14.849  0.4605 -0.5476  0.0377
 6606TIP3    H141233   3.431   5.455  14.791 -1.0709 -1.3442 -2.1329
 6606TIP3    H241234   3.351   5.326  14.792 -1.4514 -1.1535  1.7508
 6607TIP3   OH241235   1.466   4.466   2.300 -0.2981 -0.3646  0.2330
 6607TIP3    H141236   1.407   4.417   2.242  0.9735  0.6364 -1.9511
 6607TIP3    H241237   1.422   4.465   2.385 -1.1400 -3.8198 -0.1426
 6608TIP3   OH241238   0.824   6.614   4.056 -0.0392 -0.0436 -0.5148
 6608TIP3    H141239   0.750   6.648   4.107 -1.9988 -1.3728 -2.3532
 6608TIP3    H241240   0.834   6.676   3.984 -0.0474 -0.4252 -0.8477
 6609TIP3   OH241241   3.256   6.314   6.056  0.0105  0.3777  0.0694
 6609TIP3    H141242   3.313   6.321   6.133  1.7354  1.7577 -1.2677
 6609TIP3    H241243   3.290   6.381   5.996 -0.6813 -1.3165 -2.2646
 6610TIP3   OH241244   6.584   6.476  13.572  0.2246  0.3105 -0.0792
 6610TIP3    H141245   6.633   6.411  13.521  0.4756 -0.2005  0.7925
 6610TIP3    H241246   6.581   6.439  13.660 -0.6057  0.9659  0.1703
 6611TIP3   OH241247   2.268   5.949   2.814  0.3688  0.0280  0.0811
 6611TIP3    H141248   2.287   5.972   2.723  1.2210 -0.3510  0.1525
 6611TIP3    H241249   2.273   6.031   2.862 -1.1173  0.3945 -0.3736
 6612TIP3   OH241250   3.659   3.149   1.640  0.2749 -0.0894 -0.2820
 6612TIP3    H141251   3.629   3.069   1.682  2.0841 -0.2905  0.6527
 6612TIP3    H241252   3.610   3.219   1.685 -1.8810 -0.6925 -1.6335
 6613TIP3   OH241253   1.213   0.654   5.572  0.1512 -0.7985 -0.2897
 6613TIP3    H141254   1.270   0.598   5.518  1.9595  0.7027  0.0206
 6613TIP3    H241255   1.267   0.676   5.648 -0.4051  1.6256 -0.5576
 6614TIP3   OH241256   1.512   1.118  11.897 -0.2475 -0.4577  0.2006
 6614TIP3    H141257   1.607   1.129  11.898 -0.3443  0.5808 -0.6376
 6614TIP3    H241258   1.483   1.147  11.983  0.1520 -0.3939  0.3127
 6615TIP3   OH241259   5.101   2.915   5.048 -0.2886  0.5600 -0.0933
 6615TIP3    H141260   5.056   2.918   5.132 -0.7843 -0.6396 -0.3034
 6615TIP3    H241261   5.181   2.966   5.061 -0.6858  0.9303  0.9045
 6616TIP3   OH241262   5.456   1.089  14.062  0.4701 -0.4034 -0.4342
 6616TIP3    H141263   5.541   1.128  14.044  0.3617  0.7272  1.4089
 6616TIP3    H241264   5.392   1.149  14.023  0.3291  1.0994  1.9785
 6617TIP3   OH241265   2.226   6.047   5.882 -0.0329  0.1232  0.0141
 6617TIP3    H141266   2.151   6.020   5.935  1.3129  0.7728  2.2949
 6617TIP3    H241267   2.298   6.053   5.943  1.7287  0.3232 -2.0184
 6618TIP3   OH241268   0.223   6.148  14.609  0.3358  0.6563 -0.3451
 6618TIP3    H141269   0.306   6.193  14.627  0.2969  0.4602  0.3586
 6618TIP3    H241270   0.222   6.135  14.514  1.6874 -0.4679 -0.2185
 6619TIP3   OH241271   2.884   3.276  12.813  0.4500 -0.1471  0.0966
 6619TIP3    H141272   2.914   3.288  12.903 -0.1788 -1.1708  0.4600
 6619TIP3    H241273   2.798   3.235  12.822  0.1886  0.1552 -0.9641
 6620TIP3   OH241274   3.112   5.294   1.784 -0.6129 -0.0784 -0.6631
 6620TIP3    H141275   3.207   5.286   1.779 -0.6913 -0.3364 -1.9305
 6620TIP3    H241276   3.095   5.388   1.781 -0.4303 -0.0612 -1.1738
 6621TIP3   OH241277   1.358   2.324   0.551 -0.3253 -0.5239  0.4569
 6621TIP3    H141278   1.348   2.277   0.634  3.5891 -2.6401 -0.1314
 6621TIP3    H241279   1.328   2.262   0.485 -0.4099 -0.0603  0.0646
 6622TIP3   OH241280   6.019   1.796   0.781  0.0576 -0.5385 -0.0227
 6622TIP3    H141281   5.941   1.752   0.814 -0.3820  2.3009  2.9561
 6622TIP3    H241282   6.088   1.770   0.842  0.3600  0.8248  0.2170
 6623TIP3   OH241283   4.953   6.782  10.986 -0.0333 -0.6942  0.1060
 6623TIP3    H141284   5.018   6.833  10.937 -0.4850  0.1893  0.4226
 6623TIP3    H241285   4.884   6.763  10.923 -0.2610 -0.1955  0.2038
 6624TIP3   OH241286   3.904   3.677   2.310 -0.1168 -0.4192 -0.2452
 6624TIP3    H141287   3.862   3.607   2.260 -1.1164  0.8007 -1.1258
 6624TIP3    H241288   3.942   3.734   2.244 -1.3442  1.1489  0.3967
 6625TIP3   OH241289   2.790   5.631   0.652  0.1365  0.5132  0.0075
 6625TIP3    H141290   2.832   5.700   0.704 -0.0725 -1.8768  3.5127
 6625TIP3    H241291   2.696   5.651   0.658  0.1767  0.7744 -0.2342
 6626TIP3   OH241292   1.174   5.725   1.952 -0.2543 -0.2008 -0.0402
 6626TIP3    H141293   1.266   5.720   1.979 -0.2245  1.8985  0.3198
 6626TIP3    H241294   1.125   5.692   2.027  0.1184  0.5338  0.5355
 6627TIP3   OH241295   5.065   6.303   5.299  0.0564 -0.0659  0.5520
 6627TIP3    H141296   5.158   6.311   5.320 -0.1177  3.9128  0.2769
 6627TIP3    H241297   5.056   6.345   5.214 -1.7460 -1.9469 -0.2161
 6628TIP3   OH241298   3.873   5.869   0.703 -0.7490 -0.2283  0.2117
 6628TIP3    H141299   3.804   5.817   0.745 -1.1154  0.6487  0.6943
 6628TIP3    H241300   3.835   5.956   0.693 -0.4146 -0.2286 -1.2971
 6629TIP3   OH241301   1.655   4.104   4.717 -0.1151  0.2364 -0.1316
 6629TIP3    H141302   1.613   4.190   4.710 -1.8170 -0.5233  0.4417
 6629TIP3    H241303   1.719   4.103   4.646 -0.3810  1.8111 -0.4164
 6630TIP3   OH241304   3.302   1.180  12.312 -0.1696 -0.1432 -0.1064
 6630TIP3    H141305   3.239   1.224  12.368  0.7532  0.2937  0.6128
 6630TIP3    H241306   3.356   1.128  12.372  2.0517  1.8143 -0.3179
 6631TIP3   OH241307   1.080   4.344  11.814  0.2292  0.2521 -0.2632
 6631TIP3    H141308   1.015   4.280  11.844 -0.4942  0.8783 -0.4955
 6631TIP3    H241309   1.046   4.429  11.844  0.7458  0.6228 -0.7136
 6632TIP3   OH241310   1.975   5.288  14.949 -0.2049  0.2581 -0.4734
 6632TIP3    H141311   1.971   5.200  14.913  1.2802  0.7272 -1.8772
 6632TIP3    H241312   2.069   5.307  14.955 -0.4972  1.5915  0.1836
 6633TIP3   OH241313   2.366   5.139  16.678 -0.7409  0.0309 -0.0591
 6633TIP3    H141314   2.436   5.119  16.741 -1.3176 -0.3407  0.4723
 6633TIP3    H241315   2.342   5.229  16.697 -1.0011 -0.1222  0.3431
 6634TIP3   OH241316   0.931   5.176  11.371  0.0013 -0.1961 -0.1697
 6634TIP3    H141317   0.939   5.096  11.320  0.1121  0.6899 -1.5902
 6634TIP3    H241318   0.853   5.163  11.425 -1.2729 -0.3911 -2.0144
 6635TIP3   OH241319   0.892   6.309   0.775  0.1952  0.0446  0.3831
 6635TIP3    H141320   0.905   6.310   0.869 -0.7191  0.6006  0.5098
 6635TIP3    H241321   0.974   6.345   0.739  0.9253 -1.0825  0.9079
 6636TIP3   OH241322   1.129   5.780  16.079 -0.1257 -1.0428  0.0235
 6636TIP3    H141323   1.159   5.871  16.083 -1.4023 -0.5666 -0.8526
 6636TIP3    H241324   1.104   5.759  16.169 -0.4370 -0.3124  0.1118
 6637TIP3   OH241325   5.700   3.974  13.513 -0.2705 -0.5996 -0.0626
 6637TIP3    H141326   5.614   3.970  13.554 -0.3350 -1.8213 -0.2883
 6637TIP3    H241327   5.751   3.905  13.556  0.6462  0.2164  0.1788
 6638TIP3   OH241328   4.253   0.971  16.356 -0.7894  0.1805  0.3451
 6638TIP3    H141329   4.225   1.059  16.382 -0.2900  0.4099  0.1230
 6638TIP3    H241330   4.244   0.970  16.261 -0.5702  0.0758  0.3252
 6639TIP3   OH241331   1.284   2.860   0.114 -0.2715  0.4667 -0.1918
 6639TIP3    H141332   1.343   2.935   0.107  0.1949 -0.0300 -1.6992
 6639TIP3    H241333   1.231   2.863   0.035 -0.4237 -0.6430 -0.1461
 6640TIP3   OH241334   5.328   3.597   3.566  0.0252 -0.8280  0.4346
 6640TIP3    H141335   5.308   3.605   3.473  0.3427  1.4352  0.5230
 6640TIP3    H241336   5.316   3.504   3.585 -0.0691 -1.3282 -1.8490
 6641TIP3   OH241337   1.126   3.949   2.751  0.1569 -0.0179 -0.2991
 6641TIP3    H141338   1.139   3.942   2.656 -1.5346 -1.0295 -0.4736
 6641TIP3    H241339   1.153   3.863   2.784 -1.8832 -0.6522 -0.1990
 6642TIP3   OH241340   3.056   0.712  15.290  0.3686 -0.1837  0.4724
 6642TIP3    H141341   3.111   0.718  15.367  0.3339 -0.7623  0.5479
 6642TIP3    H241342   2.971   0.683  15.323 -0.1194  1.1768  0.4177
 6643TIP3   OH241343   1.032   2.949   4.674  0.2038  0.7223 -0.5841
 6643TIP3    H141344   1.042   3.030   4.624 -1.1972  0.6310 -1.0432
 6643TIP3    H241345   0.988   2.889   4.614  1.6930 -0.5545 -0.4130
 6644TIP3   OH241346   5.538   2.191   5.511 -0.2854  0.1871 -0.0305
 6644TIP3    H141347   5.532   2.103   5.547  0.6386  0.8184  1.7640
 6644TIP3    H241348   5.606   2.186   5.444  0.1334 -0.3601  0.4342
 6645TIP3   OH241349   2.798   5.409   3.210 -0.1148  0.2124  0.3039
 6645TIP3    H141350   2.887   5.378   3.226 -1.0972 -1.5408  2.5984
 6645TIP3    H241351   2.757   5.339   3.159 -0.2009  1.0353 -0.7839
 6646TIP3   OH241352   2.618   5.839  16.153 -0.5760 -0.0790  0.1965
 6646TIP3    H141353   2.671   5.808  16.079 -1.8417  0.6443 -1.0381
 6646TIP3    H241354   2.591   5.927  16.128 -0.4711  0.4428  1.8414
 6647TIP3   OH241355   3.534   4.009  10.481 -0.1735 -0.1014 -0.2226
 6647TIP3    H141356   3.591   3.936  10.506  0.0312  0.0457 -0.2535
 6647TIP3    H241357   3.473   4.019  10.553  0.0891 -0.0100 -0.0119
 6648TIP3   OH241358   0.927   6.268   2.511 -0.2531  0.4881  0.1144
 6648TIP3    H141359   0.900   6.352   2.473  1.2119  0.8926 -0.0739
 6648TIP3    H241360   1.001   6.291   2.568 -1.5608 -0.3010  2.1758
 6649TIP3   OH241361   4.194   2.026   1.163 -0.0718  0.4441  0.0005
 6649TIP3    H141362   4.280   2.033   1.204 -0.1745  0.6641  0.1759
 6649TIP3    H241363   4.142   1.974   1.224  0.3690 -0.9469 -0.7918
 6650TIP3   OH241364   3.637   4.276  12.210 -0.5201 -0.0392  0.4856
 6650TIP3    H141365   3.726   4.240  12.201 -0.8997 -0.6717 -0.8726
 6650TIP3    H241366   3.581   4.199  12.217 -1.0470  0.3479  0.5307
 6651TIP3   OH241367   2.120   6.016   6.977  0.3550  0.3560  0.1139
 6651TIP3    H141368   2.133   6.111   6.973 -1.8402  0.5948 -1.7598
 6651TIP3    H241369   2.190   5.980   6.923 -1.0784  1.1503 -2.3523
 6652TIP3   OH241370   4.916   5.857  12.548  0.1028 -0.1524 -0.1565
 6652TIP3    H141371   5.000   5.862  12.501  0.8792  1.1573  1.3410
 6652TIP3    H241372   4.852   5.895  12.487  1.2070  2.1376  0.0701
 6653TIP3   OH241373   3.981   3.892   3.862  0.0457 -0.0663  0.1198
 6653TIP3    H141374   4.005   3.964   3.920  1.8614 -0.5812  0.0623
 6653TIP3    H241375   4.011   3.919   3.775 -0.2760 -0.4112 -0.1044
 6654TIP3   OH241376   3.698   6.707   0.112 -0.4583 -0.2023 -0.1281
 6654TIP3    H141377   3.755   6.783   0.102  0.3900 -0.7030  0.8900
 6654TIP3    H241378   3.743   6.637   0.064 -2.0746  0.3484 -2.5312
 6655TIP3   OH241379   2.071   5.654   0.749  0.8128 -0.1166 -0.4030
 6655TIP3    H141380   2.092   5.604   0.828  0.0075 -2.1357 -1.4093
 6655TIP3    H241381   1.994   5.706   0.773  1.1414 -0.0102  0.4203
 6656TIP3   OH241382   0.379   6.183  12.809 -0.6488  0.6980 -0.0441
 6656TIP3    H141383   0.290   6.151  12.824 -1.7301  2.5898 -2.1392
 6656TIP3    H241384   0.374   6.276  12.829  0.7230  0.9166 -0.6768
 6657TIP3   OH241385   2.868   0.671   5.701  0.1589 -0.3025 -0.4110
 6657TIP3    H141386   2.794   0.732   5.699 -0.2922 -0.8303  0.3629
 6657TIP3    H241387   2.866   0.633   5.788  0.9527 -0.8044 -0.6093
 6658TIP3   OH241388   2.294   3.681  13.087 -0.0669  0.3583 -0.1820
 6658TIP3    H141389   2.250   3.600  13.111  0.4337 -0.2601 -1.3204
 6658TIP3    H241390   2.341   3.660  13.006  2.1812  1.0374  0.9075
 6659TIP3   OH241391   1.281   3.337  10.778  0.3941 -0.1793 -0.6348
 6659TIP3    H141392   1.364   3.356  10.733 -0.7767 -0.6048 -3.0702
 6659TIP3    H241393   1.305   3.326  10.870  2.5514  3.0501 -0.7309
 6660TIP3   OH241394   4.241   1.093   0.634  0.5899 -0.9600  0.4425
 6660TIP3    H141395   4.316   1.130   0.587  0.6663 -0.6994  0.7627
 6660TIP3    H241396   4.223   1.156   0.704  0.0074 -0.9748  0.3098
 6661TIP3   OH241397   6.677   4.454  11.945  0.3913 -0.4340 -0.8862
 6661TIP3    H141398   6.707   4.475  12.034  2.4625 -1.8290 -1.2107
 6661TIP3    H241399   6.758   4.441  11.895 -0.7594 -1.4198 -2.5530
 6662TIP3   OH241400   1.187   4.740  15.359 -0.1083  0.5760 -0.3620
 6662TIP3    H141401   1.215   4.744  15.451 -1.9525  1.6793  0.1977
 6662TIP3    H241402   1.160   4.649  15.346 -0.4190  0.5492  0.3994
 6663TIP3   OH241403   4.703   4.018  15.787  0.0386 -0.0969  0.0765
 6663TIP3    H141404   4.634   4.067  15.743  0.4609 -0.6102 -1.1860
 6663TIP3    H241405   4.745   3.968  15.717  3.1335  1.8659  0.4376
 6664TIP3   OH241406   4.900   1.953   1.526  0.2701  0.2313 -0.6622
 6664TIP3    H141407   4.823   1.993   1.566  1.3707  0.2444  1.5457
 6664TIP3    H241408   4.891   1.860   1.547  0.9404  0.2616 -0.2439
 6665TIP3   OH241409   1.047   3.335   4.935 -0.0762  0.0069 -0.4146
 6665TIP3    H141410   0.971   3.337   4.992 -0.5744  1.8252 -1.0938
 6665TIP3    H241411   1.082   3.424   4.939  1.7132 -0.6796 -0.5062
 6666TIP3   OH241412   1.601   5.881   5.260  0.1833 -0.0254 -0.3160
 6666TIP3    H141413   1.512   5.912   5.242 -0.6018 -1.6059  0.7488
 6666TIP3    H241414   1.625   5.924   5.342  0.3353  0.2577 -0.5074
 6667TIP3   OH241415   5.934   3.534  11.476  0.0944 -0.3727  0.0913
 6667TIP3    H141416   6.012   3.513  11.527 -0.2370  0.1206  0.8011
 6667TIP3    H241417   5.909   3.621  11.506 -0.8191 -0.5949 -0.0267
 6668TIP3   OH241418   6.173   5.773   3.891  0.3524 -0.0095 -0.0229
 6668TIP3    H141419   6.079   5.754   3.889  0.4879 -0.8363  0.9490
 6668TIP3    H241420   6.178   5.865   3.916 -0.1949 -0.0245  0.1525
 6669TIP3   OH241421   5.819   5.897  15.211 -0.5850  0.2545  0.0642
 6669TIP3    H141422   5.757   5.886  15.284 -0.2378  1.0444  0.4745
 6669TIP3    H241423   5.896   5.938  15.251  0.3073 -0.9546 -0.3953
 6670TIP3   OH241424   6.032   2.322   5.719 -0.7002 -0.1836 -0.0353
 6670TIP3    H141425   5.980   2.300   5.642 -0.7549 -1.1939  0.2792
 6670TIP3    H241426   6.111   2.267   5.711  0.8623  2.1139 -1.0766
 6671TIP3   OH241427   3.839   1.168  10.271 -0.4417 -0.0111  0.5278
 6671TIP3    H141428   3.816   1.135  10.357 -2.3530 -2.6318 -0.8906
 6671TIP3    H241429   3.769   1.229  10.248 -0.1321  0.3988  0.6543
 6672TIP3   OH241430   5.137   4.969   0.027 -0.2495 -0.2158 -0.0746
 6672TIP3    H141431   5.134   4.986   0.121 -2.8586  0.2790 -0.2324
 6672TIP3    H241432   5.210   5.023  -0.004 -0.3616  0.8114  1.4061
 6673TIP3   OH241433   2.419   3.204  14.812 -0.5402 -0.5246 -0.3918
 6673TIP3    H141434   2.457   3.179  14.727  0.2804  0.0482 -0.2004
 6673TIP3    H241435   2.350   3.266  14.789 -0.0267 -0.0306 -0.6165
 6674TIP3   OH241436   1.842   6.222  13.503  0.2448  0.6370 -0.3409
 6674TIP3    H141437   1.856   6.281  13.428  0.2949  0.8791 -0.1397
 6674TIP3    H241438   1.886   6.265  13.576  1.5251 -0.3454 -0.5188
 6675TIP3   OH241439   1.239   6.255  13.068  0.0066  0.2761  0.0747
 6675TIP3    H141440   1.247   6.343  13.032 -0.1095 -0.1822 -1.0872
 6675TIP3    H241441   1.217   6.200  12.993  0.1089 -0.7508  0.7867
 6676TIP3   OH241442   0.513   3.032   0.663 -0.4900 -0.1851  0.3058
 6676TIP3    H141443   0.449   3.082   0.713  0.8294  1.5939  0.2921
 6676TIP3    H241444   0.517   3.077   0.578  0.4076 -0.5628  0.1415
 6677TIP3   OH241445   4.440   0.479   1.695 -0.0422 -0.1061  0.4680
 6677TIP3    H141446   4.443   0.441   1.783  0.0196  1.9704  1.3708
 6677TIP3    H241447   4.375   0.549   1.700  0.2810  0.3357 -1.0246
 6678TIP3   OH241448   5.821   4.303   4.953  0.0462  0.0214  0.6733
 6678TIP3    H141449   5.736   4.343   4.974  0.1957 -0.1439  1.5747
 6678TIP3    H241450   5.885   4.368   4.982  0.2309  0.4521 -0.6320
 6679TIP3   OH241451   6.323   6.037  16.780 -0.1474 -0.2802 -0.4779
 6679TIP3    H141452   6.396   6.028  16.719 -0.6095  0.1089 -1.0967
 6679TIP3    H241453   6.283   5.950  16.782  0.8771 -0.7472  0.5808
 6680TIP3   OH241454   0.192   6.418  11.725 -0.0477 -0.4682 -0.5662
 6680TIP3    H141455   0.117   6.453  11.773  1.3600  0.6425  0.8702
 6680TIP3    H241456   0.232   6.495  11.684  2.4102 -0.4844  1.6832
 6681TIP3   OH241457   6.313   4.706  14.371 -0.3107  0.3719  0.2609
 6681TIP3    H141458   6.352   4.717  14.457 -1.5315 -0.8377  0.9933
 6681TIP3    H241459   6.233   4.657  14.387 -0.8073  0.5647 -1.5092
 6682TIP3   OH241460   3.234   0.084  16.421 -0.0463  0.3149 -0.1210
 6682TIP3    H141461   3.150   0.041  16.437  1.2328 -2.2041 -0.0308
 6682TIP3    H241462   3.240   0.092  16.326 -0.4204  0.5904 -0.1233
 6683TIP3   OH241463   0.203   5.227  11.600 -0.0514 -0.2813  0.7395
 6683TIP3    H141464   0.149   5.266  11.531 -1.1151 -1.5836  0.8073
 6683TIP3    H241465   0.152   5.241  11.680  0.7750  0.4570  1.1476
 6684TIP3   OH241466   3.884   4.010   6.263  0.1068 -0.2588 -0.1636
 6684TIP3    H141467   3.876   3.920   6.231 -0.5607 -0.1094 -0.4355
 6684TIP3    H241468   3.794   4.036   6.283  0.4322 -0.0733  1.0921
 6685TIP3   OH241469   4.289   3.648   5.281  0.4717 -0.6434  0.1531
 6685TIP3    H141470   4.309   3.739   5.299 -0.9346  0.0148 -1.4434
 6685TIP3    H241471   4.264   3.611   5.365  0.7688  0.5048  0.7530
 6686TIP3   OH241472   3.708   2.292  12.388  0.9831 -0.0547  0.3458
 6686TIP3    H141473   3.688   2.338  12.306 -2.5406  0.4221  1.3961
 6686TIP3    H241474   3.685   2.201  12.371 -0.5662  0.1917  1.0243
 6687TIP3   OH241475   4.430   3.288   0.042  0.4429 -0.6093  0.0929
 6687TIP3    H141476   4.453   3.208  -0.005  0.4436 -0.3710 -0.3097
 6687TIP3    H241477   4.357   3.263   0.098  0.7678 -1.0207  0.3423
 6688TIP3   OH241478   2.129   6.451   3.816 -0.5123  0.3723 -0.4878
 6688TIP3    H141479   2.053   6.462   3.873 -1.7319 -0.9395 -1.8307
 6688TIP3    H241480   2.204   6.465   3.873 -1.7125 -0.9408  1.4380
 6689TIP3   OH241481   4.415   5.511  15.664 -0.5453 -0.6594 -0.1616
 6689TIP3    H141482   4.497   5.505  15.615 -0.5864 -1.5647 -0.1162
 6689TIP3    H241483   4.356   5.560  15.607  0.2897  0.7494  0.1578
 6690TIP3   OH241484   2.677   3.021   1.674  0.8382 -0.0396 -0.0100
 6690TIP3    H141485   2.705   2.996   1.586  1.4970  0.9091 -0.0853
 6690TIP3    H241486   2.695   2.944   1.728  0.1335 -0.7391 -0.7595
 6691TIP3   OH241487   3.688   1.759  12.394 -0.5730 -0.0607 -0.0404
 6691TIP3    H141488   3.660   1.730  12.307  0.2570  0.4529 -0.4830
 6691TIP3    H241489   3.644   1.700  12.455 -0.0108 -1.3559 -0.8801
 6692TIP3   OH241490   6.757   2.741   4.822  0.0787  0.0984 -0.2982
 6692TIP3    H141491   6.823   2.694   4.772  0.2599  0.7427 -0.6678
 6692TIP3    H241492   6.682   2.683   4.824 -0.5759  0.8083 -2.8732
 6693TIP3   OH241493   2.085   4.546   4.747  0.2161 -0.0557  0.0881
 6693TIP3    H141494   2.118   4.508   4.666 -0.1694 -0.2864  0.0411
 6693TIP3    H241495   2.023   4.614   4.719  0.1642 -0.0601  0.1887
 6694TIP3   OH241496   0.661   4.264   1.028 -0.7492 -0.7490 -0.1046
 6694TIP3    H141497   0.738   4.309   0.995 -1.4340  0.6936  0.2456
 6694TIP3    H241498   0.642   4.197   0.963  0.7607 -1.0803 -0.2206
 6695TIP3   OH241499   4.033   2.234  13.557  0.0812 -0.6077 -0.0652
 6695TIP3    H141500   3.998   2.279  13.480 -2.0172 -2.8510 -0.5131
 6695TIP3    H241501   4.032   2.141  13.532 -1.7893 -1.4930  3.0850
 6696TIP3   OH241502   0.152   6.213   0.708  0.0955  0.4347 -0.4577
 6696TIP3    H141503   0.091   6.208   0.781 -1.3424  2.1030 -1.4993
 6696TIP3    H241504   0.221   6.272   0.738 -0.0900  0.4970 -0.1529
 6697TIP3   OH241505   5.639   6.285  15.772  0.1104  0.3826 -0.1067
 6697TIP3    H141506   5.700   6.358  15.782  0.2651  0.3938 -1.0839
 6697TIP3    H241507   5.673   6.236  15.697 -0.9574  0.2589 -0.5172
 6698TIP3   OH241508   3.658   3.446  13.833  0.3080  0.4301 -0.2771
 6698TIP3    H141509   3.610   3.378  13.880  0.6123  0.2508 -0.2213
 6698TIP3    H241510   3.706   3.493  13.902  1.5251 -0.4529 -0.5020
 6699TIP3   OH241511   6.024   1.162   2.841 -0.3244  0.5423 -0.1907
 6699TIP3    H141512   6.079   1.118   2.775 -2.1051  0.2302 -1.5085
 6699TIP3    H241513   6.017   1.252   2.809  2.9401  1.7447  2.2631
 6700TIP3   OH241514   1.449   2.807   0.545  0.3624  0.0816 -0.1053
 6700TIP3    H141515   1.412   2.857   0.472  0.5857  0.3614 -0.0271
 6700TIP3    H241516   1.380   2.808   0.611  1.0391  1.8185  0.5952
 6701TIP3   OH241517   4.840   2.956  16.605  0.4840  0.1185  0.6292
 6701TIP3    H141518   4.798   2.982  16.523  0.3195 -0.5180  0.5090
 6701TIP3    H241519   4.875   2.868  16.588  1.2834  0.3724  0.9392
 6702TIP3   OH241520   4.470   0.225   1.198 -0.2252  0.3456  0.5280
 6702TIP3    H141521   4.556   0.188   1.217 -0.8319 -0.2589  2.1839
 6702TIP3    H241522   4.444   0.184   1.116 -0.6190 -2.4963  2.0118
 6703TIP3   OH241523   4.526   6.120   2.476  0.4289 -0.2322 -0.0373
 6703TIP3    H141524   4.560   6.156   2.558 -0.4390  1.8155 -0.5561
 6703TIP3    H241525   4.604   6.098   2.426  0.9831  0.8797  0.3163
 6704TIP3   OH241526   6.418   4.719  15.807 -0.5699  0.3029 -0.5209
 6704TIP3    H141527   6.433   4.628  15.832 -0.2845  0.5994  0.3697
 6704TIP3    H241528   6.374   4.713  15.722 -0.0183 -0.6540 -0.7464
 6705TIP3   OH241529   4.568   2.404  11.142  0.1120  0.4257 -0.4846
 6705TIP3    H141530   4.615   2.428  11.221 -1.3989  0.5076  0.4133
 6705TIP3    H241531   4.539   2.314  11.157 -0.5165  0.5732 -0.7630
 6706TIP3   OH241532   6.212   3.330   6.548  0.9083  0.0568 -0.2367
 6706TIP3    H141533   6.177   3.298   6.631 -2.3481 -0.4956 -1.7565
 6706TIP3    H241534   6.213   3.425   6.558  1.6291 -0.0537  0.8394
 6707TIP3   OH241535   3.550   0.055  17.074  0.3356 -0.1284 -0.1942
 6707TIP3    H141536   3.546   0.102  17.157 -0.7304 -0.2769 -0.1536
 6707TIP3    H241537   3.585  -0.031  17.096 -1.8766 -0.9028  0.4562
 6708TIP3   OH241538   6.064   4.273   5.752 -0.5319 -0.4351 -0.2578
 6708TIP3    H141539   6.047   4.347   5.693 -1.4142  0.3374  0.9278
 6708TIP3    H241540   6.107   4.313   5.828  1.2437 -1.5248 -0.6690
 6709TIP3   OH241541   5.436   6.648   0.957  0.1126 -0.2593 -0.5820
 6709TIP3    H141542   5.402   6.696   0.882 -0.2399 -0.6406 -0.6677
 6709TIP3    H241543   5.428   6.709   1.030 -1.4289 -0.5977 -0.4571
 6710TIP3   OH241544   0.379   5.601   5.633 -0.5447  0.7237 -0.1377
 6710TIP3    H141545   0.447   5.666   5.650  0.0076  0.1652 -0.2270
 6710TIP3    H241546   0.396   5.572   5.543  0.5292 -1.1286  0.6497
 6711TIP3   OH241547   2.125   5.992  15.491 -0.1247  0.7890 -0.0962
 6711TIP3    H141548   2.220   5.978  15.491 -0.2486 -0.5281 -3.2488
 6711TIP3    H241549   2.097   5.961  15.577  2.2717  1.0040  0.8154
 6712TIP3   OH241550   0.802   1.410   1.317  0.1029 -0.1983  0.4418
 6712TIP3    H141551   0.735   1.355   1.278  1.0395 -0.6044 -0.6312
 6712TIP3    H241552   0.841   1.355   1.386  0.1703 -0.4124  0.2341
 6713TIP3   OH241553   1.103   1.251  16.497 -0.4462  0.8852 -0.4000
 6713TIP3    H141554   1.027   1.271  16.441 -0.5740 -0.4076 -0.6964
 6713TIP3    H241555   1.173   1.230  16.436 -0.8614 -1.5414 -0.0882
 6714TIP3   OH241556   6.249   2.835   3.570  0.0388  0.2566 -0.3853
 6714TIP3    H141557   6.182   2.902   3.588 -0.4387 -0.1160 -0.7462
 6714TIP3    H241558   6.256   2.834   3.474 -1.0623 -1.2645 -0.4714
 6715TIP3   OH241559   3.001   1.618   2.222  0.7799  0.2960  0.1020
 6715TIP3    H141560   3.033   1.557   2.155  2.3841 -1.1254  2.0985
 6715TIP3    H241561   3.076   1.674   2.241  0.7194 -0.0705  1.5055
 6716TIP3   OH241562   1.123   3.216   4.217  0.3404  0.0444  0.1799
 6716TIP3    H141563   1.113   3.121   4.230 -2.1875  0.3107  0.5991
 6716TIP3    H241564   1.118   3.228   4.122  0.4272 -0.2291  0.1414
 6717TIP3   OH241565   4.466   6.704  12.021 -0.0933  0.3808  0.0584
 6717TIP3    H141566   4.441   6.728  12.110  0.7669  0.3014  0.3238
 6717TIP3    H241567   4.396   6.740  11.966 -0.4096  0.7922  0.7242
 6718TIP3   OH241568   5.226   3.279   6.601  0.1603  0.0045 -0.1621
 6718TIP3    H141569   5.278   3.199   6.591  1.7696  1.0429 -0.2853
 6718TIP3    H241570   5.291   3.349   6.609 -1.2255  1.5426 -1.8650
 6719TIP3   OH241571   0.738   0.200  15.402 -0.5214  0.6305  0.0936
 6719TIP3    H141572   0.678   0.274  15.396 -0.9729  0.2046 -0.8157
 6719TIP3    H241573   0.752   0.187  15.496 -2.0625  0.5545  0.3201
 6720TIP3   OH241574   3.884   3.459  13.577  0.0141  0.8493 -0.0558
 6720TIP3    H141575   3.849   3.524  13.638 -2.2553  1.4558 -1.9183
 6720TIP3    H241576   3.953   3.506  13.530  0.4723  0.9634  0.7303
 6721TIP3   OH241577   5.895   6.008   4.012  0.2200 -0.4554  0.8647
 6721TIP3    H141578   5.919   5.929   4.061  1.2357  0.0731  1.2455
 6721TIP3    H241579   5.939   5.998   3.927  1.5414  0.3409  1.4266
 6722TIP3   OH241580   2.269   0.336   6.261  0.0982 -0.1522  0.8210
 6722TIP3    H141581   2.187   0.289   6.275  0.0311 -0.1182  0.5482
 6722TIP3    H241582   2.305   0.349   6.349  0.0972 -0.6712  0.8965
 6723TIP3   OH241583   3.550   0.007  13.912  0.3647  0.3724  0.3685
 6723TIP3    H141584   3.553   0.001  13.817 -1.9906  0.7464  0.2302
 6723TIP3    H241585   3.600   0.086  13.933  0.5849  0.4918 -0.6022
 6724TIP3   OH241586   5.059   5.678  14.332  0.0996  0.3402  0.0347
 6724TIP3    H141587   5.023   5.606  14.384 -0.1857 -0.0910 -0.7560
 6724TIP3    H241588   4.993   5.696  14.265  0.4246  0.9499 -0.1346
 6725TIP3   OH241589   4.557   2.124  11.362 -0.1942  0.2789  0.2028
 6725TIP3    H141590   4.587   2.170  11.440 -0.9030  0.7099  0.2240
 6725TIP3    H241591   4.633   2.072  11.334  0.1796  0.4065  0.9594
 6726TIP3   OH241592   2.729   3.613   0.313  0.3836 -0.0464  0.5584
 6726TIP3    H141593   2.724   3.530   0.266  1.3453  0.7217 -0.9431
 6726TIP3    H241594   2.639   3.634   0.334  0.1841 -1.8328  1.6124
 6727TIP3   OH241595   2.177   5.346   0.529  0.1786 -0.7366 -0.2578
 6727TIP3    H141596   2.138   5.318   0.612  0.4922  0.5761  0.3483
 6727TIP3    H241597   2.104   5.382   0.479  0.2030 -0.3777 -0.0395
 6728TIP3   OH241598   1.558   3.446   1.799  0.3178 -0.2171 -0.9851
 6728TIP3    H141599   1.595   3.360   1.778 -0.0861 -0.3260 -1.2523
 6728TIP3    H241600   1.477   3.426   1.845 -0.3527  0.0107 -2.0456
 6729TIP3   OH241601   3.144   4.346   2.461  0.2840 -0.0819  0.1048
 6729TIP3    H141602   3.125   4.252   2.463 -0.3586  0.0763  1.7733
 6729TIP3    H241603   3.086   4.384   2.527  1.4466  1.3253  0.3417
 6730TIP3   OH241604   5.168   6.135   1.027  0.2669  0.3531 -0.0269
 6730TIP3    H141605   5.154   6.227   1.052  1.0536  0.4077  0.2497
 6730TIP3    H241606   5.166   6.136   0.931  0.1122  0.6377 -0.0223
 6731TIP3   OH241607   0.219   1.438   0.205  0.0525 -0.4052 -0.2413
 6731TIP3    H141608   0.268   1.465   0.127 -0.4132 -1.2124 -0.8261
 6731TIP3    H241609   0.239   1.505   0.271  1.0263 -0.1184 -0.8267
 6732TIP3   OH241610   6.696   4.689  14.574 -0.3801  0.2132  0.2132
 6732TIP3    H141611   6.610   4.729  14.582  0.5841  2.4096 -0.1210
 6732TIP3    H241612   6.740   4.707  14.657 -0.1791 -0.7566  0.3259
 6733TIP3   OH241613   5.357   4.935  11.816 -0.0537 -0.1489  0.0112
 6733TIP3    H141614   5.276   4.973  11.850  1.4743  0.4715  3.1322
 6733TIP3    H241615   5.348   4.841  11.833 -0.0943 -0.0797  0.3700
 6734TIP3   OH241616   0.150   0.305   5.711  0.5355  0.4152  0.1014
 6734TIP3    H141617   0.142   0.240   5.780 -2.2818  0.8789  0.2580
 6734TIP3    H241618   0.172   0.386   5.757 -2.7651  1.0486  0.6869
 6735TIP3   OH241619   5.296   4.622   1.268 -0.4354 -0.4320 -0.3355
 6735TIP3    H141620   5.354   4.613   1.343 -0.9416 -0.9091  0.0002
 6735TIP3    H241621   5.354   4.636   1.194  0.1765 -2.1653 -0.2037
 6736TIP3   OH241622   3.505   4.237   3.174 -0.4585 -0.0299  0.3985
 6736TIP3    H141623   3.514   4.157   3.122  1.1968  0.4060  0.0067
 6736TIP3    H241624   3.410   4.249   3.182 -0.7571 -3.2850  2.4153
 6737TIP3   OH241625   5.782   0.674  16.097  0.3376  0.7208 -0.0940
 6737TIP3    H141626   5.702   0.700  16.049 -0.1620  0.3203  0.5144
 6737TIP3    H241627   5.755   0.673  16.189  0.8785 -0.0546  0.0587
 6738TIP3   OH241628   6.182   2.252   1.588  0.5577  0.3237  0.4668
 6738TIP3    H141629   6.141   2.206   1.662  0.8139  0.4657  0.6977
 6738TIP3    H241630   6.270   2.214   1.582 -0.3843 -1.6447 -1.5082
 6739TIP3   OH241631   1.688   3.660   2.346 -0.4457  0.1967  0.2049
 6739TIP3    H141632   1.664   3.622   2.431 -2.4150 -0.7555 -0.7233
 6739TIP3    H241633   1.681   3.754   2.360  0.0408  0.0841  1.3154
 6740TIP3   OH241634   6.086   6.568  15.749 -0.0889  0.1720  0.0013
 6740TIP3    H141635   6.098   6.640  15.811  0.0538 -0.0996  0.2933
 6740TIP3    H241636   6.099   6.607  15.663 -3.9780  1.3816 -0.1315
 6741TIP3   OH241637   4.954   3.795  14.637 -0.0851 -0.1784  0.4138
 6741TIP3    H141638   4.881   3.743  14.603 -0.2362  0.1168  0.2804
 6741TIP3    H241639   4.925   3.824  14.724 -0.9774  1.6180 -0.4420
 6742TIP3   OH241640   3.987   1.648   3.034 -0.2906 -0.7697  0.1982
 6742TIP3    H141641   3.962   1.585   3.101 -1.8383 -0.4628 -0.0785
 6742TIP3    H241642   3.922   1.717   3.039  0.3912 -0.0403 -0.6710
 6743TIP3   OH241643   2.297   5.773  16.770 -0.0153 -0.2836 -0.2417
 6743TIP3    H141644   2.387   5.795  16.748 -0.0640 -0.5292 -0.6942
 6743TIP3    H241645   2.292   5.784  16.865  0.0075  1.5054 -0.4257
 6744TIP3   OH241646   6.087   1.222   6.254  0.1924 -0.4800 -0.5694
 6744TIP3    H141647   6.048   1.215   6.341  1.9093  0.0773  0.2827
 6744TIP3    H241648   6.080   1.315   6.232  0.5799 -0.4628 -0.6240
 6745TIP3   OH241649   3.754   0.091   2.798  0.2567 -0.0886 -0.1676
 6745TIP3    H141650   3.685   0.030   2.770  0.6453 -1.6091  2.0790
 6745TIP3    H241651   3.720   0.130   2.879  1.3101  0.4330  0.0295
 6746TIP3   OH241652   1.552   3.841  10.337  0.3982 -0.2821  0.0297
 6746TIP3    H141653   1.541   3.908  10.405 -0.7402 -0.0102 -0.4146
 6746TIP3    H241654   1.469   3.841  10.290  1.3590 -0.1206 -1.6798
 6747TIP3   OH241655   2.243   5.818  15.194 -0.1337  0.0041 -0.6173
 6747TIP3    H141656   2.151   5.843  15.205  0.5140  2.1701  0.1783
 6747TIP3    H241657   2.283   5.895  15.153  1.4611 -0.6857 -0.3780
 6748TIP3   OH241658   4.498   6.140  16.361  0.5244 -0.5956 -0.5006
 6748TIP3    H141659   4.554   6.215  16.382 -0.7323  0.0910  0.4543
 6748TIP3    H241660   4.442   6.171  16.290  0.2028 -0.7369 -0.3071
 6749TIP3   OH241661   4.812   1.119   1.957  0.7355  0.4745  0.3874
 6749TIP3    H141662   4.732   1.069   1.977  0.8707  1.3057  3.0840
 6749TIP3    H241663   4.883   1.065   1.991  1.1964  0.7440 -0.1307
 6750TIP3   OH241664   4.209   3.066  14.889 -0.4387  0.1496 -0.3466
 6750TIP3    H141665   4.298   3.074  14.923  0.4434 -2.1071 -2.0161
 6750TIP3    H241666   4.213   3.106  14.802 -0.9395 -0.3540 -0.6006
 6751TIP3   OH241667   3.741   4.437  13.121  1.2864  0.4005 -0.0153
 6751TIP3    H141668   3.766   4.376  13.051 -0.0582 -0.4582  0.2503
 6751TIP3    H241669   3.794   4.410  13.196  1.9452  0.6548 -0.3764
 6752TIP3   OH241670   0.152   3.184  15.802  0.7897 -0.5095  0.4480
 6752TIP3    H141671   0.071   3.225  15.774  0.9327 -0.5309 -0.0047
 6752TIP3    H241672   0.196   3.160  15.721  2.0740  1.1074  0.6191
 6753TIP3   OH241673   3.802   2.078   1.296  0.3674  0.2242  0.6572
 6753TIP3    H141674   3.873   2.113   1.350  0.3006  0.7178  0.4182
 6753TIP3    H241675   3.732   2.059   1.359  0.7240 -0.3193  0.9022
 6754TIP3   OH241676   5.601   1.425  13.018  0.2190  0.4026 -0.0571
 6754TIP3    H141677   5.666   1.489  13.046 -0.0625  0.4046  0.6060
 6754TIP3    H241678   5.595   1.364  13.092  0.2967 -0.2377 -0.5750
 6755TIP3   OH241679   2.878   0.659  13.374 -0.2973  0.2987  0.8340
 6755TIP3    H141680   2.859   0.639  13.282 -1.2736  0.4094  1.0139
 6755TIP3    H241681   2.923   0.581  13.406  2.6329  1.3347 -0.4976
 6756TIP3   OH241682   1.551   6.306   4.258 -0.6024  0.2550  0.2449
 6756TIP3    H141683   1.606   6.346   4.325 -1.9552  1.1779  0.8300
 6756TIP3    H241684   1.612   6.268   4.195  0.6835 -0.2691  1.7865
 6757TIP3   OH241685   2.338   2.792  14.881 -0.3289  0.0448 -0.1276
 6757TIP3    H141686   2.415   2.774  14.827 -1.8773  0.7108 -2.6450
 6757TIP3    H241687   2.349   2.884  14.907 -0.2610  0.1338 -0.4659
 6758TIP3   OH241688   2.141   2.099  16.833  0.0496  0.6319 -0.5109
 6758TIP3    H141689   2.198   2.163  16.875  0.4816 -0.6137  0.8659
 6758TIP3    H241690   2.195   2.060  16.764  0.0313  1.1988 -0.8502
 6759TIP3   OH241691   6.192   4.683  12.497 -0.4547  0.4141  0.0175
 6759TIP3    H141692   6.106   4.714  12.527 -0.0445  0.5961  1.0359
 6759TIP3    H241693   6.224   4.752  12.439 -0.9868  0.3575 -0.3456
 6760TIP3   OH241694   5.499   2.834  14.936  0.7483  0.0872  0.1911
 6760TIP3    H141695   5.423   2.862  14.988  0.6981 -1.7640  1.1496
 6760TIP3    H241696   5.574   2.859  14.989  0.7334 -0.4589  0.4734
 6761TIP3   OH241697   0.363   3.317  15.937  0.2684  0.1061  0.4436
 6761TIP3    H141698   0.317   3.322  16.021  0.3778 -1.3132  0.5954
 6761TIP3    H241699   0.294   3.298  15.873  0.2167  0.9743  0.2321
 6762TIP3   OH241700   0.744   6.432   4.520  0.0852 -0.3105 -0.4217
 6762TIP3    H141701   0.766   6.447   4.612 -1.7513  0.1572 -0.0307
 6762TIP3    H241702   0.826   6.407   4.479  1.0534  0.1186  1.2202
 6763TIP3   OH241703   2.130   5.200   6.537 -0.3059 -0.4311  0.3812
 6763TIP3    H141704   2.160   5.117   6.500 -0.5522 -0.5079  0.3532
 6763TIP3    H241705   2.055   5.177   6.591 -0.3683 -0.2281  0.3822
 6764TIP3   OH241706   1.015   6.562  15.426 -0.4466 -0.2536 -0.1665
 6764TIP3    H141707   0.951   6.597  15.487 -0.0410  0.5454 -0.1939
 6764TIP3    H241708   1.091   6.618  15.436 -0.1709 -0.4734 -0.9832
 6765TIP3   OH241709   5.626   6.394  13.253 -0.1135  0.3578 -0.6074
 6765TIP3    H141710   5.714   6.406  13.289 -0.0535  0.4755 -0.7928
 6765TIP3    H241711   5.619   6.462  13.185 -0.4617  0.5508 -0.3794
 6766TIP3   OH241712   1.006   3.508   5.455  0.1153 -0.6352 -0.7491
 6766TIP3    H141713   1.099   3.510   5.431  0.2101 -1.9856 -0.4900
 6766TIP3    H241714   0.985   3.600   5.472  2.1345 -0.6263  1.9738
 6767TIP3   OH241715   4.534   2.863  14.920  0.3271 -0.2648  0.1365
 6767TIP3    H141716   4.473   2.853  14.993  0.1992  2.3328  0.4345
 6767TIP3    H241717   4.602   2.798  14.937 -0.4081 -0.6243  1.8340
 6768TIP3   OH241718   0.360   0.921   4.886  0.1063 -0.2058 -0.4825
 6768TIP3    H141719   0.335   0.982   4.817 -2.4626  1.4653  1.8470
 6768TIP3    H241720   0.279   0.877   4.911  0.3539  1.2743  3.3807
 6769TIP3   OH241721   1.384   3.040  14.854 -0.0251 -0.3341  0.4917
 6769TIP3    H141722   1.360   2.981  14.926  0.3867  1.5167  2.1988
 6769TIP3    H241723   1.349   3.125  14.880 -0.4339  0.2444 -1.8379
 6770TIP3   OH241724   0.643   5.882  11.775 -0.4142  0.6884  0.5258
 6770TIP3    H141725   0.662   5.975  11.766 -0.7014  0.6916 -0.1664
 6770TIP3    H241726   0.549   5.875  11.759  0.1558 -0.1248 -3.1771
 6771TIP3   OH241727   5.120   0.405  13.254 -0.0340 -0.3265  0.3812
 6771TIP3    H141728   5.146   0.409  13.346  0.3632 -1.1939  0.3196
 6771TIP3    H241729   5.201   0.385  13.207 -0.2252  0.1637 -0.1600
 6772TIP3   OH241730   1.633   1.948   0.177  0.0167  0.1558  0.1191
 6772TIP3    H141731   1.707   1.887   0.179  0.0243  0.1839  0.7214
 6772TIP3    H241732   1.616   1.962   0.084  0.3643 -0.3440 -0.0219
 6773TIP3   OH241733   4.113   5.254   6.226 -0.1980  0.2265  0.0269
 6773TIP3    H141734   4.026   5.233   6.191 -0.1309  2.0492 -1.3213
 6773TIP3    H241735   4.111   5.349   6.237  0.8253  0.0035  2.2213
 6774TIP3   OH241736   4.196   6.535  13.368 -0.1872 -0.3487  0.1372
 6774TIP3    H141737   4.165   6.603  13.307  0.4637 -1.5661 -1.5701
 6774TIP3    H241738   4.258   6.581  13.425 -1.0039  0.8705  0.0686
 6775TIP3   OH241739   0.644   0.817   1.491  0.1588  0.7423  0.0853
 6775TIP3    H141740   0.720   0.760   1.500  0.4097  0.7454 -1.7967
 6775TIP3    H241741   0.673   0.901   1.527  0.2013  0.0645  1.6912
 6776TIP3   OH241742   2.987   5.193   0.964 -0.5044 -0.5247  0.0529
 6776TIP3    H141743   3.077   5.214   0.992 -0.1321  1.0776 -2.1741
 6776TIP3    H241744   2.931   5.241   1.025  0.2056  0.6149 -0.1860
 6777TIP3   OH241745   0.928   2.382   5.832 -0.2145 -0.3807 -0.7764
 6777TIP3    H141746   1.018   2.412   5.848  0.0205 -1.0481 -0.8249
 6777TIP3    H241747   0.873   2.450   5.870  0.2935 -2.6492  4.5337
 6778TIP3   OH241748   5.346   5.744   2.972 -0.4475  0.1358  0.1785
 6778TIP3    H141749   5.378   5.757   3.061 -1.4951 -1.7913  0.8789
 6778TIP3    H241750   5.260   5.786   2.971 -1.9605 -2.7702  1.1685
 6779TIP3   OH241751   5.390   3.643  14.576 -1.0397 -0.0524  0.2245
 6779TIP3    H141752   5.433   3.705  14.635  1.2463 -1.0919 -0.3067
 6779TIP3    H241753   5.331   3.593  14.633 -0.2535  0.2131  1.2916
 6780TIP3   OH241754   2.856   1.254  12.180  0.0375  0.0588  0.1021
 6780TIP3    H141755   2.796   1.296  12.119  1.2301 -0.8957 -1.8002
 6780TIP3    H241756   2.872   1.168  12.142  1.3608 -0.2940  1.4027
 6781TIP3   OH241757   2.426   3.092   0.084  0.4239  0.0137 -0.0419
 6781TIP3    H141758   2.515   3.082   0.051 -0.0117 -0.9982 -0.9060
 6781TIP3    H241759   2.437   3.094   0.179  1.2647 -1.2763 -0.0944
 6782TIP3   OH241760   0.476   2.910   1.667  0.1681  0.3418 -0.0046
 6782TIP3    H141761   0.382   2.918   1.686  0.3998  0.6090  1.0331
 6782TIP3    H241762   0.479   2.880   1.576 -0.9124  1.1714 -0.3251
 6783TIP3   OH241763   0.299   3.706   2.669 -0.1554 -0.3525  0.3847
 6783TIP3    H141764   0.282   3.778   2.730 -0.4989 -1.1199  1.2119
 6783TIP3    H241765   0.273   3.628   2.718  0.5833 -1.0650 -0.3692
 6784TIP3   OH241766   6.450   6.047   0.387  0.0973  0.3264 -0.1412
 6784TIP3    H141767   6.359   6.019   0.395  0.8643 -2.6516 -1.2448
 6784TIP3    H241768   6.475   6.024   0.298  1.3095  3.0919 -0.5560
 6785TIP3   OH241769   0.441   5.174  14.210 -0.0343 -0.1134  0.3598
 6785TIP3    H141770   0.520   5.145  14.254 -1.0969 -1.7824  1.2289
 6785TIP3    H241771   0.373   5.114  14.240 -1.3428  0.3760 -1.4894
 6786TIP3   OH241772   4.548   2.388  15.280 -0.1246 -0.0291  0.3519
 6786TIP3    H141773   4.605   2.386  15.204  1.4069 -0.4813  1.4759
 6786TIP3    H241774   4.460   2.379  15.245  0.5181  0.3771 -1.3955
 6787TIP3   OH241775   0.729   2.587   5.894 -0.6477  0.1496 -0.1930
 6787TIP3    H141776   0.662   2.622   5.835 -1.1535  1.2448  1.0089
 6787TIP3    H241777   0.680   2.551   5.968  0.0113 -0.5914 -0.1155
 6788TIP3   OH241778   3.701   6.262  12.209 -0.2114  0.6902  0.4421
 6788TIP3    H141779   3.657   6.317  12.144 -0.0994 -0.9359 -1.0682
 6788TIP3    H241780   3.778   6.312  12.234  0.2042  1.0141 -1.3545
 6789TIP3   OH241781   2.411   0.400  12.505 -0.3017 -0.4928 -0.1691
 6789TIP3    H141782   2.414   0.454  12.585  2.8774  0.4477 -0.8649
 6789TIP3    H241783   2.385   0.313  12.536  0.6923 -0.0926  1.8733
 6790TIP3   OH241784   0.430   0.888  16.976 -0.2710 -0.4430  0.1893
 6790TIP3    H141785   0.517   0.855  16.999 -0.0224 -0.4262 -0.7275
 6790TIP3    H241786   0.369   0.827  17.020  0.1966 -0.1400  1.2701
 6791TIP3   OH241787   6.589   3.305   6.079  0.1086 -0.0533 -0.2626
 6791TIP3    H141788   6.616   3.386   6.036  0.2514 -0.4905 -1.0111
 6791TIP3    H241789   6.665   3.280   6.132 -0.5945  1.2499  1.3955
 6792TIP3   OH241790   1.965   6.459  15.699 -0.1870  0.1422 -0.0452
 6792TIP3    H141791   1.928   6.415  15.622 -1.5560  0.0790  0.6427
 6792TIP3    H241792   1.897   6.519  15.728  0.4315  0.3781  0.9566
 6793TIP3   OH241793   1.887   6.087   3.672  0.4500  0.3486 -0.2245
 6793TIP3    H141794   1.931   6.048   3.748  0.0621  0.9463  0.3075
 6793TIP3    H241795   1.953   6.144   3.634  0.4208  0.5731  0.0612
 6794TIP3   OH241796   3.903   3.806  10.433 -0.0327  0.0971 -0.0811
 6794TIP3    H141797   3.910   3.893  10.394  1.1103 -0.4959 -1.2309
 6794TIP3    H241798   3.816   3.804  10.472 -0.3215  1.5160 -0.6345
 6795TIP3   OH241799   5.434   0.381   3.879  0.4293 -0.3634  0.1285
 6795TIP3    H141800   5.342   0.368   3.853  0.5858 -1.3047  0.0340
 6795TIP3    H241801   5.471   0.293   3.882  1.1828 -0.0345  0.7372
 6796TIP3   OH241802   5.569   5.480   5.443  0.3513  0.0706 -0.8379
 6796TIP3    H141803   5.570   5.385   5.458  0.4243  0.4998  2.1189
 6796TIP3    H241804   5.598   5.518   5.526 -1.1619  2.7460 -1.4752
 6797TIP3   OH241805   6.472   4.199   0.186  0.1937  0.1397 -0.2119
 6797TIP3    H141806   6.471   4.294   0.196  0.9875  0.0588  0.6996
 6797TIP3    H241807   6.564   4.174   0.202  0.0217 -0.7595 -0.5856
 6798TIP3   OH241808   6.390   3.093   0.641  0.2522  0.4807 -0.4143
 6798TIP3    H141809   6.351   3.060   0.560  1.1957  0.3797 -0.8275
 6798TIP3    H241810   6.441   3.020   0.675  1.9168  1.3358 -1.0573
 6799TIP3   OH241811   0.682   6.039   4.604  0.1525 -0.0276 -0.2637
 6799TIP3    H141812   0.741   5.977   4.563  0.2633  0.1387 -0.3555
 6799TIP3    H241813   0.738   6.089   4.663 -0.4629 -2.0824  2.1624
 6800TIP3   OH241814   0.893   0.499   2.190 -0.1574  0.0430 -0.3732
 6800TIP3    H141815   0.986   0.477   2.202 -0.2585  0.0600  0.4427
 6800TIP3    H241816   0.887   0.527   2.098  0.7232  0.4358 -0.3153
 6801TIP3   OH241817   0.918   0.015   4.345 -0.6537  0.6213 -1.0355
 6801TIP3    H141818   0.998  -0.019   4.385 -1.0160  0.6109 -0.3037
 6801TIP3    H241819   0.915  -0.025   4.258  0.7875  1.6156 -1.5608
 6802TIP3   OH241820   3.611   3.894   5.054  0.3878 -0.1454 -0.3581
 6802TIP3    H141821   3.550   3.963   5.026  1.0958  1.5168  2.0332
 6802TIP3    H241822   3.556   3.829   5.096 -0.0818 -0.1060 -0.9098
 6803TIP3   OH241823   1.858   5.731   4.895 -0.3158  0.2176 -0.0300
 6803TIP3    H141824   1.789   5.714   4.959  0.0098 -1.0146  0.0131
 6803TIP3    H241825   1.929   5.770   4.946 -0.6846  0.7757  0.0603
 6804TIP3   OH241826   5.656   1.076  12.821  0.4718 -0.8746  0.1870
 6804TIP3    H141827   5.674   0.988  12.854 -0.8303 -1.3798 -0.4221
 6804TIP3    H241828   5.573   1.101  12.863  0.3002 -0.3527 -0.4551
 6805TIP3   OH241829   5.208   6.115   2.902 -0.5019  0.0054 -0.1277
 6805TIP3    H141830   5.140   6.050   2.921  0.0269 -0.5124 -0.0070
 6805TIP3    H241831   5.233   6.098   2.812  0.1197 -0.4106  0.1164
 6806TIP3   OH241832   1.450   1.921   6.524 -0.0924 -0.0324  0.3024
 6806TIP3    H141833   1.528   1.869   6.507 -0.0927 -0.1165  0.5692
 6806TIP3    H241834   1.477   1.986   6.588  0.4005  1.4716 -1.3934
 6807TIP3   OH241835   0.021   5.591   3.917  0.1600 -0.3223 -0.3683
 6807TIP3    H141836   0.038   5.684   3.902  1.3396 -0.8076 -2.3487
 6807TIP3    H241837  -0.071   5.587   3.943  0.4018  1.4979  0.8624
 6808TIP3   OH241838   5.689   5.809   6.421 -0.1569 -0.0871  0.0162
 6808TIP3    H141839   5.693   5.734   6.479  0.6352 -0.0049  0.0788
 6808TIP3    H241840   5.769   5.859   6.441 -0.4886  0.5728 -0.2806
 6809TIP3   OH241841   4.745   2.613  13.992 -0.0555 -0.2792  0.5257
 6809TIP3    H141842   4.798   2.628  14.070  0.2856 -0.3248  0.3064
 6809TIP3    H241843   4.657   2.598  14.025 -0.4199  2.1628  0.7510
 6810TIP3   OH241844   5.681   4.299  12.650 -0.1565 -0.1048  0.4561
 6810TIP3    H141845   5.628   4.311  12.571  1.4698  3.0288 -0.2694
 6810TIP3    H241846   5.634   4.347  12.718 -0.5885 -1.1985  0.9289
 6811TIP3   OH241847   3.768   6.521  13.338  0.0607 -0.7241 -0.6956
 6811TIP3    H141848   3.835   6.581  13.305 -0.0239 -0.5556 -0.5604
 6811TIP3    H241849   3.720   6.493  13.260 -2.4473  2.4421 -0.3720
 6812TIP3   OH241850   2.387   4.242   4.012  0.1577 -0.1157 -0.3381
 6812TIP3    H141851   2.355   4.262   3.925 -1.5452  1.4112  0.6127
 6812TIP3    H241852   2.478   4.214   3.999 -0.2304 -0.3746 -2.6174
 6813TIP3   OH241853   2.115   6.203   1.151 -0.5919  0.6314 -0.0597
 6813TIP3    H141854   2.065   6.127   1.178  2.3265 -1.7843 -1.1781
 6813TIP3    H241855   2.078   6.228   1.066 -0.8324 -0.2311 -0.2090
 6814TIP3   OH241856   1.950   3.635   4.936 -0.4461  0.0618 -0.1442
 6814TIP3    H141857   1.863   3.640   4.976 -0.4146 -0.4076 -0.0076
 6814TIP3    H241858   1.996   3.712   4.969 -0.3003 -0.5186  1.0215
 6815TIP3   OH241859   5.209   2.225  16.623 -0.2944  0.0414  0.4026
 6815TIP3    H141860   5.190   2.148  16.569  2.5317  0.6205 -1.5336
 6815TIP3    H241861   5.144   2.290  16.595 -2.4735 -1.4679  1.8013
 6816TIP3   OH241862   6.002   4.222  16.039  0.0923  0.2314  0.2011
 6816TIP3    H141863   6.008   4.175  16.122  0.6457 -2.2153 -1.1773
 6816TIP3    H241864   5.914   4.203  16.007  0.4363 -0.1813 -0.5211
 6817TIP3   OH241865   5.007   4.788  16.245  0.0840  0.1182  0.0273
 6817TIP3    H141866   5.100   4.797  16.266  0.4589 -1.1462 -1.0270
 6817TIP3    H241867   4.969   4.749  16.323 -0.1487  3.4448  1.6457
 6818TIP3   OH241868   2.586   4.280   0.682  0.2925  0.5188  0.0560
 6818TIP3    H141869   2.670   4.323   0.665 -0.1778  0.7869 -1.6642
 6818TIP3    H241870   2.526   4.317   0.617 -0.4338 -1.8815 -0.6931
 6819TIP3   OH241871   6.639   1.806  15.285  0.6109 -0.4186  0.1014
 6819TIP3    H141872   6.677   1.721  15.308 -1.3328 -0.6800  2.5527
 6819TIP3    H241873   6.703   1.870  15.317  0.5102 -0.9210  1.3679
 6820TIP3   OH241874   6.144   3.233   2.182  0.0179  0.2892 -0.5947
 6820TIP3    H141875   6.072   3.220   2.121  0.2173  0.7429 -0.9256
 6820TIP3    H241876   6.217   3.184   2.144 -0.2387 -0.5440 -0.0303
 6821TIP3   OH241877   3.623   1.031  12.240  0.2382 -0.4256  0.6561
 6821TIP3    H141878   3.582   1.027  12.326  0.3018  0.4877  0.7277
 6821TIP3    H241879   3.683   1.105  12.244 -1.5504  1.1739 -0.9398
 6822TIP3   OH241880   2.317   4.818   2.183 -0.1255 -0.1639  0.2562
 6822TIP3    H141881   2.318   4.899   2.235  0.4653  0.7219 -1.1145
 6822TIP3    H241882   2.224   4.801   2.168 -0.2827 -0.1578  1.1921
 6823TIP3   OH241883   5.582   0.046  17.055 -0.1422  0.6950 -0.2723
 6823TIP3    H141884   5.603   0.106  16.984  0.3743 -0.6525 -1.2757
 6823TIP3    H241885   5.519  -0.016  17.016  0.6819 -0.4732  0.2148
 6824TIP3   OH241886   6.506   0.457  11.532  0.4584  0.3382  0.1050
 6824TIP3    H141887   6.485   0.541  11.574  1.3372  1.3079 -1.3453
 6824TIP3    H241888   6.424   0.428  11.493  0.1025  0.3967  0.7904
 6825TIP3   OH241889   0.082   0.126   3.402  0.4850 -0.3048 -0.3653
 6825TIP3    H141890   0.153   0.063   3.400 -1.0808 -2.1452  0.1754
 6825TIP3    H241891   0.071   0.154   3.312  1.5761 -0.3721 -0.5201
 6826TIP3   OH241892   3.139   0.313  14.391 -0.0889  0.2465  0.1174
 6826TIP3    H141893   3.068   0.307  14.455 -0.7159  1.7477 -0.4273
 6826TIP3    H241894   3.145   0.226  14.353 -1.7418  0.1644  0.0478
 6827TIP3   OH241895   0.764   1.419  12.950  0.7967 -1.2290  0.4132
 6827TIP3    H141896   0.683   1.462  12.922  0.8114 -1.2681  0.3094
 6827TIP3    H241897   0.768   1.340  12.896  2.1528 -0.0175 -1.3085
 6828TIP3   OH241898   4.156   2.501  11.353  0.8720  0.1320 -0.4883
 6828TIP3    H141899   4.242   2.534  11.327 -0.6232  2.8810 -2.2203
 6828TIP3    H241900   4.126   2.448  11.279  1.4459 -1.6698  0.5262
 6829TIP3   OH241901   1.723   6.606  15.693 -0.0321  0.0680  0.7838
 6829TIP3    H141902   1.652   6.579  15.750 -0.1863  0.3556  0.7297
 6829TIP3    H241903   1.683   6.618  15.607  0.2928 -0.8157  0.5077
 6830TIP3   OH241904   3.223   2.901   2.745  0.4385  0.0927 -0.3156
 6830TIP3    H141905   3.270   2.922   2.826  0.0156 -0.5710  0.1042
 6830TIP3    H241906   3.288   2.857   2.690  1.2256  2.1079 -1.0479
 6831TIP3   OH241907   2.032   4.738  16.861 -0.6908  0.1517 -0.0098
 6831TIP3    H141908   1.973   4.746  16.786 -0.5596 -1.5667 -0.3023
 6831TIP3    H241909   2.092   4.813  16.852 -1.5220  0.7279 -0.8506
 6832TIP3   OH241910   1.769   4.056  11.388 -0.7780 -0.2889 -0.2162
 6832TIP3    H141911   1.728   4.073  11.303 -0.3029 -1.4847 -0.6922
 6832TIP3    H241912   1.783   4.143  11.425 -4.2031  0.1390  0.2125
 6833TIP3   OH241913   6.393   2.742  13.120 -0.0851  0.0744 -0.0133
 6833TIP3    H141914   6.341   2.816  13.153  1.8652  0.7677  1.5657
 6833TIP3    H241915   6.421   2.695  13.199 -2.6690 -3.3775 -1.0185
 6834TIP3   OH241916   5.983   1.931   5.500  0.7862 -0.1666 -0.3789
 6834TIP3    H141917   6.028   1.861   5.547 -0.2830 -1.7207 -1.6232
 6834TIP3    H241918   6.054   1.987   5.466  1.6271 -0.3869  0.9765
 6835TIP3   OH241919   0.724   4.237   1.291  0.1798  0.3554  0.2194
 6835TIP3    H141920   0.705   4.220   1.198  2.9390  0.1331 -0.3367
 6835TIP3    H241921   0.811   4.200   1.305  0.3918  1.6653  2.5494
 6836TIP3   OH241922   6.339   6.086   5.353 -0.4123 -0.2548  0.0089
 6836TIP3    H141923   6.372   6.145   5.421  0.2588  1.1654 -1.5146
 6836TIP3    H241924   6.373   6.123   5.271 -0.6431 -2.3207 -1.0409
 6837TIP3   OH241925   5.402   5.153   5.734 -0.6846 -0.0385 -0.2066
 6837TIP3    H141926   5.363   5.091   5.673 -0.4421  1.5422 -2.0157
 6837TIP3    H241927   5.482   5.110   5.765 -1.0831 -1.0662 -0.5940
 6838TIP3   OH241928   3.909   6.613   1.385  0.1306  0.4118 -0.1173
 6838TIP3    H141929   4.002   6.631   1.400  0.4509 -0.3579 -1.0962
 6838TIP3    H241930   3.898   6.618   1.290 -0.8167  0.4376 -0.0144
 6839TIP3   OH241931   1.520   2.081  13.753  0.2574  0.0315  0.0967
 6839TIP3    H141932   1.586   2.076  13.684  0.8532 -0.1912  0.6623
 6839TIP3    H241933   1.500   1.990  13.775 -2.5683  0.0470 -2.1991
 6840TIP3   OH241934   1.018   1.777  11.182 -0.2073  0.8805 -0.1967
 6840TIP3    H141935   1.034   1.686  11.158 -0.6617  1.0625 -1.2199
 6840TIP3    H241936   0.972   1.772  11.266 -0.2955  0.1611 -0.2841
 6841TIP3   OH241937   2.962   2.323   1.989 -0.4134 -0.3405  0.0654
 6841TIP3    H141938   3.052   2.303   1.963  0.5595  1.9997  1.4793
 6841TIP3    H241939   2.932   2.245   2.035  0.4983 -1.5559 -1.3764
 6842TIP3   OH241940   5.711   4.190   4.347  0.4564 -0.7975  0.1774
 6842TIP3    H141941   5.632   4.226   4.386  1.3026  1.9580 -0.5215
 6842TIP3    H241942   5.679   4.129   4.280 -1.0349 -1.1895  1.2294
 6843TIP3   OH241943   6.749   5.753  16.975 -0.3122  0.1256 -0.1446
 6843TIP3    H141944   6.784   5.664  16.987 -3.1221 -0.7602  1.8691
 6843TIP3    H241945   6.724   5.757  16.883 -0.2048 -1.1713 -0.2356
 6844TIP3   OH241946   4.015   3.517   3.685  0.1761 -0.1778 -0.6175
 6844TIP3    H141947   4.095   3.465   3.682  1.0650  1.1067  0.1484
 6844TIP3    H241948   4.011   3.561   3.599  1.4570  1.4294  0.1266
 6845TIP3   OH241949   0.769   3.199   0.762 -0.0753  0.1507 -0.0881
 6845TIP3    H141950   0.778   3.106   0.780  0.8828  0.1615 -0.5287
 6845TIP3    H241951   0.710   3.203   0.686 -1.5353 -0.0142  1.0043
 6846TIP3   OH241952   6.672   3.174   3.880  0.0795 -0.3143 -0.4005
 6846TIP3    H141953   6.665   3.118   3.958  2.1384  1.2295  0.9553
 6846TIP3    H241954   6.732   3.244   3.906 -0.2913  1.0170 -2.9480
 6847TIP3   OH241955   2.050   5.951  12.810 -0.4614 -0.1995  0.0892
 6847TIP3    H141956   2.026   5.861  12.789  1.0653 -0.6078  0.0368
 6847TIP3    H241957   2.101   5.944  12.890  0.3798  0.5286 -0.3795
 6848TIP3   OH241958   5.096   6.097   1.853  0.1186 -0.2369  0.0651
 6848TIP3    H141959   5.011   6.137   1.837 -1.1525 -2.4963  0.9194
 6848TIP3    H241960   5.121   6.059   1.768 -0.5358 -1.0480  0.2329
 6849TIP3   OH241961   6.691   4.549   1.822 -0.1872 -0.1046  0.2285
 6849TIP3    H141962   6.754   4.560   1.893 -0.1261 -1.0363  0.3149
 6849TIP3    H241963   6.732   4.595   1.748  0.2985 -0.1553  0.4609
 6850TIP3   OH241964   2.896   0.678  13.831  0.0099  0.0824  0.3762
 6850TIP3    H141965   2.942   0.722  13.903 -1.4235  0.6717  0.9455
 6850TIP3    H241966   2.804   0.679  13.857 -0.7010  1.4278 -2.0364
 6851TIP3   OH241967   5.143   6.515   2.765 -0.2085 -0.0887  0.1948
 6851TIP3    H141968   5.074   6.528   2.700  0.3215  0.1934 -0.3204
 6851TIP3    H241969   5.207   6.459   2.720  0.2447  0.2590  0.4143
 6852TIP3   OH241970   4.812   5.170   6.410  0.0119 -0.2067  0.0974
 6852TIP3    H141971   4.742   5.167   6.346 -0.1709  2.3068  0.1390
 6852TIP3    H241972   4.892   5.184   6.359 -0.0115  0.8303  0.3436
 6853TIP3   OH241973   5.714   4.806   3.900  0.5937  0.1156 -0.2645
 6853TIP3    H141974   5.780   4.849   3.846 -0.5273  2.5121  0.2125
 6853TIP3    H241975   5.632   4.820   3.853 -0.1517  0.7933  1.2087
 6854TIP3   OH241976   5.018   4.120  16.894 -0.0609 -0.0442  0.8644
 6854TIP3    H141977   5.031   4.059  16.967  0.9482  0.8151  1.4157
 6854TIP3    H241978   5.105   4.157  16.878 -0.5186  0.6740  0.0267
 6855TIP3   OH241979   3.174   2.318  14.943 -0.0318  0.3930  0.0520
 6855TIP3    H141980   3.192   2.411  14.927  0.1607  0.7646  2.2279
 6855TIP3    H241981   3.257   2.283  14.976 -0.1870 -0.4796 -0.4760
 6856TIP3   OH241982   4.493   4.981  11.470 -0.6168  0.2592 -0.1024
 6856TIP3    H141983   4.432   4.909  11.454 -1.3575  0.8711 -0.0748
 6856TIP3    H241984   4.451   5.057  11.430 -0.3746  0.9019  0.8438
 6857TIP3   OH241985   5.468   4.046  16.321  0.1075  0.6598  0.3084
 6857TIP3    H141986   5.378   4.073  16.340  0.2452  1.0970  0.3563
 6857TIP3    H241987   5.508   4.123  16.279  0.3056  0.2891 -0.1929
 6858TIP3   OH241988   1.203   0.185   5.677  0.0165 -0.1381  0.0667
 6858TIP3    H141989   1.213   0.125   5.751 -0.5212 -1.0040 -0.5632
 6858TIP3    H241990   1.288   0.182   5.633  0.0833 -0.2058  0.1986
 6859TIP3   OH241991   2.316   0.430   0.570 -0.2061 -0.5268 -0.1480
 6859TIP3    H141992   2.386   0.461   0.628  0.3893  0.3481 -1.2914
 6859TIP3    H241993   2.345   0.344   0.541 -1.4435 -1.8121  2.3674
 6860TIP3   OH241994   5.620   3.221  12.785 -0.1637  0.0215  0.2584
 6860TIP3    H141995   5.598   3.311  12.807  0.3211 -0.5088  3.1737
 6860TIP3    H241996   5.543   3.188  12.739 -1.2408  1.2770  1.1148
 6861TIP3   OH241997   6.009   3.285  13.833 -0.2338 -0.5354 -0.8022
 6861TIP3    H141998   5.973   3.363  13.876 -0.7624 -2.3330  2.2388
 6861TIP3    H241999   5.933   3.243  13.793 -0.6494 -1.5356  0.9991
 6862TIP3   OH242000   6.084   0.153   4.739 -0.3247  0.2587 -0.6294
 6862TIP3    H142001   6.157   0.092   4.742 -0.7520 -0.2209  0.4731
 6862TIP3    H242002   6.044   0.140   4.653  0.5860  0.1773 -1.0384
 6863TIP3   OH242003   1.510   1.034   4.322  0.0652  0.4101  0.9495
 6863TIP3    H142004   1.483   0.955   4.369  0.0424 -1.0158 -1.3813
 6863TIP3    H242005   1.575   1.075   4.380  2.5781 -3.1009  0.8168
 6864TIP3   OH242006   1.300   1.174  14.207 -0.0624 -0.3626  0.3221
 6864TIP3    H142007   1.259   1.259  14.196  0.2520 -0.2352  0.1226
 6864TIP3    H242008   1.248   1.115  14.153  0.0593 -0.1907  0.0189
 6865TIP3   OH242009   0.223   2.830  13.073  0.1598  0.0888  0.4437
 6865TIP3    H142010   0.148   2.807  13.018  0.6118 -0.9075  0.2325
 6865TIP3    H242011   0.213   2.923  13.090 -0.9141  0.0391  0.0850
 6866TIP3   OH242012   4.437   1.474  11.966 -0.7041 -0.2186 -0.5136
 6866TIP3    H142013   4.487   1.437  12.039 -1.9278 -0.4206  0.2466
 6866TIP3    H242014   4.348   1.482  12.000 -0.5861  3.0463 -0.8150
 6867TIP3   OH242015   1.163   5.124   5.951  0.2026 -0.2901  0.2383
 6867TIP3    H142016   1.136   5.177   5.877 -0.5232 -3.6817 -2.0673
 6867TIP3    H242017   1.256   5.142   5.961  0.6917 -1.0664 -2.6504
 6868TIP3   OH242018   6.696   2.791   2.251 -0.4032 -0.5271  0.1065
 6868TIP3    H142019   6.641   2.737   2.194 -0.0703  0.0668 -0.7933
 6868TIP3    H242020   6.712   2.871   2.201 -0.2198  0.0662  1.1015
 6869TIP3   OH242021   5.085   4.289   2.670 -0.4313  0.4001 -0.1874
 6869TIP3    H142022   5.178   4.293   2.648 -0.8486 -1.1634 -2.3068
 6869TIP3    H242023   5.066   4.196   2.679 -1.4305  0.7679  2.0314
 6870TIP3   OH242024   2.249   4.247   4.786  0.1197  0.1465  0.5267
 6870TIP3    H142025   2.292   4.332   4.790  1.2574 -0.4516  1.2355
 6870TIP3    H242026   2.158   4.265   4.811  0.3479  1.1469  0.6609
 6871TIP3   OH242027   0.380   0.309   0.870  0.0647  0.1542  0.3302
 6871TIP3    H142028   0.338   0.375   0.926 -0.2314  0.2917 -0.0501
 6871TIP3    H242029   0.355   0.334   0.781  0.8952  0.1985  0.1037
 6872TIP3   OH242030   3.044   2.762   4.905 -0.0513 -0.4478  0.0401
 6872TIP3    H142031   3.079   2.825   4.842  4.1048  0.1690  2.7419
 6872TIP3    H242032   3.093   2.682   4.888  2.5092  0.2567  3.5492
 6873TIP3   OH242033   4.633   6.265  14.788 -0.0813  0.1436 -0.2837
 6873TIP3    H142034   4.547   6.247  14.751  0.4572 -0.4124 -1.2549
 6873TIP3    H242035   4.636   6.212  14.868 -1.3126  1.4999  0.6978
 6874TIP3   OH242036   4.740   3.741   3.111 -0.5509  0.4247  0.3504
 6874TIP3    H142037   4.695   3.820   3.083 -0.1193 -0.1454 -2.0354
 6874TIP3    H242038   4.678   3.698   3.170 -1.4130  1.7613  0.4326
 6875TIP3   OH242039   4.100   5.957   1.360 -0.3050  0.0143 -0.5051
 6875TIP3    H142040   4.039   6.027   1.386 -1.8173 -0.9778 -1.3134
 6875TIP3    H242041   4.128   5.981   1.272  2.3960  1.7304  0.7412
 6876TIP3   OH242042   3.751   6.427  15.300  0.4595  0.6036  0.3737
 6876TIP3    H142043   3.709   6.342  15.309  0.7127  0.5191  0.7453
 6876TIP3    H242044   3.698   6.473  15.234  0.3386  0.1528  0.1563
 6877TIP3   OH242045   3.469   1.691   5.624  0.3169 -0.2174 -0.5475
 6877TIP3    H142046   3.431   1.746   5.555  1.1707 -1.0199 -1.6686
 6877TIP3    H242047   3.529   1.750   5.671  0.1819  0.1811 -0.8687
 6878TIP3   OH242048   6.067   4.959   4.214  0.3934 -0.4706 -0.4004
 6878TIP3    H142049   6.035   4.891   4.155 -2.2694 -0.0043  0.4648
 6878TIP3    H242050   6.143   4.997   4.168  0.1345 -2.0568 -2.1747
 6879TIP3   OH242051   4.048   5.298   1.201 -0.3039 -0.0768 -0.4498
 6879TIP3    H142052   4.080   5.254   1.280 -1.3971 -0.1566 -0.0371
 6879TIP3    H242053   4.115   5.282   1.135  0.3310 -0.5309  0.2998
 6880TIP3   OH242054   1.552   3.668  15.751 -0.4432 -0.2310  0.6243
 6880TIP3    H142055   1.638   3.627  15.741  0.4798  1.5000  1.2515
 6880TIP3    H242056   1.511   3.660  15.665 -0.2732 -2.4003  0.7241
 6881TIP3   OH242057   2.949   0.104  13.334 -0.1722 -0.1057  0.3427
 6881TIP3    H142058   2.933   0.126  13.242  0.8779 -0.8956 -0.0392
 6881TIP3    H242059   2.878   0.042  13.356 -0.6787  0.4176  0.2016
 6882TIP3   OH242060   0.352   5.571  10.242  0.3017 -0.0811  0.0874
 6882TIP3    H142061   0.379   5.644  10.185 -2.8370  1.3488  0.3460
 6882TIP3    H242062   0.323   5.613  10.323 -0.8347 -1.6717  0.5320
 6883TIP3   OH242063   5.040   6.330   2.313  0.1021 -0.2891 -0.3972
 6883TIP3    H142064   5.007   6.280   2.238  1.2359  1.1532 -1.8827
 6883TIP3    H242065   5.120   6.371   2.282  0.4088  0.6378  1.5035
 6884TIP3   OH242066   1.546   1.046   6.018  0.5274  0.3501 -0.0715
 6884TIP3    H142067   1.551   1.139   5.999 -1.2895  0.3386 -0.6742
 6884TIP3    H242068   1.588   1.004   5.943 -1.0974  0.5825 -1.1405
 6885TIP3   OH242069   2.422   5.217   0.375 -0.0165 -0.3297 -0.0051
 6885TIP3    H142070   2.399   5.125   0.372  0.0834 -0.3286 -1.3739
 6885TIP3    H242071   2.354   5.258   0.428 -1.4316 -0.8045 -1.4288
 6886TIP3   OH242072   5.026   1.696  16.021 -0.1998 -0.1640 -0.5455
 6886TIP3    H142073   5.096   1.761  16.025 -1.6506  1.5012 -1.4112
 6886TIP3    H242074   4.967   1.730  15.954 -1.9423 -1.4247  0.3347
 6887TIP3   OH242075   0.034   2.775   3.011 -0.6378  0.0208  0.0531
 6887TIP3    H142076   0.021   2.739   2.923  2.3526  0.2579 -0.5573
 6887TIP3    H242077   0.078   2.859   2.995  1.1544 -0.5593  1.8255
 6888TIP3   OH242078   5.737   0.468   2.492  0.0441 -0.1994  0.4370
 6888TIP3    H142079   5.675   0.462   2.420  0.0916 -1.1826  0.4703
 6888TIP3    H242080   5.806   0.526   2.460  0.1760 -0.8090 -0.4023
 6889TIP3   OH242081   3.996   4.801  14.719 -0.3453  0.1367 -0.6621
 6889TIP3    H142082   3.926   4.867  14.721 -1.2680 -0.8128 -1.1547
 6889TIP3    H242083   3.951   4.718  14.703  0.8977 -0.4922 -0.9873
 6890TIP3   OH242084   5.356   0.203  12.064  0.7453  0.5973  0.0175
 6890TIP3    H142085   5.390   0.288  12.092  1.3909 -0.0338  1.1898
 6890TIP3    H242086   5.273   0.223  12.021  1.0613  1.8540 -0.0046
 6891TIP3   OH242087   1.543   6.366  16.291  0.0752 -0.7353 -0.0895
 6891TIP3    H142088   1.546   6.294  16.228 -1.2143 -0.9672  0.1127
 6891TIP3    H242089   1.609   6.343  16.356  2.0225 -0.0799 -1.7689
 6892TIP3   OH242090   0.842   2.474   3.197  0.2491  0.4452 -0.3977
 6892TIP3    H142091   0.752   2.507   3.206  0.6488  1.2792  0.4833
 6892TIP3    H242092   0.896   2.538   3.242  1.2554 -0.2719 -0.5809
 6893TIP3   OH242093   1.575   4.388   3.935  0.0325  0.9172 -0.1143
 6893TIP3    H142094   1.504   4.352   3.988  1.7022 -1.3695  0.6390
 6893TIP3    H242095   1.630   4.313   3.914  1.6882  2.4820 -1.5474
 6894TIP3   OH242096   4.129   5.115  11.951 -0.3390  0.6531 -0.1366
 6894TIP3    H142097   4.189   5.067  11.893 -0.0324  1.2567 -0.3290
 6894TIP3    H242098   4.125   5.203  11.913 -0.8439  0.7947  0.2473
 6895TIP3   OH242099   5.909   5.307   2.120 -0.7724  0.0063  0.0630
 6895TIP3    H142100   5.914   5.213   2.105 -1.9461 -0.1301  0.4999
 6895TIP3    H242101   5.898   5.317   2.214 -1.7726  0.5369 -0.1045
 6896TIP3   OH242102   6.615   0.301   5.191  0.0170  0.0740  0.2460
 6896TIP3    H142103   6.642   0.393   5.181 -0.5151  0.1964 -0.1272
 6896TIP3    H242104   6.673   0.266   5.258 -0.1994  0.8682  0.8594
 6897TIP3   OH242105   3.210   1.236  11.122 -0.3271  0.2848  0.3719
 6897TIP3    H142106   3.301   1.231  11.153 -0.5982 -1.2820  0.9510
 6897TIP3    H242107   3.163   1.279  11.194  0.0518  1.6735 -0.1872
 6898TIP3   OH242108   4.630   5.498   6.643  0.4307 -0.5907  0.0813
 6898TIP3    H142109   4.582   5.444   6.705 -0.9060 -0.9960 -1.2701
 6898TIP3    H242110   4.570   5.569   6.620  1.1708 -0.0413 -0.1973
 6899TIP3   OH242111   5.134   2.895   3.065  0.7002  0.1131 -0.7082
 6899TIP3    H142112   5.091   2.966   3.017  0.3491  0.2696 -0.1769
 6899TIP3    H242113   5.227   2.918   3.064  0.7464 -0.1068 -1.6732
 6900TIP3   OH242114   5.869   4.089  12.769 -0.3914  0.1084  0.7344
 6900TIP3    H142115   5.839   4.097  12.859 -0.1373  1.3355  0.7124
 6900TIP3    H242116   5.824   4.159  12.722 -0.6107 -0.5944 -0.1238
 6901TIP3   OH242117   1.135   3.522  16.960 -0.1374 -0.5089  0.4546
 6901TIP3    H142118   1.178   3.471  16.891 -1.4020 -0.8007 -0.1212
 6901TIP3    H242119   1.067   3.571  16.915 -0.4501 -0.0851  1.3776
 6902TIP3   OH242120   6.340   6.155  16.232  0.0879  0.2403 -0.0655
 6902TIP3    H142121   6.279   6.162  16.159 -0.8312  0.1567  0.6746
 6902TIP3    H242122   6.375   6.067  16.227 -0.5381 -0.0183  0.0161
 6903TIP3   OH242123   4.347   4.970  11.173 -0.2653 -0.8725 -0.0868
 6903TIP3    H142124   4.274   4.974  11.111 -0.5964 -0.5856  0.3227
 6903TIP3    H242125   4.366   4.876  11.180  0.6634 -0.8238 -1.6563
 6904TIP3   OH242126   6.317   3.690   2.163  0.1181  0.2108 -0.1997
 6904TIP3    H142127   6.237   3.675   2.214  0.8197 -1.4777  0.4424
 6904TIP3    H242128   6.352   3.772   2.196 -0.4611  0.1087  0.6955
 6905TIP3   OH242129   0.631   0.571   1.145  0.1753 -0.6517  0.0493
 6905TIP3    H142130   0.566   0.536   1.205 -2.3655  0.6683 -1.8658
 6905TIP3    H242131   0.590   0.648   1.106  2.9845  0.3776 -1.0091
 6906TIP3   OH242132   5.041   6.621  11.370  0.2200 -0.0497  0.4657
 6906TIP3    H142133   5.045   6.716  11.370  2.4624 -0.0942 -1.8054
 6906TIP3    H242134   4.948   6.600  11.378 -0.3066  2.3111  0.6908
 6907TIP3   OH242135   2.826   1.712  16.433  0.0566 -0.0444 -0.3175
 6907TIP3    H142136   2.914   1.676  16.446 -0.9093 -1.9864  1.0024
 6907TIP3    H242137   2.785   1.654  16.369 -1.6633 -1.6202  2.1497
 6908TIP3   OH242138   2.273   5.837  14.636  0.2405  0.4295 -0.4922
 6908TIP3    H142139   2.230   5.798  14.560 -0.9350  0.7954 -0.0231
 6908TIP3    H242140   2.248   5.929  14.634 -1.4955  0.0344  1.4648
 6909TIP3   OH242141   5.457   0.465   5.198  0.3817 -0.5354 -0.1934
 6909TIP3    H142142   5.361   0.473   5.193  0.2343 -2.3313 -0.3731
 6909TIP3    H242143   5.488   0.554   5.180 -1.2673  0.2382  0.6233
 6910TIP3   OH242144   4.668   6.078  13.570 -0.7344  0.1817 -0.4118
 6910TIP3    H142145   4.720   6.151  13.602 -1.1822  0.4781 -0.3522
 6910TIP3    H242146   4.578   6.111  13.571 -0.8432 -0.0936 -1.1661
 6911TIP3   OH242147   0.609   4.863   3.315 -0.2293  0.4426  0.6218
 6911TIP3    H142148   0.704   4.877   3.323 -0.5873  1.8311  3.0196
 6911TIP3    H242149   0.588   4.802   3.385 -1.2088  0.5402  0.4130
 6912TIP3   OH242150   1.730   5.558  13.293  0.4581 -0.3362 -0.2564
 6912TIP3    H142151   1.674   5.630  13.322  1.5341  1.0566 -1.5491
 6912TIP3    H242152   1.671   5.484  13.283 -0.6218  0.2483  1.4325
 6913TIP3   OH242153   3.784   0.109  11.269  0.2184 -0.2657 -0.0838
 6913TIP3    H142154   3.742   0.172  11.329  1.5307  0.7137 -0.1807
 6913TIP3    H242155   3.843   0.162  11.216 -0.2233 -1.2784 -1.6255
 6914TIP3   OH242156   3.595   1.842  16.004 -0.0477 -0.2976  0.2363
 6914TIP3    H142157   3.645   1.868  15.927 -1.5589  0.3700 -0.5323
 6914TIP3    H242158   3.531   1.912  16.016 -1.5118 -1.6492  0.5665
 6915TIP3   OH242159   3.786   4.969   0.171  0.1064 -0.4819  0.1578
 6915TIP3    H142160   3.813   4.972   0.263  1.9991 -0.1662 -0.3978
 6915TIP3    H242161   3.868   4.966   0.122 -0.8294  1.5178 -1.5954
 6916TIP3   OH242162   3.979   6.406  16.196  0.1488 -0.0165  0.4658
 6916TIP3    H142163   4.011   6.401  16.286  0.1563 -1.0016  0.4069
 6916TIP3    H242164   3.954   6.498  16.185  3.2837  0.8856  0.3977
 6917TIP3   OH242165   6.599   4.858   4.654  0.0687  0.3043 -0.2006
 6917TIP3    H142166   6.517   4.845   4.703 -0.7279  0.3469 -1.5054
 6917TIP3    H242167   6.659   4.794   4.692 -0.5205  0.3743  0.8784
 6918TIP3   OH242168   2.574   1.728   4.120  0.2147 -0.0807 -0.0661
 6918TIP3    H142169   2.669   1.729   4.132  0.2912  1.1724 -0.6874
 6918TIP3    H242170   2.539   1.694   4.202  1.2105 -0.7743  0.0728
 6919TIP3   OH242171   6.368   3.613  17.007  0.4059 -0.4529  0.0650
 6919TIP3    H142172   6.365   3.627  17.102 -0.9835  2.2449 -0.3356
 6919TIP3    H242173   6.277   3.620  16.979  0.6186 -2.7217 -1.3054
 6920TIP3   OH242174   6.528   5.782  10.429  0.0196 -0.2641  0.7277
 6920TIP3    H142175   6.621   5.771  10.407 -0.0066  1.7558 -0.6494
 6920TIP3    H242176   6.520   5.875  10.450 -1.8226 -0.2627  0.1046
 6921TIP3   OH242177   1.896   4.942  13.026 -0.4863  0.0346  0.5250
 6921TIP3    H142178   1.881   4.956  12.932 -1.8547 -1.0250  0.5624
 6921TIP3    H242179   1.945   5.018  13.054 -2.2061  1.5952 -0.5521
 6922TIP3   OH242180   1.628   5.879   1.404 -0.8332 -0.1691 -0.6922
 6922TIP3    H142181   1.708   5.837   1.438 -1.2378 -1.4083 -1.2350
 6922TIP3    H242182   1.623   5.962   1.451  1.8578  0.8507 -2.0643
 6923TIP3   OH242183   3.622   3.708  16.043  0.8079  0.1002 -0.0639
 6923TIP3    H142184   3.584   3.790  16.074  1.0101  0.2576 -0.2345
 6923TIP3    H242185   3.711   3.730  16.017 -0.4522  0.7950 -4.2169
 6924TIP3   OH242186   2.045   5.365  16.687 -0.1242 -0.4386  0.0734
 6924TIP3    H142187   2.085   5.352  16.773 -0.1600  2.0865  0.5102
 6924TIP3    H242188   1.953   5.386  16.707  0.0073  0.7552 -0.5382
 6925TIP3   OH242189   5.416   6.648  11.909 -0.3554  0.4950 -0.0938
 6925TIP3    H142190   5.350   6.679  11.971 -0.3294  2.2158 -0.9179
 6925TIP3    H242191   5.376   6.570  11.869 -1.1306  0.4686  0.7108
 6926TIP3   OH242192   4.155   3.207   3.163 -0.2937 -0.2818 -0.7005
 6926TIP3    H142193   4.135   3.221   3.255  0.5990  0.2917 -0.5883
 6926TIP3    H242194   4.186   3.292   3.132 -2.1881 -0.0224 -1.9578
 6927TIP3   OH242195   5.954   6.338   5.963  0.1155 -0.4408  0.2067
 6927TIP3    H142196   5.951   6.368   6.054 -0.6201 -0.7933  0.3055
 6927TIP3    H242197   6.019   6.394   5.921 -0.2910  0.4166  0.7032
 6928TIP3   OH242198   0.842   1.436  13.936 -0.0929 -0.1777 -0.3479
 6928TIP3    H142199   0.857   1.487  14.016 -0.4220 -1.1346  0.3385
 6928TIP3    H242200   0.928   1.403  13.912  0.3741  1.9775 -1.6809
 6929TIP3   OH242201   4.658   3.055   0.806  0.1043  0.2757 -0.8822
 6929TIP3    H142202   4.636   3.120   0.874 -0.5590 -0.0591 -0.7684
 6929TIP3    H242203   4.640   2.971   0.847  0.6473  0.0320 -1.1465
 6930TIP3   OH242204   4.158   3.385   2.080  0.4032 -0.1458 -0.4275
 6930TIP3    H142205   4.128   3.378   1.989 -0.2735 -0.3315 -0.1944
 6930TIP3    H242206   4.103   3.324   2.128 -0.5560  1.3543  0.4207
 6931TIP3   OH242207   1.318   1.036   3.791 -0.4407 -0.0028 -0.0883
 6931TIP3    H142208   1.297   1.061   3.701  1.3151 -0.7728 -0.7277
 6931TIP3    H242209   1.244   0.982   3.818 -0.6664 -0.3201 -1.2945
 6932TIP3   OH242210   0.878   0.963   1.126 -0.4484 -0.5136  0.5261
 6932TIP3    H142211   0.794   0.918   1.133 -1.1590  0.3836 -1.5971
 6932TIP3    H242212   0.942   0.892   1.114 -1.5071 -1.0626 -2.4313
 6933TIP3   OH242213   2.401   1.295   5.369  0.3267  0.2821 -0.1923
 6933TIP3    H142214   2.494   1.299   5.392  0.3212  1.7223 -0.3758
 6933TIP3    H242215   2.356   1.312   5.452  0.1461 -3.3558  0.5361
 6934TIP3   OH242216   0.536   2.357  11.778  0.3232  0.7650  0.1622
 6934TIP3    H142217   0.607   2.348  11.842 -0.4387  0.2376  0.9383
 6934TIP3    H242218   0.467   2.403  11.826  0.3630  1.8093 -0.7682
 6935TIP3   OH242219   6.536   1.437  14.920  0.2133  0.2313  0.0749
 6935TIP3    H142220   6.442   1.450  14.929  0.1159  0.2537 -0.9026
 6935TIP3    H242221   6.548   1.342  14.927  0.3808  0.4034  2.4263
 6936TIP3   OH242222   3.832   2.387  10.576 -0.4477  0.4445  0.0688
 6936TIP3    H142223   3.762   2.356  10.518 -0.4087 -0.2908  0.4113
 6936TIP3    H242224   3.791   2.391  10.663  0.4531 -1.7985  0.6025
 6937TIP3   OH242225   5.724   1.146  12.534  0.6522  0.0666 -0.3065
 6937TIP3    H142226   5.736   1.113  12.623  1.1711 -0.3434 -0.5219
 6937TIP3    H242227   5.746   1.239  12.540  1.2861 -0.0901 -0.1261
 6938TIP3   OH242228   2.974   4.786  11.699  0.2720 -0.2016 -0.2767
 6938TIP3    H142229   2.935   4.712  11.745  0.0154  0.5449  0.7317
 6938TIP3    H242230   3.019   4.747  11.624 -0.2763 -1.3227 -0.0346
 6939TIP3   OH242231   2.056   6.676   4.440 -0.0599 -0.1544 -0.3994
 6939TIP3    H142232   1.996   6.750   4.430 -1.2137 -1.2435 -1.6968
 6939TIP3    H242233   2.055   6.656   4.534 -0.2334  1.0639 -0.1374
 6940TIP3   OH242234   1.715   6.177   5.214  0.0775 -0.1019  0.4642
 6940TIP3    H142235   1.633   6.203   5.172  0.4266 -0.1016 -0.2335
 6940TIP3    H242236   1.745   6.103   5.162 -0.6610 -1.6047  2.1278
 6941TIP3   OH242237   4.411   4.616  15.667  0.3071  0.6416 -0.3038
 6941TIP3    H142238   4.339   4.675  15.688 -0.3888 -0.4571  0.4135
 6941TIP3    H242239   4.419   4.560  15.744  1.5108  0.3369 -0.6432
 6942TIP3   OH242240   5.098   0.361  12.863 -0.6199  0.7865 -0.1341
 6942TIP3    H142241   5.122   0.269  12.849  2.2432  1.5058 -0.4546
 6942TIP3    H242242   5.183   0.405  12.873 -1.9577  3.3914 -0.0518
 6943TIP3   OH242243   0.854   1.941  13.630  0.0948  0.0995  0.3340
 6943TIP3    H142244   0.849   2.032  13.662  2.3234  0.8290 -1.2847
 6943TIP3    H242245   0.838   1.948  13.536 -1.0172 -1.3653  0.4010
 6944TIP3   OH242246   1.841   2.760   2.589 -0.0863 -0.1004 -0.2080
 6944TIP3    H142247   1.878   2.685   2.637  1.5033  1.4524  1.0439
 6944TIP3    H242248   1.912   2.790   2.533 -0.8332  0.2946 -0.9566
 6945TIP3   OH242249   6.171   5.744  11.042 -0.3820  0.5685  0.0975
 6945TIP3    H142250   6.214   5.659  11.040 -0.3740  0.5891 -0.6897
 6945TIP3    H242251   6.118   5.747  10.963 -0.8252  1.0702  0.4023
 6946TIP3   OH242252   5.414   1.702  15.783  0.0151 -0.3135  0.5564
 6946TIP3    H142253   5.329   1.746  15.779  0.2365  0.1339  0.7092
 6946TIP3    H242254   5.476   1.767  15.750  0.3106 -0.6068  0.5325
 6947TIP3   OH242255   1.821   6.408   5.335 -0.6238 -0.4962  0.2247
 6947TIP3    H142256   1.892   6.357   5.298 -0.3851 -1.1580  1.5532
 6947TIP3    H242257   1.743   6.354   5.323 -0.8340  0.0455 -0.8566
 6948TIP3   OH242258   1.083   2.049  15.427  0.6005 -0.2818  0.6208
 6948TIP3    H142259   1.071   2.141  15.450 -2.5181 -0.7721  1.1773
 6948TIP3    H242260   1.046   2.041  15.339  1.3609 -0.9055  0.3469
 6949TIP3   OH242261   3.790   0.142  10.631  0.0808 -0.1886 -0.2886
 6949TIP3    H142262   3.811   0.235  10.642  1.2768 -0.3576 -0.9782
 6949TIP3    H242263   3.872   0.104  10.598 -0.5769 -1.3748 -0.5501
 6950TIP3   OH242264   1.567   6.470   0.243 -0.0709 -0.0492  1.2507
 6950TIP3    H142265   1.652   6.472   0.287 -0.3275  4.4303  1.7577
 6950TIP3    H242266   1.589   6.447   0.152  1.5432 -0.1906  1.6483
 6951TIP3   OH242267   4.382   1.958  15.072  0.0779 -0.0102 -0.5591
 6951TIP3    H142268   4.450   1.893  15.058  0.9467  0.6000  0.7673
 6951TIP3    H242269   4.384   1.975  15.166 -1.5059  0.4485 -0.5960
 6952TIP3   OH242270   3.066   6.511  14.589  0.4977 -0.2681 -0.0789
 6952TIP3    H142271   3.099   6.499  14.500  0.3828 -0.8236 -0.0459
 6952TIP3    H242272   3.037   6.602  14.591  0.2413 -0.3312 -0.6951
 6953TIP3   OH242273   5.779   3.740   3.343  0.1133  0.3164 -0.0099
 6953TIP3    H142274   5.845   3.712   3.407 -0.2550  2.0332  1.1490
 6953TIP3    H242275   5.703   3.765   3.395 -0.8272  0.0639 -1.2338
 6954TIP3   OH242276   5.354   3.766   4.244  0.1076 -0.2217 -0.1831
 6954TIP3    H142277   5.371   3.841   4.302  2.3096 -0.1201 -0.8993
 6954TIP3    H242278   5.355   3.804   4.156 -1.7417 -0.6196 -0.3866
 6955TIP3   OH242279   6.524   0.916   1.229 -0.0048 -0.2208  0.1567
 6955TIP3    H142280   6.603   0.958   1.262  0.3046 -0.7773  0.1278
 6955TIP3    H242281   6.453   0.954   1.281  0.2773  0.2748  0.1870
 6956TIP3   OH242282   3.190   6.601  12.173 -0.1142  0.9288 -0.0450
 6956TIP3    H142283   3.217   6.613  12.082 -0.5536  1.9545 -0.0460
 6956TIP3    H242284   3.213   6.510  12.193  0.9309  1.0080 -0.8498
 6957TIP3   OH242285   0.523   3.681   5.966  0.2570  0.1453 -0.1495
 6957TIP3    H142286   0.608   3.719   5.988 -0.2616  1.5452 -0.5608
 6957TIP3    H242287   0.461   3.754   5.972 -0.5440 -0.3350 -2.2013
 6958TIP3   OH242288   6.261   4.970  13.172 -0.2861  0.2211 -0.1506
 6958TIP3    H142289   6.207   5.041  13.137 -1.3335  0.3412  1.6462
 6958TIP3    H242290   6.312   4.939  13.097 -2.2004  0.7101 -1.6952
 6959TIP3   OH242291   0.520   1.908   5.707 -0.3683 -0.4339 -0.2273
 6959TIP3    H142292   0.513   1.813   5.709 -0.5608 -0.5015 -2.3862
 6959TIP3    H242293   0.549   1.933   5.794 -1.3236 -2.3890  0.6665
 6960TIP3   OH242294   6.542   6.371   6.001  0.1796  0.3639  0.2307
 6960TIP3    H142295   6.571   6.446   5.949 -0.0339 -0.0548 -0.5035
 6960TIP3    H242296   6.579   6.295   5.957 -0.6458 -0.0513  0.2324
 6961TIP3   OH242297   6.182   5.308  10.859 -0.0304  0.7567  0.5463
 6961TIP3    H142298   6.117   5.379  10.864  0.6824  1.7223 -2.8596
 6961TIP3    H242299   6.266   5.352  10.861  0.4524 -0.1350  0.2370
 6962TIP3   OH242300   4.053   2.534  13.920 -0.6218  0.2939  0.1344
 6962TIP3    H142301   4.119   2.603  13.910  0.2423 -0.3321  1.3593
 6962TIP3    H242302   3.990   2.551  13.850  0.0590  1.7847 -0.1474
 6963TIP3   OH242303   0.472   4.728   5.379 -0.1680 -0.2148  0.2754
 6963TIP3    H142304   0.499   4.637   5.362  0.1993  0.1860 -1.4302
 6963TIP3    H242305   0.381   4.732   5.350  0.5402  0.5424 -2.0005
 6964TIP3   OH242306   4.289   1.412   4.808 -0.9115  0.0474 -0.0746
 6964TIP3    H142307   4.209   1.445   4.849  0.1594  2.5145  0.1254
 6964TIP3    H242308   4.328   1.489   4.767  0.6905 -1.3898 -1.2859
 6965TIP3   OH242309   0.903   2.712  17.032  0.1204 -0.4572  0.2221
 6965TIP3    H142310   0.905   2.618  17.050 -0.7402 -0.3187  1.0646
 6965TIP3    H242311   0.817   2.728  16.994  0.9843 -0.3182 -1.7441
 6966TIP3   OH242312   6.326   2.873  16.853 -0.0982  0.1516  0.5310
 6966TIP3    H142313   6.336   2.874  16.758 -2.4867  0.2844  0.2580
 6966TIP3    H242314   6.353   2.960  16.882 -1.6257  0.9097 -0.2916
 6967TIP3   OH242315   2.164   3.664   0.461  0.4002 -0.1224 -0.7942
 6967TIP3    H142316   2.188   3.732   0.398 -1.2061 -1.1480 -2.5245
 6967TIP3    H242317   2.194   3.582   0.421  0.1671 -0.6881  0.1796
 6968TIP3   OH242318   2.259   5.707   4.301  0.2244  0.2626 -0.3773
 6968TIP3    H142319   2.306   5.678   4.223  1.6862 -1.0462  0.9453
 6968TIP3    H242320   2.204   5.633   4.325 -1.8230  1.4482 -1.3727
 6969TIP3   OH242321   6.143   0.979  16.240 -0.2612  0.0602  0.5053
 6969TIP3    H142322   6.150   0.910  16.305 -0.8019 -0.2229  0.2654
 6969TIP3    H242323   6.231   1.016  16.234  0.7213 -2.4691 -1.4010
 6970TIP3   OH242324   3.726   1.936   1.771  0.3194 -0.1177  0.3217
 6970TIP3    H142325   3.681   1.959   1.852 -0.3299 -0.2825  0.0137
 6970TIP3    H242326   3.713   1.842   1.762 -0.8777  0.1280 -0.7236
 6971TIP3   OH242327   4.944   2.875   5.276 -0.7247  0.0612 -0.8995
 6971TIP3    H142328   4.950   2.905   5.366 -0.2058  1.6268 -1.4403
 6971TIP3    H242329   4.968   2.782   5.280 -3.1128 -0.5448  0.9085
 6972TIP3   OH242330   2.950   4.052   0.182  0.2118  0.0220 -0.1347
 6972TIP3    H142331   2.920   3.971   0.223  0.1747  0.0926 -0.0204
 6972TIP3    H242332   2.929   4.041   0.089 -1.6654  0.7161  0.1709
 6973TIP3   OH242333   4.054   3.072  13.110  0.0076 -0.0724 -0.5370
 6973TIP3    H142334   4.148   3.063  13.099 -0.1628 -0.6628 -1.6367
 6973TIP3    H242335   4.032   3.156  13.068  0.1677  0.5423  0.5822
 6974TIP3   OH242336   3.376   3.098   4.063  0.0716  0.0686 -0.6057
 6974TIP3    H142337   3.444   3.099   4.131  0.1592  1.1172 -0.6964
 6974TIP3    H242338   3.295   3.116   4.111  0.1168  0.6817 -0.7482
 6975TIP3   OH242339   0.585   0.334  14.229  0.0983  0.3446  0.2773
 6975TIP3    H142340   0.573   0.291  14.144  0.4426  2.1557 -0.7021
 6975TIP3    H242341   0.634   0.413  14.209  3.6644 -1.1466  2.6987
 6976TIP3   OH242342   5.978   1.529   5.548  0.2611  0.5829 -0.0882
 6976TIP3    H142343   6.001   1.472   5.621  0.8314  0.7234 -0.1560
 6976TIP3    H242344   6.041   1.506   5.479 -0.6781 -0.0050 -0.7629
 6977TIP3   OH242345   3.940   3.093  14.858  0.8069 -0.5784 -0.0147
 6977TIP3    H142346   4.024   3.047  14.847 -0.6160 -2.9342 -1.6945
 6977TIP3    H242347   3.890   3.037  14.917 -0.3932 -0.3970 -0.8410
 6978TIP3   OH242348   2.215   4.558  16.323  0.5974  0.4316 -0.1276
 6978TIP3    H142349   2.188   4.647  16.301 -1.3942 -0.6284 -2.1206
 6978TIP3    H242350   2.311   4.559  16.316  0.5604  2.2788 -0.6043
 6979TIP3   OH242351   1.278   4.750  12.845  0.2461  0.3698 -0.0245
 6979TIP3    H142352   1.228   4.830  12.830  0.0300  0.5330  1.4742
 6979TIP3    H242353   1.360   4.764  12.799  0.0202  1.2502 -0.1731
 6980TIP3   OH242354   0.212   4.093   3.791 -0.7283 -0.2436 -0.2875
 6980TIP3    H142355   0.270   4.029   3.750  0.5901 -0.8068  2.3042
 6980TIP3    H242356   0.149   4.040   3.839 -0.6776  0.3843  0.4783
 6981TIP3   OH242357   3.333   3.515  15.286 -0.1280  0.3046 -0.1443
 6981TIP3    H142358   3.413   3.567  15.279  0.2249 -0.2298 -0.0400
 6981TIP3    H242359   3.271   3.573  15.330  0.1903  0.7289 -0.2501
 6982TIP3   OH242360   2.838   3.908   5.405 -0.1859 -0.6424  0.6082
 6982TIP3    H142361   2.751   3.944   5.391  0.3223  0.6069  0.6422
 6982TIP3    H242362   2.825   3.813   5.403 -1.1694 -0.4889 -1.7081
 6983TIP3   OH242363   0.503   4.560  16.042 -0.0664  0.0591 -0.0356
 6983TIP3    H142364   0.534   4.470  16.032  1.8821  0.7242 -0.0539
 6983TIP3    H242365   0.483   4.588  15.953  0.8258  0.1589 -0.2121
 6984TIP3   OH242366   0.715   0.474  15.600  0.0351 -0.2497  0.0993
 6984TIP3    H142367   0.742   0.412  15.668 -0.8639 -0.5788  0.1644
 6984TIP3    H242368   0.796   0.518  15.574  0.8130 -1.9781 -0.4905
 6985TIP3   OH242369   5.422   5.479   5.102  0.7823 -0.2130 -0.0910
 6985TIP3    H142370   5.340   5.451   5.143  0.1961  1.1609 -0.3239
 6985TIP3    H242371   5.396   5.548   5.042  2.1823  0.5480  0.1745
 6986TIP3   OH242372   3.994   0.668  11.564  0.6326  0.2544  0.0481
 6986TIP3    H142373   3.918   0.621  11.597  0.9603  0.2350  0.7962
 6986TIP3    H242374   4.055   0.599  11.536  1.9598  0.1319  3.0457
 6987TIP3   OH242375   0.464   1.918   2.029  0.6399 -0.3182 -0.4088
 6987TIP3    H142376   0.431   1.835   1.996  1.1882 -0.2167 -1.2348
 6987TIP3    H242377   0.558   1.902   2.043  0.3691 -0.4456  1.3812
 6988TIP3   OH242378   2.103   0.095   5.654  0.4834  0.0786 -0.5483
 6988TIP3    H142379   2.099   0.036   5.730  0.1344  2.6598  1.5307
 6988TIP3    H242380   2.187   0.074   5.612 -0.0837 -2.5479 -0.4659
 6989TIP3   OH242381   4.178   4.360   1.113 -0.0959 -0.6729  0.2310
 6989TIP3    H142382   4.180   4.417   1.036 -0.1685  1.3416  1.6546
 6989TIP3    H242383   4.128   4.284   1.086 -2.0931  1.0289 -1.0241
 6990TIP3   OH242384   4.235   2.936  15.764  0.2827  0.5395  0.2048
 6990TIP3    H142385   4.256   2.848  15.733  0.9480  0.5020  0.7562
 6990TIP3    H242386   4.165   2.922  15.829 -1.2204  0.6334 -1.3528
 6991TIP3   OH242387   2.877   3.397   0.736 -0.3317 -0.6063 -0.2975
 6991TIP3    H142388   2.958   3.440   0.764 -0.5329 -0.9758  0.9080
 6991TIP3    H242389   2.855   3.339   0.809 -1.6745 -0.5115 -0.6171
 6992TIP3   OH242390   2.933   2.538  14.214 -0.0290 -0.1555  0.1259
 6992TIP3    H142391   3.014   2.487  14.223  0.5279 -0.0123 -3.1899
 6992TIP3    H242392   2.863   2.474  14.226  0.6232 -0.8952  0.0441
 6993TIP3   OH242393   3.750   3.083   1.014  0.4209 -0.0748  0.6017
 6993TIP3    H142394   3.755   3.075   1.109  0.0245  2.0784  0.8423
 6993TIP3    H242395   3.822   3.142   0.992 -1.3986  2.0075 -0.0233
 6994TIP3   OH242396   4.146   0.300  17.097 -0.1908 -0.0528  0.4784
 6994TIP3    H142397   4.095   0.377  17.068 -0.0841 -0.7277 -1.5909
 6994TIP3    H242398   4.173   0.258  17.016  3.4184  0.0784  1.5324
 6995TIP3   OH242399   5.303   2.006   0.717 -0.0504  0.0329 -0.5747
 6995TIP3    H142400   5.211   1.983   0.705 -0.2407  0.1330  0.6270
 6995TIP3    H242401   5.307   2.046   0.804  1.2295 -0.5452 -0.3544
 6996TIP3   OH242402   5.763   6.453   3.921  0.2641 -0.3054  0.3355
 6996TIP3    H142403   5.786   6.417   3.836  0.1196 -0.5030  0.3787
 6996TIP3    H242404   5.785   6.384   3.984  0.4470 -0.1288  0.4645
 6997TIP3   OH242405   3.496   6.725   5.844  0.0563  0.3131  0.3478
 6997TIP3    H142406   3.563   6.742   5.911  1.0675  2.1657 -1.0927
 6997TIP3    H242407   3.435   6.798   5.852  0.2276  0.5852 -0.8062
 6998TIP3   OH242408   5.773   0.774  11.938 -0.2435  0.0381  0.0771
 6998TIP3    H142409   5.853   0.722  11.946 -0.9606 -1.1817 -0.5282
 6998TIP3    H242410   5.781   0.819  11.854 -1.0123 -1.5669 -0.8985
 6999TIP3   OH242411   2.802   3.362  16.343  0.4715  0.4247  0.6720
 6999TIP3    H142412   2.875   3.417  16.314 -0.1167  0.1815 -1.3035
 6999TIP3    H242413   2.843   3.295  16.397  2.0393 -1.0710 -2.2739
 7000TIP3   OH242414   1.602   4.293  13.294 -0.0930 -0.1611 -0.3083
 7000TIP3    H142415   1.570   4.356  13.359 -0.5978  0.6674 -1.3469
 7000TIP3    H242416   1.568   4.209  13.323  1.6466 -0.1882  1.8163
 7001TIP3   OH242417   4.737   5.844  15.399 -0.4282 -0.1900  0.3008
 7001TIP3    H142418   4.768   5.934  15.412 -0.1831 -0.4653  1.6525
 7001TIP3    H242419   4.816   5.791  15.400 -0.7766 -0.7138  2.1619
 7002TIP3   OH242420   1.832   5.778   3.932  0.1146 -1.0048  0.1404
 7002TIP3    H142421   1.752   5.762   3.981 -0.9795  0.0567 -1.2606
 7002TIP3    H242422   1.885   5.832   3.991 -1.6058  1.1224 -0.1960
 7003TIP3   OH242423   2.770   3.112   4.573  0.1403 -0.2320 -0.3131
 7003TIP3    H142424   2.795   3.186   4.628  0.9034  0.0654 -1.0587
 7003TIP3    H242425   2.738   3.046   4.636 -1.4354  1.0603  0.2629
 7004TIP3   OH242426   1.584   4.298   6.136  0.3783  0.5118  0.0384
 7004TIP3    H142427   1.635   4.230   6.180  1.1831 -0.3551 -2.1390
 7004TIP3    H242428   1.628   4.379   6.159  1.8809 -0.0921 -0.6121
 7005TIP3   OH242429   0.245   5.576   5.333  0.7248 -0.1844 -0.2430
 7005TIP3    H142430   0.274   5.485   5.336  0.5030 -0.2689 -0.6944
 7005TIP3    H242431   0.326   5.627   5.326  0.8250 -0.3686 -0.4239
 7006TIP3   OH242432   2.971   1.083   5.082 -0.2074 -1.1096  0.1125
 7006TIP3    H142433   3.045   1.120   5.034  0.6857 -3.0804 -0.0941
 7006TIP3    H242434   2.985   1.110   5.173  0.4100 -0.9312 -0.0298
 7007TIP3   OH242435   4.998   3.786   1.451  0.0757  0.0530  0.0752
 7007TIP3    H142436   4.980   3.742   1.367  2.0544  0.2842 -0.4799
 7007TIP3    H242437   4.996   3.715   1.515 -0.0297 -0.3452 -0.3613
 7008TIP3   OH242438   0.652   0.873  14.748  0.5865  0.5720  0.1618
 7008TIP3    H142439   0.562   0.887  14.720  0.4088  0.1462  0.5100
 7008TIP3    H242440   0.654   0.903  14.839  0.4889 -0.5565  0.5402
 7009TIP3   OH242441   5.743   4.767  15.704  0.0827 -0.2403 -0.4078
 7009TIP3    H142442   5.829   4.756  15.663  1.7743 -0.9184  3.1254
 7009TIP3    H242443   5.696   4.686  15.684  0.6995 -0.3746 -1.3473
 7010TIP3   OH242444   6.462   2.137   1.703  0.0352  0.5462  0.2448
 7010TIP3    H142445   6.492   2.091   1.781  0.5402 -0.4128 -0.5097
 7010TIP3    H242446   6.457   2.229   1.730  1.6358  0.4291  0.9829
 7011TIP3   OH242447   4.502   1.467  15.934 -0.2857  0.4638  0.0223
 7011TIP3    H142448   4.412   1.497  15.943 -0.0578  1.3063 -0.4708
 7011TIP3    H242449   4.526   1.438  16.022 -0.8555  0.7617  0.2785
 7012TIP3   OH242450   0.372   2.956   3.849 -0.2207  0.4286 -1.2618
 7012TIP3    H142451   0.281   2.935   3.870  0.3858 -0.2783  0.7382
 7012TIP3    H242452   0.408   2.874   3.815 -0.7213  1.1082 -3.4989
 7013TIP3   OH242453   4.733   4.367  17.177 -0.0657 -0.0086  0.2009
 7013TIP3    H142454   4.661   4.429  17.166  1.0613  1.2377 -0.3048
 7013TIP3    H242455   4.743   4.358  17.272  1.1899  2.3104  0.3233
 7014TIP3   OH242456   6.455   1.368   4.412 -0.6058  0.4154 -0.0915
 7014TIP3    H142457   6.372   1.329   4.437 -0.1708  0.1386  0.9628
 7014TIP3    H242458   6.487   1.410   4.492  1.1693 -1.0853  0.0403
 7015TIP3   OH242459   5.786   6.530  16.033 -0.8214  0.7009 -0.1542
 7015TIP3    H142460   5.861   6.506  16.087 -0.6918  1.6525  0.1040
 7015TIP3    H242461   5.714   6.476  16.066 -0.0491 -0.8678 -1.0051
 7016TIP3   OH242462   4.816   2.124  16.415  0.5558  0.2933 -0.0522
 7016TIP3    H142463   4.814   2.208  16.370 -0.2584  1.2947  1.8307
 7016TIP3    H242464   4.728   2.114  16.453  1.0433 -0.8044  0.8271
 7017TIP3   OH242465   6.030   2.392   5.199 -0.5245  0.6464  0.1942
 7017TIP3    H142466   6.102   2.331   5.215  0.4180  2.2345  2.3084
 7017TIP3    H242467   6.070   2.479   5.208 -2.0479  1.5803 -1.7513
 7018TIP3   OH242468   6.030   5.121  13.904  0.1508 -0.9289 -0.1273
 7018TIP3    H142469   6.117   5.117  13.864 -0.4301  1.1110 -1.6901
 7018TIP3    H242470   6.035   5.194  13.966 -0.9058  0.2668 -1.4247
 7019TIP3   OH242471   5.082   1.097  11.137 -0.5355  0.0557 -0.7702
 7019TIP3    H142472   5.078   1.014  11.089  0.6348  0.1982 -1.1452
 7019TIP3    H242473   5.171   1.099  11.174 -0.5088  1.1912 -0.8713
 7020TIP3   OH242474   2.956   4.150   5.780 -0.0074 -0.6092 -0.3140
 7020TIP3    H142475   3.041   4.157   5.736  1.3376 -0.9921  2.1341
 7020TIP3    H242476   2.920   4.238   5.777  0.2341 -0.5408 -1.7905
 7021TIP3   OH242477   1.391   1.845   3.389  0.3660 -0.4760 -0.0145
 7021TIP3    H142478   1.406   1.915   3.326 -0.3130 -0.2227  0.1015
 7021TIP3    H242479   1.477   1.805   3.402  0.2671 -1.4388 -2.1568
 7022TIP3   OH242480   1.446   0.056  16.436  0.7314  0.1751  0.1917
 7022TIP3    H142481   1.489  -0.023  16.469 -0.0935 -0.5367 -0.3944
 7022TIP3    H242482   1.374   0.022  16.382 -0.2398  1.3309  0.7625
 7023TIP3   OH242483   2.783   5.048  13.831 -0.4028  0.1717 -0.8205
 7023TIP3    H142484   2.793   4.971  13.886  0.2112  0.8127 -0.0374
 7023TIP3    H242485   2.863   5.051  13.778 -0.1213  0.6467 -0.3736
 7024TIP3   OH242486   5.254   1.486  14.847 -0.1970  0.0164 -0.3417
 7024TIP3    H142487   5.255   1.412  14.907 -0.7171 -0.5725 -1.0543
 7024TIP3    H242488   5.220   1.559  14.899 -1.9720 -0.8209 -0.2830
 7025TIP3   OH242489   5.217   2.923   2.297  0.3617 -0.3792 -0.7308
 7025TIP3    H142490   5.161   2.850   2.274  0.1727 -0.7057  0.6788
 7025TIP3    H242491   5.183   2.997   2.247 -0.8820 -0.7401 -0.4470
 7026TIP3   OH242492   3.639   3.228   3.459  0.5215  0.4689 -0.1682
 7026TIP3    H142493   3.617   3.320   3.448 -2.6759  0.0632  2.0860
 7026TIP3    H242494   3.687   3.224   3.542  2.1145  0.2903 -1.0817
 7027TIP3   OH242495   3.843   3.654   3.854 -0.5328 -0.0341 -0.0845
 7027TIP3    H142496   3.884   3.599   3.787 -1.2152  1.1253 -1.4783
 7027TIP3    H242497   3.879   3.741   3.838  0.0011  0.0825  1.6593
 7028TIP3   OH242498   6.025   0.366  17.012 -0.6130  0.0314 -0.0846
 7028TIP3    H142499   5.941   0.363  17.058  0.5738 -1.3599  2.0637
 7028TIP3    H242500   6.010   0.316  16.932 -2.0048  0.3309 -0.0230
 7029TIP3   OH242501   0.764   6.707  15.994  0.6867  0.2377 -0.6648
 7029TIP3    H142502   0.791   6.644  15.927 -0.7466 -2.3633  1.1169
 7029TIP3    H242503   0.692   6.664  16.039 -0.8891  3.5320  0.1068
 7030TIP3   OH242504   5.787   0.353   5.315  0.4549 -0.0993 -0.0397
 7030TIP3    H142505   5.801   0.366   5.221 -0.0035  0.6105 -0.0125
 7030TIP3    H242506   5.692   0.362   5.327  0.5140 -0.1467  0.4993
 7031TIP3   OH242507   5.045   2.425  14.195  0.2013 -0.2504  0.2139
 7031TIP3    H142508   5.095   2.448  14.273 -0.0354 -1.1924  0.6535
 7031TIP3    H242509   5.010   2.508  14.163  0.2165  0.1260  1.1721
 7032TIP3   OH242510   2.651   3.151   4.320 -0.2932 -0.4729  0.3354
 7032TIP3    H142511   2.681   3.242   4.329 -1.3164 -0.1971  0.9982
 7032TIP3    H242512   2.694   3.105   4.392  1.3321 -0.8228 -0.8171
 7033TIP3   OH242513   2.444   2.812  13.211  0.0835  0.0693 -0.8687
 7033TIP3    H142514   2.505   2.770  13.151 -0.1249 -1.1099 -0.2659
 7033TIP3    H242515   2.496   2.829  13.290 -0.3015 -0.7612 -0.4254
 7034TIP3   OH242516   4.661   6.334   0.398  0.3807 -0.1123  0.2370
 7034TIP3    H142517   4.718   6.292   0.462  2.8578 -0.7408 -2.2726
 7034TIP3    H242518   4.588   6.272   0.386  0.4373 -0.4591  1.6447
 7035TIP3   OH242519   4.601   5.681  13.826 -0.1504 -0.2065  0.4319
 7035TIP3    H142520   4.546   5.673  13.905 -2.9429  1.7632 -1.2462
 7035TIP3    H242521   4.639   5.768  13.833 -0.8280  0.1795 -0.6427
 7036TIP3   OH242522   1.187   4.002   1.153  0.5395 -0.0475 -0.2846
 7036TIP3    H142523   1.248   4.052   1.098  0.7009 -1.2694 -1.2373
 7036TIP3    H242524   1.197   3.912   1.124 -0.2762 -0.5466  0.9342
 7037TIP3   OH242525   2.917   1.029  14.023 -0.1760 -0.1046 -0.1509
 7037TIP3    H142526   3.011   1.027  14.039 -0.2630  0.7085  0.4877
 7037TIP3    H242527   2.883   0.952  14.070  0.0905 -0.0114  0.1998
 7038TIP3   OH242528   6.250   6.573  16.917 -0.3015 -0.5247  0.1006
 7038TIP3    H142529   6.280   6.655  16.878 -2.4622  0.6595  0.8689
 7038TIP3    H242530   6.230   6.517  16.842  0.6597 -0.1640 -0.4321
 7039TIP3   OH242531   1.194   6.084  14.557 -0.5087  0.2444  0.1719
 7039TIP3    H142532   1.116   6.137  14.546 -0.6370 -0.1349 -0.7312
 7039TIP3    H242533   1.212   6.088  14.651 -0.6326  1.7077  0.1494
 7040TIP3   OH242534   0.283   0.223  15.734  0.0431  0.1579  0.6879
 7040TIP3    H142535   0.223   0.283  15.779 -1.2809 -0.7416  0.1713
 7040TIP3    H242536   0.282   0.252  15.643 -1.5664 -1.3521  0.1848
 7041TIP3   OH242537   4.579   2.794   1.297 -0.0624  0.0410  0.0648
 7041TIP3    H142538   4.648   2.858   1.315  0.8220 -0.4958 -1.3712
 7041TIP3    H242539   4.531   2.831   1.223  0.2722 -0.8164 -0.5875
 7042TIP3   OH242540   3.304   2.178  12.560 -0.2347  0.2662  0.4080
 7042TIP3    H142541   3.369   2.108  12.565  0.2553  0.6453 -0.6405
 7042TIP3    H242542   3.313   2.214  12.472 -1.4302  0.7463  0.4710
 7043TIP3   OH242543   1.909   5.987   0.334 -0.1597 -0.1193  0.4274
 7043TIP3    H142544   1.844   5.952   0.273  0.5862 -3.0725  1.2379
 7043TIP3    H242545   1.860   6.005   0.415 -0.4879  0.4643  0.1041
 7044TIP3   OH242546   3.336   6.501  15.360  0.2558  0.3728  0.2997
 7044TIP3    H142547   3.334   6.500  15.265  0.4608 -2.2850  0.2731
 7044TIP3    H242548   3.386   6.579  15.383  2.0327 -0.1066 -1.8222
 7045TIP3   OH242549   3.894   4.220   1.428  0.3570 -0.0870 -0.2231
 7045TIP3    H142550   3.895   4.287   1.496  0.2682  0.3495 -0.6553
 7045TIP3    H242551   3.874   4.267   1.347  1.4110 -0.4572 -0.7176
 7046TIP3   OH242552   3.900   1.026  17.083 -0.1296 -0.4582 -0.6360
 7046TIP3    H142553   3.947   1.096  17.037 -2.1450  0.3107 -1.5779
 7046TIP3    H242554   3.847   1.072  17.148  1.8814 -1.4631  1.8051
 7047TIP3   OH242555   2.077   0.298  15.683  0.9017  0.0180  0.2214
 7047TIP3    H142556   2.041   0.313  15.771  1.2694 -0.9475  0.5359
 7047TIP3    H242557   2.151   0.239  15.696  1.4134  0.4513 -0.6555
 7048TIP3   OH242558   2.986   3.926  11.680  0.2512 -0.0081  0.1658
 7048TIP3    H142559   2.905   3.901  11.726  0.1685  0.8279  0.4842
 7048TIP3    H242560   3.056   3.885  11.732  0.0333 -0.9085 -0.2282
 7049TIP3   OH242561   3.491   2.962  14.419 -0.4894  0.7070 -0.3723
 7049TIP3    H142562   3.573   3.000  14.451  0.4907 -1.7583  0.1788
 7049TIP3    H242563   3.486   2.987  14.327  0.6687  1.2383 -0.2885
 7050TIP3   OH242564   4.786   2.217  13.061  0.0419 -0.5541  0.3322
 7050TIP3    H142565   4.692   2.222  13.043  0.1455 -1.5645 -0.5520
 7050TIP3    H242566   4.823   2.291  13.012 -0.3994  0.4832  1.5379
 7051TIP3   OH242567   2.186   6.561   1.894 -0.2880  0.3496 -0.6183
 7051TIP3    H142568   2.258   6.499   1.905  1.5257  2.2775 -1.3574
 7051TIP3    H242569   2.157   6.549   1.804  0.8101  1.3479 -1.1109
 7052TIP3   OH242570   2.718   6.265  16.729 -0.3256 -0.2281 -0.3485
 7052TIP3    H142571   2.784   6.197  16.742  0.0669  0.4644  1.4728
 7052TIP3    H242572   2.714   6.277  16.634  1.6500 -0.8009 -0.5284
 7053TIP3   OH242573   5.512   1.221   0.006 -0.0600 -0.5027 -0.5206
 7053TIP3    H142574   5.582   1.159   0.026 -0.9153 -1.0015  1.0567
 7053TIP3    H242575   5.435   1.184   0.048 -0.3912  2.0885  1.3397
 7054TIP3   OH242576   5.341   5.796  11.493  0.1514  0.3507 -0.0151
 7054TIP3    H142577   5.252   5.776  11.519 -0.1406  0.3098 -1.0197
 7054TIP3    H242578   5.334   5.878  11.443  0.7147  0.5042  0.1444
 7055TIP3   OH242579   1.536   1.272   4.977  0.0943 -0.2877  0.1499
 7055TIP3    H142580   1.572   1.250   4.891 -0.2520  2.1969 -0.6665
 7055TIP3    H242581   1.441   1.264   4.966  0.0611 -0.1719  0.3485
 7056TIP3   OH242582   3.881   2.064   4.653 -0.0296 -0.2957  0.2104
 7056TIP3    H142583   3.962   2.022   4.624 -1.3314 -2.0903 -0.9400
 7056TIP3    H242584   3.823   1.991   4.675 -1.8286  0.9431 -0.3700
 7057TIP3   OH242585   3.526   2.370  16.784  0.3197  0.6820 -0.3477
 7057TIP3    H142586   3.495   2.451  16.825 -0.6446 -0.1083  0.5107
 7057TIP3    H242587   3.619   2.385  16.769  0.0398  2.1574 -0.6911
 7058TIP3   OH242588   5.460   2.807   1.057 -0.5033 -0.1026 -0.5373
 7058TIP3    H142589   5.490   2.789   0.967 -1.2533  1.9445 -1.2140
 7058TIP3    H242590   5.538   2.842   1.101  0.0472 -1.7327 -0.1721
 7059TIP3   OH242591   1.861   2.120  17.199 -0.1802 -0.5090  0.1853
 7059TIP3    H142592   1.837   2.212  17.186 -1.3379 -0.3464  3.2788
 7059TIP3    H242593   1.953   2.124  17.227  0.2719 -0.4382 -1.2448
 7060TIP3   OH242594   3.317   2.596   4.081 -0.4737 -0.2316  0.2153
 7060TIP3    H142595   3.237   2.545   4.091 -2.1537  2.3202  0.1932
 7060TIP3    H242596   3.337   2.626   4.170 -1.6974  2.2421 -0.3003
 7061TIP3   OH242597   3.536   1.858   4.936 -0.9643  0.1892 -0.1685
 7061TIP3    H142598   3.628   1.876   4.954 -1.2080 -0.4822  1.9137
 7061TIP3    H242599   3.537   1.792   4.867  0.2426 -2.4101  2.2409
 7062TIP3   OH242600   6.280   5.723  13.957  0.4352  0.5170 -0.4690
 7062TIP3    H142601   6.260   5.761  14.042  4.3504  1.7742 -0.0030
 7062TIP3    H242602   6.277   5.628  13.972 -1.6230  0.6951  0.3402
 7063TIP3   OH242603   1.253   5.768  14.756 -0.0260  0.5568  0.3047
 7063TIP3    H142604   1.263   5.845  14.813 -2.0079  1.5390 -0.6318
 7063TIP3    H242605   1.231   5.697  14.816 -0.4996  1.2290  0.9376
 7064TIP3   OH242606   5.506   2.637  14.746  0.1633  0.4108 -0.3453
 7064TIP3    H142607   5.514   2.552  14.788 -1.8225  0.5253  0.2947
 7064TIP3    H242608   5.494   2.699  14.818  1.1653  1.1862 -0.8323
 7065TIP3   OH242609   5.177   5.881  12.919 -0.1516  0.6752  0.3491
 7065TIP3    H142610   5.239   5.821  12.961 -0.4769  1.0057  1.3116
 7065TIP3    H242611   5.230   5.929  12.855  0.1446 -0.5107 -0.3025
 7066TIP3   OH242612   3.466   5.264  15.275 -0.1611  0.5738 -0.4306
 7066TIP3    H142613   3.549   5.313  15.273 -0.0250  0.3692  0.2943
 7066TIP3    H242614   3.489   5.179  15.312 -0.8135  0.7337  0.3585
 7067TIP3   OH242615   6.255   2.062   2.662  0.0542  0.1521 -0.1278
 7067TIP3    H142616   6.256   1.967   2.646  2.7466 -0.0274  0.8741
 7067TIP3    H242617   6.193   2.073   2.734 -1.5475 -0.6402 -1.3589
 7068TIP3   OH242618   6.445   3.687   0.468 -0.0026  0.2498  0.8694
 7068TIP3    H142619   6.526   3.642   0.445  0.9759  2.8116 -0.9839
 7068TIP3    H242620   6.467   3.738   0.546  0.8471  2.5213 -0.7832
 7069TIP3   OH242621   6.632   3.163   3.115 -0.8199 -0.5010 -0.0653
 7069TIP3    H142622   6.581   3.156   3.196  1.4882  0.2839  1.5118
 7069TIP3    H242623   6.701   3.097   3.124  1.7479  2.1194  0.3996
 7070TIP3   OH242624   1.903   4.726  11.911 -0.0398  0.1553 -0.2160
 7070TIP3    H142625   1.908   4.735  11.816  0.0957 -0.7584 -0.2920
 7070TIP3    H242626   1.969   4.788  11.944 -1.2194  1.6727 -0.6525
 7071TIP3   OH242627   1.657   4.326  14.402 -0.4958  0.0068 -0.2280
 7071TIP3    H142628   1.568   4.296  14.382 -0.7242  0.4029  0.2010
 7071TIP3    H242629   1.686   4.369  14.321  0.3877 -2.6412 -1.3732
 7072TIP3   OH242630   0.039   2.645  16.809 -0.2800 -0.3364 -0.8519
 7072TIP3    H142631   0.041   2.625  16.715  0.3820 -2.0834 -0.4731
 7072TIP3    H242632   0.130   2.638  16.837 -0.5418 -0.2983  0.0241
 7073TIP3   OH242633   4.080   6.051  14.312 -0.0045  0.2110  0.3288
 7073TIP3    H142634   4.029   5.970  14.310  1.9500 -1.0503 -2.2407
 7073TIP3    H242635   4.024   6.116  14.271 -0.8128 -0.3177  0.5746
 7074TIP3   OH242636   2.796   0.849   2.402  0.5468  0.2973 -0.0120
 7074TIP3    H142637   2.748   0.777   2.444  5.6779 -2.2971  1.8449
 7074TIP3    H242638   2.778   0.838   2.308 -0.7795 -1.7832  0.4475
 7075TIP3   OH242639   0.816   4.376  11.170  0.6014 -0.4881  1.0342
 7075TIP3    H142640   0.819   4.280  11.180 -0.0491 -0.6284 -0.0087
 7075TIP3    H242641   0.860   4.392  11.087  0.4471  0.0959  1.0653
 7076TIP3   OH242642   0.246   0.366  11.890  0.2004 -0.5834 -0.2272
 7076TIP3    H142643   0.182   0.309  11.848  0.5898 -1.2827  0.1265
 7076TIP3    H242644   0.287   0.413  11.817  1.2048 -2.1434 -0.6954
 7077TIP3   OH242645   5.751   2.785   3.553  0.4261 -0.2718 -0.2202
 7077TIP3    H142646   5.844   2.763   3.554  1.2068  2.6504 -1.3728
 7077TIP3    H242647   5.738   2.837   3.633  0.0010  0.0684 -0.5066
 7078TIP3   OH242648   1.123   4.576   0.134 -0.1008  0.0782  0.0756
 7078TIP3    H142649   1.044   4.552   0.086  0.0833 -0.5871  0.0890
 7078TIP3    H242650   1.129   4.510   0.204  1.3956 -0.9456 -0.9712
 7079TIP3   OH242651   2.041   6.672   5.019 -0.2134 -0.3899  0.4731
 7079TIP3    H142652   2.091   6.662   5.100 -0.6300  0.3391  0.8290
 7079TIP3    H242653   2.050   6.764   4.996 -1.3425 -0.2583  0.5148
 7080TIP3   OH242654   1.522   6.341   2.143 -0.0326 -0.3145 -0.1998
 7080TIP3    H142655   1.436   6.357   2.181  0.0738  1.1796 -0.5529
 7080TIP3    H242656   1.581   6.397   2.194  0.4005  0.2550 -1.3154
 7081TIP3   OH242657   2.721   4.144  11.346 -0.1628  0.3118  0.3081
 7081TIP3    H142658   2.776   4.174  11.274  0.1807 -2.5824 -0.7199
 7081TIP3    H242659   2.632   4.154  11.314 -0.0028 -1.2187 -0.6629
 7082TIP3   OH242660   3.923   6.399  12.251 -0.1877  0.2721 -0.3177
 7082TIP3    H142661   3.932   6.453  12.172  1.4490  0.5916  0.0638
 7082TIP3    H242662   3.996   6.339  12.247 -0.6746 -0.3763  0.4620
 7083TIP3   OH242663   0.844   1.658   5.727 -0.3051  0.2249 -0.0993
 7083TIP3    H142664   0.767   1.669   5.783 -0.9364 -0.7904 -0.7624
 7083TIP3    H242665   0.909   1.618   5.785 -1.0101 -0.9679 -0.1015
 7084TIP3   OH242666   0.578   5.971   5.932  0.3181  0.3207  0.6234
 7084TIP3    H142667   0.494   5.980   5.886 -1.0265  0.1330  2.9879
 7084TIP3    H242668   0.592   6.057   5.972  2.2212  0.9484 -1.2918
 7085TIP3   OH242669   3.024   1.187  12.851  0.1690 -0.0935 -0.0743
 7085TIP3    H142670   3.065   1.110  12.891 -0.0361 -1.2984 -2.1589
 7085TIP3    H242671   3.087   1.258  12.866  1.1159 -1.0177  0.3839
 7086TIP3   OH242672   6.601   2.452  15.438  0.4100  0.2065  0.2888
 7086TIP3    H142673   6.579   2.382  15.499 -0.0129  0.2058  0.1447
 7086TIP3    H242674   6.625   2.406  15.357  0.8620  0.2102  0.4210
 7087TIP3   OH242675   5.595   1.065   1.668 -0.2030  0.4982 -0.1750
 7087TIP3    H142676   5.639   1.112   1.739  0.7685  0.5387 -0.7915
 7087TIP3    H242677   5.661   1.059   1.599 -0.2527 -1.9642 -0.0396
 7088TIP3   OH242678   5.636   2.752   4.749 -0.2900 -0.5515 -0.5198
 7088TIP3    H142679   5.557   2.716   4.788 -0.3881  1.6104  1.3638
 7088TIP3    H242680   5.686   2.675   4.720 -1.6286 -2.0592  1.0845
 7089TIP3   OH242681   4.570   2.214   2.453 -0.5653  0.3515 -0.0328
 7089TIP3    H142682   4.601   2.152   2.388  0.9972 -0.9881  1.9151
 7089TIP3    H242683   4.573   2.299   2.409  0.2884 -0.5363 -1.7377
 7090TIP3   OH242684   0.780   1.127   3.004  0.0785  0.1442 -0.0826
 7090TIP3    H142685   0.771   1.212   2.960  1.6212 -0.1730 -1.0568
 7090TIP3    H242686   0.866   1.095   2.976 -0.1984 -1.4310  0.8273
 7091TIP3   OH242687   6.156   5.538  11.298 -0.1012  0.2453 -0.5524
 7091TIP3    H142688   6.227   5.537  11.234 -0.6182 -0.1945 -1.1225
 7091TIP3    H242689   6.194   5.501  11.377  0.1241 -0.5826 -1.0475
 7092TIP3   OH242690   4.188   2.113  16.141  0.6326 -0.5091  0.2064
 7092TIP3    H142691   4.255   2.130  16.206  1.5460 -1.7763 -0.3895
 7092TIP3    H242692   4.199   2.021  16.118 -1.5923 -0.8548  0.4147
 7093TIP3   OH242693   1.613   3.298  16.879  0.2190  0.0469  0.3451
 7093TIP3    H142694   1.550   3.340  16.820 -0.0680 -0.1224  0.5241
 7093TIP3    H242695   1.692   3.287  16.827 -0.4050 -1.1449 -0.3615
 7094TIP3   OH242696   5.275   4.335   3.097  0.2126 -0.3817  0.2233
 7094TIP3    H142697   5.201   4.336   3.158  0.1448  0.5510  0.1379
 7094TIP3    H242698   5.311   4.423   3.102  0.0945 -0.2305 -1.2160
 7095TIP3   OH242699   6.439   6.603   4.272  0.5408 -0.1098  0.1183
 7095TIP3    H142700   6.363   6.554   4.301  0.6310  0.3259  1.1218
 7095TIP3    H242701   6.445   6.677   4.333  0.2102  1.3342 -1.5734
 7096TIP3   OH242702   5.541   2.847  11.189  0.2804  0.3302 -0.3505
 7096TIP3    H142703   5.554   2.756  11.163 -1.4550 -0.1933  0.5659
 7096TIP3    H242704   5.527   2.894  11.107 -1.0823 -0.6186 -0.6674
 7097TIP3   OH242705   1.832   2.873  13.407  0.2246  0.6854 -0.3025
 7097TIP3    H142706   1.745   2.900  13.434  0.6265  1.3767  0.3422
 7097TIP3    H242707   1.875   2.953  13.378  0.0200  0.0454 -2.4313
 7098TIP3   OH242708   4.481   5.667   0.769 -0.3973 -0.0423  0.1437
 7098TIP3    H142709   4.392   5.701   0.764 -0.4353 -0.4231 -2.4738
 7098TIP3    H242710   4.470   5.572   0.773 -0.1140 -0.0580  0.5841
 7099TIP3   OH242711   1.488   4.891   3.988 -0.2285  0.6165  0.0514
 7099TIP3    H142712   1.570   4.926   3.955  0.5151 -0.1303  1.0698
 7099TIP3    H242713   1.488   4.799   3.959 -0.5042  0.5013  0.4093
 7100TIP3   OH242714   5.711   3.610   3.873  0.6818 -0.3520  0.2465
 7100TIP3    H142715   5.720   3.705   3.871  0.7197 -0.3678 -0.4490
 7100TIP3    H242716   5.617   3.595   3.879  0.5627 -0.2849 -1.3222
 7101TIP3   OH242717   3.132   3.214  11.420 -0.5114 -0.7107 -0.2855
 7101TIP3    H142718   3.224   3.226  11.397 -0.3910  0.2127  0.6258
 7101TIP3    H242719   3.133   3.151  11.492 -0.5431 -0.2352  0.1333
 7102TIP3   OH242720   5.097   2.312  11.144  0.2152  0.0790  0.1400
 7102TIP3    H142721   5.041   2.237  11.123 -0.6840  0.9276 -0.5390
 7102TIP3    H242722   5.187   2.278  11.137 -0.1901 -1.0139  0.1888
 7103TIP3   OH242723   5.178   0.104  11.648 -0.1750 -0.3460  0.0503
 7103TIP3    H142724   5.099   0.126  11.599 -2.0676 -2.4334  2.0937
 7103TIP3    H242725   5.190   0.178  11.707  1.4007  1.5777 -2.5311
 7104TIP3   OH242726   1.019   2.123   0.701  0.6007  0.0207 -0.2712
 7104TIP3    H142727   1.029   2.075   0.784  0.2567 -1.2289 -0.9375
 7104TIP3    H242728   1.078   2.078   0.640 -1.6223 -1.1965 -1.5991
 7105TIP3   OH242729   5.075   0.940   5.742 -0.0408 -0.2265  0.5676
 7105TIP3    H142730   5.151   0.986   5.777 -1.4451  0.9990  2.0446
 7105TIP3    H242731   5.004   0.960   5.802 -1.4817 -1.6323 -0.6034
 7106TIP3   OH242732   2.824   0.950   3.110 -0.0788  0.2749 -0.5112
 7106TIP3    H142733   2.871   0.910   3.037  0.6968  1.3738 -0.6139
 7106TIP3    H242734   2.801   1.037   3.079  0.7259  0.9424  0.7603
 7107TIP3   OH242735   0.501   5.592   2.942  0.4121 -0.3653  0.7362
 7107TIP3    H142736   0.488   5.676   2.986 -1.4060 -0.1362 -0.2070
 7107TIP3    H242737   0.593   5.593   2.917  1.2407 -0.0567  3.5559
 7108TIP3   OH242738   1.965   6.613   2.216  0.5036  0.1061 -0.3938
 7108TIP3    H142739   1.943   6.658   2.298 -1.6747 -2.3639  0.4605
 7108TIP3    H242740   1.899   6.643   2.153  1.3315  0.9465 -0.8684
 7109TIP3   OH242741   2.680   5.395  14.625 -0.3123 -0.4660  0.1257
 7109TIP3    H142742   2.634   5.361  14.701 -0.1948  1.7820  1.2468
 7109TIP3    H242743   2.767   5.417  14.658 -0.2860  0.5830 -0.6242
 7110TIP3   OH242744   2.694   4.748  15.426 -0.2397  0.1165 -0.1940
 7110TIP3    H142745   2.657   4.793  15.351  1.3153  2.7574  0.5568
 7110TIP3    H242746   2.699   4.815  15.494  0.5039 -1.6392  1.5389
 7111TIP3   OH242747   2.746   1.030  15.083 -0.6208 -0.4592  0.4302
 7111TIP3    H142748   2.737   1.105  15.024 -3.7309 -0.6355  0.5959
 7111TIP3    H242749   2.706   0.957  15.035 -0.9922 -1.1529  1.7800
 7112TIP3   OH242750   6.125   0.449  15.579 -0.3201 -0.1074  0.0695
 7112TIP3    H142751   6.112   0.503  15.656  1.2436 -0.0260  0.2974
 7112TIP3    H242752   6.146   0.362  15.613  2.1790  0.3400 -0.1850
 7113TIP3   OH242753   2.877   3.731   4.700  0.4125  0.0714  0.0171
 7113TIP3    H142754   2.838   3.810   4.663 -0.7531  0.5966  2.2310
 7113TIP3    H242755   2.970   3.751   4.706  0.1585  1.2161  0.3481
 7114TIP3   OH242756   5.486   2.982   1.371  0.1411 -0.1172 -0.3388
 7114TIP3    H142757   5.535   2.955   1.293  1.3224  0.1706  0.2961
 7114TIP3    H242758   5.521   2.927   1.441 -0.2587  0.2896  0.1768
 7115TIP3   OH242759   1.741   4.474  11.219 -0.4452  0.7318  0.2637
 7115TIP3    H142760   1.828   4.514  11.221  0.1070 -0.3885 -0.6872
 7115TIP3    H242761   1.683   4.543  11.252  0.5567  2.1091 -0.7605
 7116TIP3   OH242762   3.575   1.066   2.478 -0.0140 -0.4142  0.3298
 7116TIP3    H142763   3.535   1.041   2.562  1.3084  2.1807  1.8076
 7116TIP3    H242764   3.500   1.083   2.420 -0.9434 -2.4109  0.9211
 7117TIP3   OH242765   1.090   4.409   4.657  0.4541  0.2580  0.4731
 7117TIP3    H142766   1.159   4.419   4.723 -0.2300  1.7592  0.9585
 7117TIP3    H242767   1.012   4.446   4.698  0.4319  2.8814 -1.8485
 7118TIP3   OH242768   0.784   5.698  14.481  0.1504 -0.1130 -0.2881
 7118TIP3    H142769   0.877   5.700  14.505 -0.0774  0.0871  0.5947
 7118TIP3    H242770   0.750   5.621  14.526 -0.7850  1.5457  1.9696
 7119TIP3   OH242771   6.338   4.200  15.791  0.0425  0.4685  0.2066
 7119TIP3    H142772   6.255   4.244  15.811 -1.0556 -0.9748 -1.0092
 7119TIP3    H242773   6.332   4.117  15.837  0.1173 -0.3009 -1.1293
 7120TIP3   OH242774   4.572   1.367   3.822 -0.3786  0.1914  0.0235
 7120TIP3    H142775   4.597   1.304   3.755 -1.2211  0.1906 -0.2843
 7120TIP3    H242776   4.521   1.433   3.776 -2.6782 -0.8618  1.0186
 7121TIP3   OH242777   3.708   3.294  15.532 -0.5346  0.6068  0.8029
 7121TIP3    H142778   3.636   3.265  15.475 -0.3840  1.6167  0.0923
 7121TIP3    H242779   3.774   3.225  15.523 -0.7320  0.4953  0.1543
 7122TIP3   OH242780   2.303   5.641  13.449  0.0987  0.2168  0.1147
 7122TIP3    H142781   2.317   5.665  13.358  0.4468  1.3828  0.4747
 7122TIP3    H242782   2.382   5.592  13.473 -1.4200 -3.0160 -1.1688
 7123TIP3   OH242783   4.405   2.925   4.633  0.4450 -0.2729  0.8398
 7123TIP3    H142784   4.364   2.973   4.560  1.0775 -1.3044 -0.2105
 7123TIP3    H242785   4.488   2.970   4.648  0.2694  0.0014  0.9954
 7124TIP3   OH242786   6.395   3.642   5.970  0.7193 -0.6143  0.1786
 7124TIP3    H142787   6.486   3.620   5.952  0.5216 -0.3540 -1.2215
 7124TIP3    H242788   6.399   3.718   6.028  1.3856 -1.3905  1.1587
 7125TIP3   OH242789   0.388   2.546   3.973  0.9381  0.4800  0.3000
 7125TIP3    H142790   0.461   2.533   4.033  0.6637 -0.8460  0.3546
 7125TIP3    H242791   0.311   2.554   4.029  0.3389 -3.0363  0.1104
 7126TIP3   OH242792   5.428   4.485   6.135 -0.3078 -0.0706  0.1922
 7126TIP3    H142793   5.336   4.461   6.144  0.0049 -1.7452 -0.7353
 7126TIP3    H242794   5.459   4.497   6.224 -1.8369  2.1724  0.4437
 7127TIP3   OH242795   1.764   6.042  13.723  0.1314 -0.3581  0.8634
 7127TIP3    H142796   1.858   6.060  13.732 -0.1735  0.0866  3.2720
 7127TIP3    H242797   1.726   6.128  13.706  0.3070 -0.7426 -1.6737
 7128TIP3   OH242798   2.246   0.763   5.414  0.1994 -0.2055  0.1991
 7128TIP3    H142799   2.297   0.824   5.468  1.5189 -1.0040 -0.1146
 7128TIP3    H242800   2.282   0.677   5.435  1.2973 -0.4744 -2.4769
 7129TIP3   OH242801   1.966   2.920   1.787 -0.1231 -0.2851  0.5458
 7129TIP3    H142802   1.957   2.917   1.692  1.8164 -0.2522  0.3353
 7129TIP3    H242803   1.987   3.011   1.806 -0.4192 -0.3094  1.0019
 7130TIP3   OH242804   1.542   6.153  16.129 -0.2417 -0.3769  0.7155
 7130TIP3    H142805   1.574   6.108  16.207  0.2671 -0.7454  0.2894
 7130TIP3    H242806   1.607   6.135  16.062 -1.2867 -1.0436 -0.1306
 7131TIP3   OH242807   0.294   1.657   2.888  0.2826 -0.3503 -0.6363
 7131TIP3    H142808   0.276   1.684   2.978 -1.3771 -2.0300 -0.4328
 7131TIP3    H242809   0.256   1.727   2.834  0.4619  0.2022 -0.0507
 7132TIP3   OH242810   1.059   2.886   2.702  0.1221  0.2164  0.3267
 7132TIP3    H142811   1.002   2.919   2.771  1.1851 -0.7815  1.7120
 7132TIP3    H242812   1.038   2.793   2.696 -0.9077  0.5590 -1.6410
 7133TIP3   OH242813   4.564   5.287   4.251 -0.2864  0.7064 -0.0310
 7133TIP3    H142814   4.484   5.324   4.288 -0.4866  1.9451 -1.6353
 7133TIP3    H242815   4.600   5.233   4.321 -2.2263  0.5738  0.9129
 7134TIP3   OH242816   5.518   4.048  11.991 -0.0136  0.1225  0.2798
 7134TIP3    H142817   5.441   4.000  11.960 -0.4549 -0.1255  1.7602
 7134TIP3    H242818   5.581   4.040  11.919 -1.2075 -0.0361 -0.7581
 7135TIP3   OH242819   2.188   2.289   0.396  0.1247 -0.4281 -0.1555
 7135TIP3    H142820   2.167   2.290   0.302  2.1481 -3.4035 -0.7171
 7135TIP3    H242821   2.133   2.358   0.433 -0.7256  0.8399 -3.5200
 7136TIP3   OH242822   4.076   1.559   3.591  0.1802 -0.5201 -0.8250
 7136TIP3    H142823   4.062   1.627   3.525 -1.6703 -1.3917 -1.3593
 7136TIP3    H242824   4.018   1.582   3.663  0.9610 -0.4959 -0.1979
 7137TIP3   OH242825   6.653   6.613  16.644  0.4537  0.2714  0.2026
 7137TIP3    H142826   6.744   6.612  16.613  0.4621 -1.7358  0.2800
 7137TIP3    H242827   6.617   6.528  16.619 -2.0518  1.8080 -1.6594
 7138TIP3   OH242828   6.127   1.980   1.011  0.3490 -0.2381 -0.3971
 7138TIP3    H142829   6.042   1.992   0.967  0.7044 -1.5988 -1.4806
 7138TIP3    H242830   6.123   1.891   1.046  1.3095 -0.2865 -0.4149
 7139TIP3   OH242831   6.014   2.704   3.493 -0.0733 -0.8303  0.7136
 7139TIP3    H142832   6.082   2.723   3.428 -0.5663  0.5656  0.5916
 7139TIP3    H242833   6.056   2.722   3.577 -1.0257  2.6505  0.5523
 7140TIP3   OH242834   0.246   1.371  15.439  0.5771 -0.1821 -0.5364
 7140TIP3    H142835   0.187   1.305  15.402  0.6515  0.1890 -1.3127
 7140TIP3    H242836   0.291   1.325  15.510  1.6102 -1.3628 -1.9219
 7141TIP3   OH242837   3.040   1.327   1.011 -0.3737  0.0999  0.1952
 7141TIP3    H142838   3.049   1.291   1.099  0.6201 -0.4246 -0.1100
 7141TIP3    H242839   3.013   1.253   0.957  0.5771  0.0455 -0.2245
 7142TIP3   OH242840   2.739   3.857  13.696 -0.5004  0.2996 -0.2993
 7142TIP3    H142841   2.727   3.775  13.647 -0.9485  1.5699 -2.4134
 7142TIP3    H242842   2.765   3.920  13.629 -1.7245  2.2519  1.0240
 7143TIP3   OH242843   6.222   5.491  15.314  0.1880  0.0244  0.1884
 7143TIP3    H142844   6.168   5.413  15.329  0.5690 -0.2666  0.0685
 7143TIP3    H242845   6.267   5.473  15.232 -1.3906  1.3257 -0.9909
 7144TIP3   OH242846   4.836   0.554   5.254 -0.2336  0.1685  0.2574
 7144TIP3    H142847   4.870   0.502   5.327 -0.2467  1.6195  1.3441
 7144TIP3    H242848   4.886   0.636   5.258  0.1031  0.0750 -1.6948
 7145TIP3   OH242849   3.870   1.752  12.901  0.3030  0.6070 -0.3755
 7145TIP3    H142850   3.958   1.782  12.920  0.0746  0.5969  0.6883
 7145TIP3    H242851   3.826   1.829  12.864  0.6171  0.7328 -0.4924
 7146TIP3   OH242852   2.839   3.982   3.825  0.0126 -0.0224 -0.3075
 7146TIP3    H142853   2.843   3.993   3.730 -1.0594 -1.8266 -0.6012
 7146TIP3    H242854   2.917   3.930   3.846  0.1411  0.2002 -0.2386
 7147TIP3   OH242855   1.199   5.203   1.898 -0.1693 -0.0968 -0.2317
 7147TIP3    H142856   1.149   5.121   1.894  0.1022 -0.2149 -1.4384
 7147TIP3    H242857   1.155   5.255   1.964 -0.9083 -0.8524 -0.1213
 7148TIP3   OH242858   2.167   3.186  12.062  0.3575  0.0738  0.4752
 7148TIP3    H142859   2.246   3.224  12.023 -0.4043  1.9599  0.7133
 7148TIP3    H242860   2.168   3.095  12.034  1.1140  0.7837 -1.9483
 7149TIP3   OH242861   2.401   4.945  11.467  0.2879 -0.2072  0.4337
 7149TIP3    H142862   2.469   5.010  11.484 -0.5883  0.7633  0.1943
 7149TIP3    H242863   2.356   4.976  11.389  0.5380 -1.6467 -0.3173
 7150TIP3   OH242864   4.893   6.748  14.486  0.1158 -0.1182  0.5480
 7150TIP3    H142865   4.860   6.823  14.437 -0.0164  0.2202  1.1479
 7150TIP3    H242866   4.840   6.745  14.565 -0.5687 -1.4702  0.0629
 7151TIP3   OH242867   1.591   1.045   3.525  0.6791 -0.1057 -0.2377
 7151TIP3    H142868   1.609   1.017   3.614 -0.8869  1.2889  0.5474
 7151TIP3    H242869   1.642   1.126   3.515  1.4901 -0.6951 -0.8804
 7152TIP3   OH242870   2.286   0.247   2.869  0.3850 -0.3939 -0.1483
 7152TIP3    H142871   2.230   0.170   2.884  1.9769 -1.2140  1.8449
 7152TIP3    H242872   2.239   0.319   2.909 -0.1923 -0.6944 -0.2747
 7153TIP3   OH242873   4.199   6.271   1.732 -0.1312 -0.0150 -0.2382
 7153TIP3    H142874   4.266   6.285   1.799  1.8145 -0.3035 -2.0496
 7153TIP3    H242875   4.214   6.181   1.703  0.3528  0.7401 -2.4202
 7154TIP3   OH242876   2.966   3.781   4.035  0.2078  0.0151  0.1262
 7154TIP3    H142877   3.042   3.741   4.078  0.0831 -0.0597  0.2742
 7154TIP3    H242878   2.910   3.708   4.010 -0.0987  0.1083  0.5471
 7155TIP3   OH242879   3.987   6.711   2.493 -0.1722 -0.2177 -0.1699
 7155TIP3    H142880   3.977   6.618   2.473 -1.4578  0.0576 -0.9172
 7155TIP3    H242881   3.905   6.735   2.538 -0.4345  0.8333 -1.1742
 7156TIP3   OH242882   0.213   0.069   3.113 -0.3331  0.7098  0.5242
 7156TIP3    H142883   0.257   0.037   3.034 -2.2909  1.0353 -0.7304
 7156TIP3    H242884   0.147   0.130   3.080 -2.6791 -0.8366  2.2361
 7157TIP3   OH242885   5.863   5.862  13.093  0.0053 -0.2011  0.0298
 7157TIP3    H142886   5.930   5.858  13.161  0.3115  0.8118 -0.1997
 7157TIP3    H242887   5.828   5.773  13.088  1.1436 -0.6703  0.3349
 7158TIP3   OH242888   6.153   3.027   5.984 -0.6477 -0.4832 -0.0472
 7158TIP3    H142889   6.206   3.056   6.058  0.6911  1.4213 -1.6939
 7158TIP3    H242890   6.189   2.940   5.962  1.3856  0.4750 -0.6822
 7159TIP3   OH242891   2.382   1.183  14.524  0.1633  0.4105  0.2000
 7159TIP3    H142892   2.319   1.112  14.509  0.7406 -0.4197  1.5992
 7159TIP3    H242893   2.420   1.199  14.438 -1.2629  0.2626 -0.4826
 7160TIP3   OH242894   6.499   1.548  13.933  0.4649  0.1907  0.2560
 7160TIP3    H142895   6.553   1.513  13.862  0.7334 -0.8949  0.9816
 7160TIP3    H242896   6.437   1.607  13.890  0.0820 -1.0950 -0.9796
 7161TIP3   OH242897   3.795   6.323  15.958 -0.1371 -0.3772 -0.3450
 7161TIP3    H142898   3.735   6.249  15.954 -0.7497  0.1553 -1.5506
 7161TIP3    H242899   3.867   6.294  16.013 -0.8429 -1.5090 -0.0019
 7162TIP3   OH242900   2.518   6.050  13.699 -0.1636  0.6398  0.2250
 7162TIP3    H142901   2.585   6.043  13.767 -0.0467 -1.5761 -0.0876
 7162TIP3    H242902   2.563   6.029  13.618 -0.3728  3.0011 -0.5286
 7163TIP3   OH242903   5.413   1.063   4.899 -0.5749  0.4198  0.1441
 7163TIP3    H142904   5.437   0.973   4.876 -0.6084  0.6748 -0.9051
 7163TIP3    H242905   5.367   1.096   4.822 -0.6914  1.2907  0.5846
 7164TIP3   OH242906   5.444   5.654   5.684 -0.2441  0.1860 -0.3170
 7164TIP3    H142907   5.466   5.681   5.595 -1.7032  1.1320 -0.4065
 7164TIP3    H242908   5.372   5.712   5.710 -1.1237 -1.3440  0.7589
 7165TIP3   OH242909   5.968   1.448  13.552 -0.6539  0.6747 -0.0045
 7165TIP3    H142910   5.994   1.362  13.520  1.2601  1.5433 -0.8559
 7165TIP3    H242911   5.897   1.476  13.495  0.7633  0.9484 -1.6602
 7166TIP3   OH242912   5.376   6.781   0.695  0.1344 -0.1650 -0.3840
 7166TIP3    H142913   5.465   6.815   0.707 -0.2885  0.3821  1.3444
 7166TIP3    H242914   5.335   6.844   0.635  0.3841  0.5432  0.1829
 7167TIP3   OH242915   1.150   5.753  11.859  0.1544 -0.3026  0.6025
 7167TIP3    H142916   1.178   5.729  11.771 -0.5618  1.0636 -0.0059
 7167TIP3    H242917   1.057   5.773  11.850  0.6747  2.5381  1.1043
 7168TIP3   OH242918   6.774   5.390   5.326 -0.2599  0.1130 -0.1967
 7168TIP3    H142919   6.861   5.376   5.289 -0.0638  0.4126  0.1415
 7168TIP3    H242920   6.750   5.478   5.298 -1.3898 -0.7812 -2.1255
 7169TIP3   OH242921   0.372   6.401   1.270  0.5801 -0.3749  0.0480
 7169TIP3    H142922   0.371   6.491   1.238  3.9372  0.1140  1.1168
 7169TIP3    H242923   0.282   6.371   1.260 -0.2810  2.5797 -1.7531
 7170TIP3   OH242924   3.468   6.077  12.326  0.0935  0.1391  0.0370
 7170TIP3    H142925   3.536   6.141  12.347  0.7806 -0.8364  0.8022
 7170TIP3    H242926   3.448   6.094  12.234  2.5772 -0.6702 -0.6860
 7171TIP3   OH242927   3.476   5.617  12.472 -0.2760  0.1535 -0.1549
 7171TIP3    H142928   3.446   5.568  12.549  0.0522  0.9046  0.4546
 7171TIP3    H242929   3.416   5.692  12.466  1.8847  2.0766  1.5071
 7172TIP3   OH242930   5.127   2.915   1.643 -0.5859  0.2069 -0.6531
 7172TIP3    H142931   5.136   2.835   1.695  0.9557  0.4972 -0.4502
 7172TIP3    H242932   5.165   2.984   1.698 -0.8955  0.8848 -1.2827
 7173TIP3   OH242933   3.608   3.539   3.758  0.0676  0.3057  0.4491
 7173TIP3    H142934   3.641   3.588   3.833  0.0448  0.9136  0.0721
 7173TIP3    H242935   3.542   3.597   3.719  1.2364  0.7068 -0.9919
 7174TIP3   OH242936   5.664   1.280   5.681 -0.1385  0.3150 -0.9179
 7174TIP3    H142937   5.636   1.350   5.622 -0.1529 -0.3231 -1.6786
 7174TIP3    H242938   5.594   1.215   5.675 -1.4439  1.3708  1.8004
 7175TIP3   OH242939   4.438   2.615   0.623 -0.4422  0.2158 -0.3520
 7175TIP3    H142940   4.479   2.698   0.597 -0.0350 -0.1413 -0.8660
 7175TIP3    H242941   4.353   2.615   0.579 -1.1814  1.1588  1.0707
 7176TIP3   OH242942   2.688   1.644   6.587 -0.4657  0.3905  0.3623
 7176TIP3    H142943   2.688   1.726   6.537 -3.4263  0.4694  0.3678
 7176TIP3    H242944   2.677   1.671   6.678 -0.1515  0.0327  0.5084
 7177TIP3   OH242945   1.588   2.335   0.028 -0.3137 -0.6921 -1.1241
 7177TIP3    H142946   1.639   2.374   0.099 -0.7442 -1.4688 -0.3798
 7177TIP3    H242947   1.646   2.339  -0.048  1.2166 -2.3551 -0.0881
 7178TIP3   OH242948   1.223   6.526   1.968 -0.0226  0.3232 -0.4089
 7178TIP3    H142949   1.232   6.433   1.944  0.2057  0.0509  0.7169
 7178TIP3    H242950   1.212   6.525   2.063  1.5238  1.5403 -0.1993
 7179TIP3   OH242951   3.113   4.376  13.313  0.3855 -0.3763 -0.0929
 7179TIP3    H142952   3.037   4.395  13.258  1.0482 -0.4732 -1.0460
 7179TIP3    H242953   3.089   4.295  13.358 -0.5155  0.1739  0.4392
 7180TIP3   OH242954   4.972   3.350  15.721  0.7419  0.1047 -0.0755
 7180TIP3    H142955   4.890   3.399  15.732  1.6190  1.1896  1.9546
 7180TIP3    H242956   4.973   3.325  15.629 -1.6946  0.3891 -0.2144
 7181TIP3   OH242957   2.157   2.529  11.971  0.3851 -0.3854  1.0984
 7181TIP3    H142958   2.073   2.487  11.950  1.1868 -1.3401 -0.2410
 7181TIP3    H242959   2.155   2.611  11.921  0.8799 -1.1096 -0.1220
 7182TIP3   OH242960   6.293   6.070  15.217 -0.3615 -0.5757 -0.7466
 7182TIP3    H142961   6.384   6.040  15.208 -0.0674 -0.8662  2.4586
 7182TIP3    H242962   6.302   6.159  15.252 -1.3034 -0.5532 -0.5647
 7183TIP3   OH242963   3.038   2.776   5.760  0.4018 -0.2573 -0.1605
 7183TIP3    H142964   3.009   2.720   5.687  0.6619  0.5832 -0.9250
 7183TIP3    H242965   3.093   2.842   5.718  1.1993 -0.2334  0.9214
 7184TIP3   OH242966   5.086   4.822  12.759  0.5366  0.0457 -0.0329
 7184TIP3    H142967   4.996   4.827  12.791  0.1554 -0.8447 -0.9357
 7184TIP3    H242968   5.137   4.795  12.835 -0.0693 -0.0873  0.3280
 7185TIP3   OH242969   5.905   1.469   2.279  0.0185  0.3979 -0.0691
 7185TIP3    H142970   5.908   1.442   2.187 -1.2765 -1.0046  0.2698
 7185TIP3    H242971   5.993   1.452   2.312  0.2848  0.2120 -0.8530
 7186TIP3   OH242972   5.834   4.620   4.494  0.4083  0.3202  0.2071
 7186TIP3    H142973   5.869   4.708   4.477 -0.0269  0.4901  0.1928
 7186TIP3    H242974   5.740   4.633   4.505  0.0040 -0.4638 -2.1438
 7187TIP3   OH242975   4.024   4.059   1.923  0.1471 -0.5759  0.4058
 7187TIP3    H142976   3.988   4.097   2.004  0.6246  1.2482 -0.2299
 7187TIP3    H242977   3.976   4.102   1.853  0.5926 -1.2655 -0.3317
 7188TIP3   OH242978   6.759   5.074   2.468  0.0715  0.8092  0.1085
 7188TIP3    H142979   6.791   5.093   2.379  0.7910 -0.2698  0.1355
 7188TIP3    H242980   6.677   5.028   2.454  1.3327 -1.4379 -0.0431
 7189TIP3   OH242981   0.154   4.568   4.177 -0.1224  0.0376 -0.1099
 7189TIP3    H142982   0.242   4.570   4.139 -0.4000  0.2113 -0.7425
 7189TIP3    H242983   0.169   4.577   4.271  0.4167  2.1203 -0.3756
 7190TIP3   OH242984   5.366   0.067  14.926 -0.2084 -0.4220  0.0741
 7190TIP3    H142985   5.376  -0.016  14.878  1.1252 -1.2295  1.6922
 7190TIP3    H242986   5.307   0.046  14.998 -0.1194  0.1284  0.3080
 7191TIP3   OH242987   1.159   5.705   2.765  0.1742 -0.1840 -0.2304
 7191TIP3    H142988   1.152   5.610   2.754  1.7640 -0.6218  2.1689
 7191TIP3    H242989   1.218   5.733   2.694  2.3901 -1.4883  1.0326
 7192TIP3   OH242990   6.351   2.285  14.934 -0.6180  0.0052  0.0147
 7192TIP3    H142991   6.310   2.361  14.892 -0.9826 -1.6490 -2.7902
 7192TIP3    H242992   6.444   2.294  14.914 -0.6644 -0.2769 -0.3410
 7193TIP3   OH242993   3.801   1.936   5.047  0.0497 -0.3518 -0.3398
 7193TIP3    H142994   3.885   1.905   5.014  1.5694  0.4700  2.5528
 7193TIP3    H242995   3.801   1.911   5.140 -2.3406  0.8176  0.0169
 7194TIP3   OH242996   3.508   2.732   5.880  0.6480  0.2724 -0.1590
 7194TIP3    H142997   3.445   2.751   5.950  0.0456  2.5507 -1.2688
 7194TIP3    H242998   3.594   2.749   5.919  0.5899 -2.3106  1.1967
 7195TIP3   OH242999   3.341   5.387   3.174  0.1022 -0.7142  0.0659
 7195TIP3    H143000   3.397   5.329   3.123  0.9524 -0.1572  0.3404
 7195TIP3    H243001   3.359   5.364   3.265 -0.3964 -0.7875  0.1467
 7196TIP3   OH243002   3.350   3.838   1.118 -0.0863 -0.2135 -0.5688
 7196TIP3    H143003   3.289   3.769   1.089  1.4772 -1.6277 -0.5302
 7196TIP3    H243004   3.429   3.791   1.142  1.0548  1.6369 -0.6728
 7197TIP3   OH243005   3.045   1.800  11.761 -0.4828  0.1747 -0.3603
 7197TIP3    H143006   3.053   1.895  11.758  2.0354 -0.0262 -0.5266
 7197TIP3    H243007   2.966   1.781  11.711 -1.5174  2.2276  0.4361
 7198TIP3   OH243008   6.728   5.631  14.631 -0.1961 -0.3559 -0.0652
 7198TIP3    H143009   6.715   5.708  14.576 -0.7772 -1.5574 -1.6127
 7198TIP3    H243010   6.819   5.606  14.617  0.2190  0.4768  1.0271
 7199TIP3   OH243011   1.545   3.146   4.301 -0.4647 -0.5913  0.2869
 7199TIP3    H143012   1.543   3.230   4.348  0.2391  0.0131 -0.7468
 7199TIP3    H243013   1.636   3.136   4.274 -0.5472 -1.6874  0.3856
 7200TIP3   OH243014   0.007   2.748  12.926  0.7608 -0.1431 -0.0644
 7200TIP3    H143015   0.048   2.662  12.936  1.7478  0.0838 -1.9843
 7200TIP3    H243016  -0.075   2.730  12.881  0.4695 -0.1903  0.4804
 7201TIP3   OH243017   6.578   3.407   3.486  0.0832 -0.0607 -0.0453
 7201TIP3    H143018   6.487   3.403   3.457  0.7713 -1.7003 -2.1260
 7201TIP3    H243019   6.581   3.481   3.547 -2.9229 -0.8484  1.1406
 7202TIP3   OH243020   0.673   2.823  12.048 -0.0834  0.0187  0.4609
 7202TIP3    H143021   0.607   2.861  12.105 -0.9860  0.8718 -1.1106
 7202TIP3    H243022   0.738   2.786  12.107 -0.5639  1.6340  2.0354
 7203TIP3   OH243023   5.909   5.324   6.686  0.6628 -0.0432 -0.1568
 7203TIP3    H143024   5.961   5.271   6.625 -0.0857  1.2620 -1.9814
 7203TIP3    H243025   5.974   5.361   6.745  1.3782 -1.5716  0.0536
 7204TIP3   OH243026   5.677   5.968   0.298 -0.4038 -0.2768  0.0798
 7204TIP3    H143027   5.649   6.054   0.329  0.2130 -0.6990  1.9031
 7204TIP3    H243028   5.757   5.984   0.249 -1.7051  0.4777 -1.8580
 7205TIP3   OH243029   2.565   0.780   5.949  0.0418  0.2116  0.1232
 7205TIP3    H143030   2.482   0.804   5.990 -0.8671 -0.9620 -1.0087
 7205TIP3    H243031   2.591   0.699   5.994  0.5195  0.5114  0.3922
 7206TIP3   OH243032   1.783   3.166  14.930 -0.6139 -0.8712 -0.3560
 7206TIP3    H143033   1.736   3.221  14.868 -2.3775 -0.7341  1.0581
 7206TIP3    H243034   1.849   3.223  14.969 -0.9188 -0.3827 -0.5603
 7207TIP3   OH243035   2.668   2.834  16.862  0.5192  0.3500  0.1172
 7207TIP3    H143036   2.600   2.829  16.928  3.0924 -0.8553  2.7692
 7207TIP3    H243037   2.646   2.766  16.798 -1.6336  1.1012  0.0363
 7208TIP3   OH243038   4.004   0.638  12.406 -0.4157  0.1203  0.0366
 7208TIP3    H143039   3.938   0.570  12.393  1.4142 -1.8045  0.5282
 7208TIP3    H243040   3.954   0.717  12.428 -2.5957 -0.9509 -0.9967
 7209TIP3   OH243041   6.599   0.120   4.101  0.0825 -0.0415  0.3445
 7209TIP3    H143042   6.518   0.069   4.106 -0.4772  0.7472 -0.4937
 7209TIP3    H243043   6.569   0.212   4.104  0.9137  0.2539 -0.4172
 7210TIP3   OH243044   6.773   3.068  11.048 -0.6228  0.4441  0.8016
 7210TIP3    H143045   6.749   3.135  10.983  0.1172  0.5511  0.6394
 7210TIP3    H243046   6.690   3.044  11.088 -1.3942 -1.0383 -1.5525
 7211TIP3   OH243047   2.474   4.886  12.766 -0.0853 -0.0160 -0.2462
 7211TIP3    H143048   2.518   4.902  12.682 -0.2669 -0.3448 -0.4035
 7211TIP3    H243049   2.544   4.895  12.831  0.1245 -0.0889 -0.4593
 7212TIP3   OH243050   3.474   2.492  13.168 -0.2116  0.0013 -0.0108
 7212TIP3    H143051   3.518   2.519  13.249 -1.0292 -1.0842  0.8196
 7212TIP3    H243052   3.518   2.540  13.099  2.5350 -1.3261  0.7518
 7213TIP3   OH243053   2.120   1.623   4.262  0.1449  0.6567  0.1074
 7213TIP3    H143054   2.041   1.653   4.308 -0.2672  1.9517 -1.4066
 7213TIP3    H243055   2.089   1.551   4.207 -0.2678  1.9854 -1.4412
 7214TIP3   OH243056   3.017   2.381  13.346  0.6400 -0.5194 -0.3188
 7214TIP3    H143057   2.999   2.291  13.374 -0.4002 -0.2928 -0.2335
 7214TIP3    H243058   3.104   2.377  13.308  0.3911 -1.6769 -0.8036
 7215TIP3   OH243059   2.078   0.727  11.906  0.0867  0.1935  0.0998
 7215TIP3    H143060   2.133   0.719  11.984  0.1901 -1.7993 -0.1516
 7215TIP3    H243061   1.989   0.739  11.940  0.4439  1.7316  0.5094
 7216TIP3   OH243062   3.251   3.218  10.754  0.1927  0.0047  1.0288
 7216TIP3    H143063   3.247   3.160  10.677  1.5715 -1.0495  1.7414
 7216TIP3    H243064   3.166   3.263  10.753 -0.6837 -1.5876  0.1214
 7217TIP3   OH243065   1.278   6.522   0.208 -0.1164 -0.6511 -0.0548
 7217TIP3    H143066   1.254   6.577   0.282 -1.3730 -1.0683 -0.1409
 7217TIP3    H243067   1.373   6.512   0.215  0.3396  2.4966 -0.7162
 7218TIP3   OH243068   1.794   6.597   5.138 -0.0010 -0.0113  0.1307
 7218TIP3    H143069   1.852   6.557   5.203  0.8013  2.1251  0.7603
 7218TIP3    H243070   1.853   6.626   5.069 -0.7129 -0.9672 -0.8990
 7219TIP3   OH243071   1.857   2.691  14.926  0.6305 -0.5330  0.0680
 7219TIP3    H143072   1.812   2.744  14.859  0.6612 -1.3302 -0.5965
 7219TIP3    H243073   1.932   2.654  14.880 -0.4566 -2.7049 -0.0116
 7220TIP3   OH243074   3.749   2.602  14.637  0.0107  0.2170  0.2071
 7220TIP3    H143075   3.815   2.586  14.571  0.8534  2.5580  0.4378
 7220TIP3    H243076   3.680   2.538  14.619  0.5265  0.3848 -2.4951
 7221TIP3   OH243077   6.346   6.225   4.388  0.0731  0.2394 -0.4168
 7221TIP3    H143078   6.330   6.319   4.375  1.4437  0.6910  1.0035
 7221TIP3    H243079   6.322   6.209   4.480  3.1792 -0.0025  0.4399
 7222TIP3   OH243080   3.212   6.166   4.592 -0.1051  0.5292 -0.5368
 7222TIP3    H143081   3.206   6.198   4.501  3.1331  1.6709 -0.4226
 7222TIP3    H243082   3.268   6.231   4.636  1.4036 -1.9525  1.3375
 7223TIP3   OH243083   3.192   3.087   2.347 -0.2462 -0.3346 -0.6681
 7223TIP3    H143084   3.114   3.142   2.337 -0.5481  0.1361  3.3703
 7223TIP3    H243085   3.163   3.013   2.400  1.0426 -2.5467 -2.9574
 7224TIP3   OH243086   1.481   4.266   3.617  0.2818 -0.2620  0.2811
 7224TIP3    H143087   1.453   4.183   3.656  1.8059 -0.4527  1.0208
 7224TIP3    H243088   1.483   4.328   3.690  1.1755 -0.1125  0.1437
 7225TIP3   OH243089   0.964   5.631  15.337  0.5296  0.1767 -0.1779
 7225TIP3    H143090   1.014   5.589  15.407 -1.7442  0.2622  1.5446
 7225TIP3    H243091   0.878   5.589  15.339 -0.2468  1.6139 -1.5460
 7226TIP3   OH243092   6.404   3.289   1.891  0.1594  0.0717  0.2375
 7226TIP3    H143093   6.484   3.320   1.933  0.1566  1.6408 -0.8573
 7226TIP3    H243094   6.368   3.367   1.847 -0.6288 -1.1671 -1.3857
 7227TIP3   OH243095   3.575   0.481  16.013  0.3167  0.6590  0.3031
 7227TIP3    H143096   3.629   0.493  16.091  0.3033  0.8946  0.2778
 7227TIP3    H243097   3.499   0.538  16.027 -0.1676 -0.0487  0.5587
 7228TIP3   OH243098   0.855   5.041   4.111 -0.2883 -0.4943  0.6892
 7228TIP3    H143099   0.879   4.990   4.034 -1.7812 -0.9386  0.5009
 7228TIP3    H243100   0.827   5.125   4.076 -0.2101 -0.4163  0.8125
 7229TIP3   OH243101   1.343   2.384  10.616 -0.1338  0.2384 -0.0845
 7229TIP3    H143102   1.283   2.441  10.664 -0.4162 -0.4984  0.4432
 7229TIP3    H243103   1.316   2.295  10.640  1.4020 -0.0951  0.4396
 7230TIP3   OH243104   0.284   6.576  12.351  0.1125 -0.0803  0.2192
 7230TIP3    H143105   0.299   6.504  12.412 -0.2541 -0.5518 -0.2464
 7230TIP3    H243106   0.332   6.551  12.272 -2.5883 -1.3063 -1.0582
 7231TIP3   OH243107   2.854   4.170   2.807  0.0117 -0.1995  0.0116
 7231TIP3    H143108   2.762   4.169   2.833  0.1994  0.8706  0.7615
 7231TIP3    H243109   2.903   4.165   2.889  0.6224 -0.6745 -0.3750
 7232TIP3   OH243110   1.002   6.699  12.332 -0.2270  0.5980  0.0971
 7232TIP3    H143111   1.063   6.690  12.259  1.1099  1.5680  1.0533
 7232TIP3    H243112   1.042   6.767  12.387 -0.7019 -0.7907  2.2175
 7233TIP3   OH243113   4.839   5.771  12.865 -0.4847  0.5205 -0.4086
 7233TIP3    H143114   4.800   5.761  12.952 -2.0294  0.4336 -1.0977
 7233TIP3    H243115   4.844   5.681  12.831  1.7001  0.3606  0.2425
 7234TIP3   OH243116   5.603   6.408   5.232 -0.4057  0.0960  0.3145
 7234TIP3    H143117   5.648   6.489   5.210 -0.5572  0.3123  0.8005
 7234TIP3    H243118   5.653   6.372   5.306  0.6934 -1.1299 -0.9953
 7235TIP3   OH243119   3.937   6.441  11.413 -0.6164 -0.2071  0.7037
 7235TIP3    H143120   3.886   6.360  11.420  2.5271 -2.2900  0.4636
 7235TIP3    H243121   4.019   6.414  11.372  0.7070  3.0528  1.0749
 7236TIP3   OH243122   0.775   5.751  13.507 -0.5573  0.5379 -0.6149
 7236TIP3    H143123   0.809   5.781  13.422  0.1646  0.0378 -0.5048
 7236TIP3    H243124   0.717   5.821  13.535 -1.3915  0.3820 -1.8769
 7237TIP3   OH243125   1.613   2.038  16.842 -0.4037  0.2341 -0.3768
 7237TIP3    H143126   1.675   2.032  16.769  0.8828  0.0394  0.7185
 7237TIP3    H243127   1.664   2.012  16.918 -1.5598  1.0867  0.6950
 7238TIP3   OH243128   5.742   4.529  14.064 -0.6152 -0.0847  0.3661
 7238TIP3    H143129   5.695   4.579  14.131  0.0371 -0.3753  1.0537
 7238TIP3    H243130   5.689   4.451  14.050 -2.0742  1.1696 -1.3185
 7239TIP3   OH243131   4.391   1.754   2.063  0.1080 -0.1421 -0.0866
 7239TIP3    H143132   4.349   1.831   2.103  1.6446  0.2865  0.7297
 7239TIP3    H243133   4.318   1.694   2.047 -1.0354  1.2279 -0.1631
 7240TIP3   OH243134   6.688   4.797   3.147 -0.6367 -0.4847 -0.1015
 7240TIP3    H143135   6.649   4.883   3.132  0.5747 -0.0433 -0.7696
 7240TIP3    H243136   6.642   4.740   3.085 -2.2694 -0.5667  1.1743
 7241TIP3   OH243137   6.135   1.356   5.686 -0.1432  0.0116  0.2732
 7241TIP3    H143138   6.076   1.344   5.760 -1.5641  3.0732 -0.2821
 7241TIP3    H243139   6.223   1.350   5.723 -0.8224 -0.4776  1.8217
 7242TIP3   OH243140   3.567   6.726   2.616  0.4006  0.5951  0.2345
 7242TIP3    H143141   3.587   6.791   2.549  0.1108 -0.4683 -0.9089
 7242TIP3    H243142   3.631   6.656   2.600 -0.5778 -0.2900  0.1812
 7243TIP3   OH243143   4.282   0.926   2.265 -0.3636  0.3367  0.0364
 7243TIP3    H143144   4.288   1.013   2.226 -1.4340  1.2153  1.7436
 7243TIP3    H243145   4.243   0.872   2.197  2.1928  0.6814 -1.7821
 7244TIP3   OH243146   6.184   6.245   0.264 -0.1312 -0.2105  0.5408
 7244TIP3    H143147   6.129   6.262   0.341  0.3224  0.3428  0.7543
 7244TIP3    H243148   6.262   6.299   0.279 -0.5016  0.7221 -0.8209
 7245TIP3   OH243149   5.685   5.615   5.819  0.0268 -0.2557  0.0807
 7245TIP3    H143150   5.604   5.627   5.769  0.9953  3.9220 -0.6396
 7245TIP3    H243151   5.658   5.625   5.911 -0.6834 -1.5107  0.0191
 7246TIP3   OH243152   3.030   1.811   5.875 -0.1191 -0.0290 -0.4881
 7246TIP3    H143153   2.981   1.730   5.861  0.3760 -0.4433  0.1233
 7246TIP3    H243154   3.022   1.859   5.793 -1.8444  0.0686 -0.2728
 7247TIP3   OH243155   3.575   6.097  11.062 -0.0341 -0.7424 -0.3695
 7247TIP3    H143156   3.536   6.183  11.049  0.7726 -0.3373 -0.0802
 7247TIP3    H243157   3.605   6.071  10.975 -0.9730 -1.0744 -0.6047
 7248TIP3   OH243158   6.401   5.119   5.790 -0.2847 -0.3525  0.3567
 7248TIP3    H143159   6.362   5.168   5.717 -0.5016  0.8680  1.2717
 7248TIP3    H243160   6.492   5.105   5.764 -0.7520 -1.2538 -0.8147
 7249TIP3   OH243161   2.673   4.826  14.613 -0.3596 -0.6923  0.0328
 7249TIP3    H143162   2.702   4.917  14.612 -1.3628 -0.3619  0.2091
 7249TIP3    H243163   2.711   4.787  14.534 -1.9418  0.5374 -1.3622
 7250TIP3   OH243164   5.214   4.342   0.235 -0.1368 -0.2780 -0.0828
 7250TIP3    H143165   5.269   4.419   0.247  2.1868 -1.7359 -0.8788
 7250TIP3    H243166   5.245   4.280   0.301 -2.7689 -0.1440  1.3206
 7251TIP3   OH243167   2.860   6.326  15.239  0.1465  0.2071  0.2753
 7251TIP3    H143168   2.817   6.299  15.320  0.6018 -1.0083  0.1202
 7251TIP3    H243169   2.816   6.276  15.170  1.3544 -0.5563  0.0447
 7252TIP3   OH243170   3.372   3.363   2.777 -0.8389 -0.2250  0.3415
 7252TIP3    H143171   3.341   3.282   2.738 -1.5081  0.0757  0.2462
 7252TIP3    H243172   3.342   3.432   2.717 -0.9063  0.1513  0.8036
 7253TIP3   OH243173   2.480   2.040  15.081 -0.4466  0.0299  0.0228
 7253TIP3    H143174   2.421   2.017  15.008 -1.6726 -1.0927  1.3225
 7253TIP3    H243175   2.567   2.041  15.042 -1.2417  1.0100 -1.8007
 7254TIP3   OH243176   3.421   5.619  17.185  0.1046  0.1321 -0.2426
 7254TIP3    H143177   3.449   5.709  17.201 -1.3860  0.7316 -0.8462
 7254TIP3    H243178   3.501   5.572  17.165  1.0292  1.0886  1.1275
 7255TIP3   OH243179   0.732   3.439   1.858 -0.4689  0.2418 -0.0355
 7255TIP3    H143180   0.671   3.509   1.884 -0.3985 -0.1591  1.2663
 7255TIP3    H243181   0.732   3.442   1.762 -1.4996  1.1415 -0.0284
 7256TIP3   OH243182   2.228   0.364  17.139 -0.1432  0.6961  0.6353
 7256TIP3    H143183   2.199   0.277  17.111 -2.0140  1.0792  1.2880
 7256TIP3    H243184   2.279   0.397  17.065  0.9091 -1.0968  0.5343
 7257TIP3   OH243185   2.873   0.069  16.963 -0.5254  0.0490 -0.2386
 7257TIP3    H143186   2.854   0.127  17.037 -1.6340  0.9135 -1.1771
 7257TIP3    H243187   2.877  -0.019  17.001 -2.0016  0.3788  0.6891
 7258TIP3   OH243188   1.695   3.765  13.640  0.0281  0.1341 -0.2499
 7258TIP3    H143189   1.690   3.726  13.728 -0.7139  1.0006  0.0903
 7258TIP3    H243190   1.742   3.699  13.588  1.3531  0.0307  1.0293
 7259TIP3   OH243191   0.921   6.159  14.224 -0.3265  0.0990  0.0250
 7259TIP3    H143192   0.897   6.150  14.316 -0.4663 -1.2703 -0.1427
 7259TIP3    H243193   1.014   6.135  14.221 -0.5904 -0.8810 -0.3568
 7260TIP3   OH243194   6.676   5.204   1.157  0.2339  0.3946  0.0637
 7260TIP3    H143195   6.646   5.113   1.160 -2.0765  1.0603 -1.2170
 7260TIP3    H243196   6.689   5.222   1.063  1.2106  1.2163  0.3484
 7261TIP3   OH243197   0.714   2.574  11.475  0.1175  0.5947 -0.5991
 7261TIP3    H143198   0.641   2.634  11.460  0.6303  1.3330 -0.1723
 7261TIP3    H243199   0.792   2.628  11.463  0.6193  1.4317  5.2340
 7262TIP3   OH243200   4.625   0.100   3.752  0.4926 -0.7659  0.1626
 7262TIP3    H143201   4.560   0.121   3.685  2.0473 -0.8132 -1.3892
 7262TIP3    H243202   4.584   0.127   3.834 -1.7247 -1.3725 -0.7180
 7263TIP3   OH243203   2.555   1.554  15.151 -1.0299 -0.1276  0.5327
 7263TIP3    H143204   2.469   1.583  15.181 -2.0493 -2.7827  0.3054
 7263TIP3    H243205   2.549   1.458  15.150  1.6336 -0.3182 -0.3432
 7264TIP3   OH243206   4.004   2.917   5.673  0.1651  0.1665  0.2015
 7264TIP3    H143207   3.987   3.010   5.657  1.1908  0.4370  0.6590
 7264TIP3    H243208   4.088   2.900   5.632 -0.4352 -0.7812 -0.6533
 7265TIP3   OH243209   0.863   5.830  12.451 -0.7398 -0.4109  0.7221
 7265TIP3    H143210   0.827   5.861  12.368  0.3716  1.0972  0.7773
 7265TIP3    H243211   0.787   5.826  12.510 -1.1461  0.8845  0.3093
 7266TIP3   OH243212   4.848   1.438  14.674  0.4500 -0.7998 -0.0847
 7266TIP3    H143213   4.884   1.518  14.635 -0.4508 -1.2755 -1.9770
 7266TIP3    H243214   4.906   1.369  14.644 -0.9437 -1.3274 -1.6228
 7267TIP3   OH243215   2.013   3.716  11.204 -0.7403 -0.5942  0.4288
 7267TIP3    H143216   1.932   3.766  11.194  0.8735  1.6111 -2.1473
 7267TIP3    H243217   2.064   3.767  11.268 -0.5309 -0.8581  0.4702
 7268TIP3   OH243218   2.321   3.799   1.306 -0.1072  0.7650  0.5761
 7268TIP3    H143219   2.317   3.865   1.237 -1.2815 -0.0596 -0.1598
 7268TIP3    H243220   2.363   3.844   1.380 -0.3031  2.1353 -0.1342
 7269TIP3   OH243221   1.186   6.238   5.534 -0.6565  0.2909  0.4968
 7269TIP3    H143222   1.185   6.315   5.478 -1.0767  0.6989  1.0589
 7269TIP3    H243223   1.114   6.184   5.502 -0.9831  0.5868  0.7284
 7270TIP3   OH243224   1.728   4.899   3.451  0.3710 -0.0469 -0.0540
 7270TIP3    H143225   1.644   4.900   3.496  0.1723  1.8499 -0.3969
 7270TIP3    H243226   1.707   4.885   3.359  0.3795  0.7383 -0.1852
 7271TIP3   OH243227   3.216   0.173   0.084 -0.5434  0.0732 -0.1170
 7271TIP3    H143228   3.193   0.104   0.022  0.7673 -1.7747  1.4061
 7271TIP3    H243229   3.139   0.182   0.140 -0.2161 -1.1586  0.5521
 7272TIP3   OH243230   0.276   5.198   3.073  0.0406 -1.0713 -0.0543
 7272TIP3    H143231   0.241   5.112   3.093  1.2885 -1.4179  0.6546
 7272TIP3    H243232   0.366   5.196   3.105  0.6679 -0.1391 -1.7180
 7273TIP3   OH243233   0.042   5.089   4.780  0.6570 -0.0986 -0.1423
 7273TIP3    H143234  -0.022   5.073   4.850 -1.3798 -1.4809 -2.2344
 7273TIP3    H243235   0.029   5.182   4.757 -1.6761 -0.7055 -1.4995
 7274TIP3   OH243236   3.989   5.223  17.168  0.2206  0.5233 -0.2446
 7274TIP3    H143237   4.010   5.277  17.244  0.8404  0.5512 -0.4339
 7274TIP3    H243238   4.005   5.279  17.093  2.9385 -0.5388 -0.5459
 7275TIP3   OH243239   4.389   6.716   3.433 -0.0569 -0.1082 -0.2007
 7275TIP3    H143240   4.440   6.778   3.485 -0.1614 -0.9460  0.9275
 7275TIP3    H243241   4.454   6.651   3.403 -0.2105 -0.3332 -0.0444
 7276TIP3   OH243242   1.347   2.280  16.557  0.3643  0.1660  0.1478
 7276TIP3    H143243   1.326   2.295  16.649  0.2735  0.8797  0.0163
 7276TIP3    H243244   1.415   2.345  16.537 -0.6812  1.0277 -0.6901
 7277TIP3   OH243245   2.027   1.012   3.964  0.5050 -0.5333 -0.4278
 7277TIP3    H143246   1.998   1.079   3.902 -0.8994 -0.5236  0.1979
 7277TIP3    H243247   1.959   1.012   4.032  1.6745 -0.9978  0.7587
 7278TIP3   OH243248   3.900   0.863  16.672  0.3744 -0.2022  0.2957
 7278TIP3    H143249   3.887   0.943  16.621 -1.7714 -0.3146  0.6285
 7278TIP3    H243250   3.991   0.868  16.702  0.5952  1.5539 -0.6267
 7279TIP3   OH243251   5.100   3.105   2.510  0.2750  0.6457 -0.1309
 7279TIP3    H143252   5.091   3.036   2.445  0.5449 -0.0665  0.5870
 7279TIP3    H243253   5.060   3.069   2.590 -0.1881  1.5680  0.0615
 7280TIP3   OH243254   5.885   4.775   5.426  0.0294  0.2353 -0.2207
 7280TIP3    H143255   5.939   4.737   5.357  0.3970  0.7446 -0.2138
 7280TIP3    H243256   5.806   4.721   5.426  0.8161 -0.9372  0.2325
 7281TIP3   OH243257   3.059   0.645   1.603  0.7996 -0.3549 -0.0405
 7281TIP3    H143258   2.995   0.698   1.557  0.1188 -1.8826 -0.8946
 7281TIP3    H243259   3.070   0.688   1.688 -2.1033 -0.6455  0.5050
 7282TIP3   OH243260   6.047   0.634  16.116  0.4151  0.3035  0.3093
 7282TIP3    H143261   5.955   0.659  16.103  0.9833  1.6925 -1.2072
 7282TIP3    H243262   6.043   0.560  16.178 -1.8577 -0.9602 -1.2585
 7283TIP3   OH243263   0.330   1.080  10.954 -0.4988  0.0456  0.0445
 7283TIP3    H143264   0.245   1.037  10.941 -0.6176  0.9098 -2.1301
 7283TIP3    H243265   0.376   1.069  10.871  1.8563 -1.0650  1.4228
 7284TIP3   OH243266   0.785   5.464  12.604  0.2578 -0.5961 -0.4331
 7284TIP3    H143267   0.870   5.502  12.626  0.4756 -2.2169  1.7350
 7284TIP3    H243268   0.806   5.378  12.568 -0.4347 -0.7731 -0.4121
 7285TIP3   OH243269   6.188   5.159   0.718  0.4442  0.0575 -0.3974
 7285TIP3    H143270   6.238   5.104   0.657  0.5914 -0.0124 -0.2146
 7285TIP3    H243271   6.097   5.150   0.690  0.5115  0.0230 -0.6053
 7286TIP3   OH243272   0.570   4.646  15.335 -0.1429 -0.8771 -0.1688
 7286TIP3    H143273   0.493   4.678  15.382 -1.2592 -4.8384  0.9351
 7286TIP3    H243274   0.536   4.574  15.281  2.2785 -0.6961 -1.9786
 7287TIP3   OH243275   6.765   3.147   1.611  0.4862 -0.4480 -0.0624
 7287TIP3    H143276   6.857   3.148   1.586  0.9641 -0.2405  1.6100
 7287TIP3    H243277   6.764   3.103   1.696 -0.6582  1.6445  1.0293
 7288TIP3   OH243278   1.442   0.542   5.425  0.3836  0.4247 -0.4720
 7288TIP3    H143279   1.522   0.500   5.455 -0.2059 -2.9018 -3.2059
 7288TIP3    H243280   1.472   0.620   5.378  1.9734 -0.4679 -0.9685
 7289TIP3   OH243281   0.922   3.434   0.823  0.1426  0.2142 -0.0627
 7289TIP3    H143282   0.855   3.365   0.831 -1.3670  1.9328  3.1558
 7289TIP3    H243283   1.002   3.393   0.857 -0.4673 -0.3466  0.7420
 7290TIP3   OH243284   4.450   0.291   2.702  0.0850  0.1078 -0.1898
 7290TIP3    H143285   4.365   0.267   2.665 -0.1945  0.8895 -0.0594
 7290TIP3    H243286   4.489   0.348   2.637 -0.9021  2.4463  1.2075
 7291TIP3   OH243287   6.183   0.963   4.301 -0.3616 -0.3922  0.0439
 7291TIP3    H143288   6.174   0.922   4.215  1.1919 -0.6418 -0.0194
 7291TIP3    H243289   6.278   0.970   4.314 -0.5801  1.5643  0.8164
 7292TIP3   OH243290   6.443   3.005   6.397  0.0675  0.0152  0.2785
 7292TIP3    H143291   6.441   2.914   6.425 -0.2148 -0.3116 -0.7492
 7292TIP3    H243292   6.502   3.048   6.458  1.6962 -1.2467 -0.3513
 7293TIP3   OH243293   6.052   1.347  11.118 -0.5967  0.1036 -0.1652
 7293TIP3    H143294   5.979   1.288  11.103 -0.2880  0.1726 -2.0130
 7293TIP3    H243295   6.110   1.334  11.043  0.4493  1.2966  0.4133
 7294TIP3   OH243296   4.497   6.359   3.952 -0.4929  0.7705 -0.0143
 7294TIP3    H143297   4.544   6.281   3.924  0.3121  0.8698  1.0273
 7294TIP3    H243298   4.562   6.429   3.950 -1.2428  1.4624 -1.0802
 7295TIP3   OH243299   5.417   4.137  11.356 -0.1696 -0.0730 -0.2933
 7295TIP3    H143300   5.354   4.132  11.284 -1.1253 -2.7112  0.6837
 7295TIP3    H243301   5.497   4.099  11.319  0.0292  0.6803 -0.6531
 7296TIP3   OH243302   6.723   4.331   3.908 -0.3851 -0.1905  0.5671
 7296TIP3    H143303   6.643   4.370   3.873 -0.3817 -1.3280 -0.7307
 7296TIP3    H243304   6.694   4.278   3.982 -0.8544 -0.7090  0.0164
 7297TIP3   OH243305   2.692   0.114  14.268  0.4450 -0.3713 -0.0565
 7297TIP3    H143306   2.601   0.129  14.293  0.1952  0.2322 -1.2569
 7297TIP3    H243307   2.721   0.199  14.233  1.2124 -0.7815 -0.4277
 7298TIP3   OH243308   0.371   0.819   5.374  0.0298  0.0931 -0.2603
 7298TIP3    H143309   0.278   0.831   5.393  0.1090  1.3821 -0.6270
 7298TIP3    H243310   0.388   0.877   5.300  0.6569 -1.7429 -1.5824
 7299TIP3   OH243311   2.101   1.907   5.556 -0.1727 -0.5410 -0.1299
 7299TIP3    H143312   2.023   1.941   5.600  0.1435 -0.8723  0.7049
 7299TIP3    H243313   2.073   1.822   5.520 -0.8280  0.3724 -1.8033
 7300TIP3   OH243314   6.758   0.778  12.904 -0.2055 -0.0057  0.7345
 7300TIP3    H143315   6.809   0.859  12.905  0.3265 -0.3140 -0.2619
 7300TIP3    H243316   6.824   0.708  12.907 -0.6728 -0.4128  1.9308
 7301TIP3   OH243317   0.634   6.214   4.931 -0.0385 -0.2948 -0.4144
 7301TIP3    H143318   0.716   6.202   4.884  0.8566 -1.9491  1.4658
 7301TIP3    H243319   0.650   6.289   4.989  1.8966 -3.4156  3.3665
 7302TIP3   OH243320   4.494   0.121  10.613  0.4718 -0.0540 -0.3110
 7302TIP3    H143321   4.569   0.089  10.564  1.8405  0.1236  1.6050
 7302TIP3    H243322   4.453   0.042  10.649  0.6351 -0.0474 -0.1080
 7303TIP3   OH243323   2.649   3.853  12.309  1.1113 -0.0827  0.1624
 7303TIP3    H143324   2.667   3.821  12.220  1.4219 -1.8286  0.8343
 7303TIP3    H243325   2.556   3.873  12.309  1.3411  1.0516 -0.9011
 7304TIP3   OH243326   2.509   5.727  15.146 -0.3747 -0.7705  0.0434
 7304TIP3    H143327   2.417   5.713  15.169 -1.0624  0.9377 -1.6082
 7304TIP3    H243328   2.538   5.797  15.205 -0.5306 -0.3374 -0.3937
 7305TIP3   OH243329   5.036   2.312   5.711  0.1991  0.0262 -0.4102
 7305TIP3    H143330   5.085   2.247   5.661 -0.2989 -1.5041  1.0478
 7305TIP3    H243331   4.962   2.334   5.656 -0.4416 -1.7634 -0.3030
 7306TIP3   OH243332   1.292   2.504   2.350  0.4378  0.7669 -0.1597
 7306TIP3    H143333   1.338   2.472   2.272  1.9456 -1.0501  1.4324
 7306TIP3    H243334   1.265   2.425   2.396  0.4335  1.8087  1.6487
 7307TIP3   OH243335   0.195   5.875   3.462  0.3022 -0.0472  0.2314
 7307TIP3    H143336   0.114   5.824   3.474  0.2423  0.4460  2.0061
 7307TIP3    H243337   0.260   5.828   3.513  0.5957  0.8579  0.6823
 7308TIP3   OH243338   2.327   4.036   5.871  0.0155 -0.5025  0.4002
 7308TIP3    H143339   2.304   3.943   5.878 -1.5772  0.0335  3.4611
 7308TIP3    H243340   2.416   4.041   5.906 -0.0135 -0.8255  0.5255
 7309TIP3   OH243341   0.708   1.008   5.298 -0.5640 -0.4326  0.9436
 7309TIP3    H143342   0.792   1.026   5.258  0.1713 -1.2373  2.0742
 7309TIP3    H243343   0.651   0.984   5.225  0.5796 -1.2944  0.3099
 7310TIP3   OH243344   4.899   2.042   3.149  0.3915  0.3113  0.0542
 7310TIP3    H143345   4.833   1.998   3.096 -1.5722  0.8029  2.0409
 7310TIP3    H243346   4.929   1.976   3.210 -0.2570  0.8339  0.9490
 7311TIP3   OH243347   3.262   0.643  12.500  0.0768 -0.4839 -0.3506
 7311TIP3    H143348   3.255   0.737  12.515  1.5442 -0.2796 -0.9167
 7311TIP3    H243349   3.235   0.632  12.408 -1.0217 -0.7445 -0.0061
 7312TIP3   OH243350   6.738   5.981  16.194  0.1052 -0.2645 -0.6694
 7312TIP3    H143351   6.812   5.922  16.206  0.2338 -0.3384 -1.7650
 7312TIP3    H243352   6.763   6.037  16.120 -0.8671 -0.2016 -0.9628
 7313TIP3   OH243353   5.703   6.247  16.778  0.2537  0.0881 -0.2530
 7313TIP3    H143354   5.753   6.233  16.698 -0.3567  0.0142 -0.6278
 7313TIP3    H243355   5.626   6.296  16.750  0.6746  1.2001  0.5058
 7314TIP3   OH243356   1.974   0.188  16.990  0.5956 -0.2917 -0.1859
 7314TIP3    H143357   2.068   0.188  17.004  0.3505 -0.7378  1.6074
 7314TIP3    H243358   1.940   0.126  17.054 -0.6789 -2.2955 -2.6969
 7315TIP3   OH243359   6.476   0.055  11.057  0.3787  0.6238  0.0081
 7315TIP3    H143360   6.550   0.056  10.996  0.1625 -0.0202 -0.2599
 7315TIP3    H243361   6.398   0.053  11.001  0.1850 -0.2489  0.3031
 7316TIP3   OH243362   4.354   2.281   1.084 -0.1352  0.8843 -0.6216
 7316TIP3    H143363   4.369   2.190   1.062 -1.5584  0.2263  1.0165
 7316TIP3    H243364   4.313   2.319   1.006  0.4475  0.1406 -1.2923
 7317TIP3   OH243365   4.952   3.431  11.974  0.0177  0.0355  0.4656
 7317TIP3    H143366   5.016   3.488  12.016  0.5160  0.6803 -1.1494
 7317TIP3    H243367   4.896   3.490  11.924 -2.4827 -0.4023  2.5962
 7318TIP3   OH243368   3.820   0.488  13.319 -0.0942 -0.5413 -0.0167
 7318TIP3    H143369   3.793   0.446  13.400 -0.6348 -1.2887 -0.5654
 7318TIP3    H243370   3.902   0.533  13.340 -0.5849 -0.1641  1.0989
 7319TIP3   OH243371   0.625   4.754  14.957 -0.3097  1.1720  0.2713
 7319TIP3    H143372   0.640   4.847  14.978  1.6807  0.5712  1.7611
 7319TIP3    H243373   0.574   4.721  15.031 -0.3363  0.9222  0.1405
 7320TIP3   OH243374   5.214   4.762   0.238  0.1702  1.0536  0.0103
 7320TIP3    H143375   5.170   4.845   0.257  0.8775  1.9227 -1.9832
 7320TIP3    H243376   5.209   4.754   0.142  0.9482 -0.7361  0.1065
 7321TIP3   OH243377   5.341   4.057   3.114 -0.0903  0.3893 -0.0671
 7321TIP3    H143378   5.336   4.153   3.112 -0.9857  0.3456 -0.2554
 7321TIP3    H243379   5.250   4.028   3.105 -0.0863 -0.4617  2.2540
 7322TIP3   OH243380   1.472   4.836   3.547 -0.3981 -1.1104  0.1894
 7322TIP3    H143381   1.447   4.745   3.566 -1.1251 -1.2121 -1.2423
 7322TIP3    H243382   1.417   4.862   3.473  1.2827 -0.1830 -0.7611
 7323TIP3   OH243383   1.233   5.796   0.991 -0.0765  0.2982 -0.5944
 7323TIP3    H143384   1.214   5.860   1.059 -2.3652  0.5166 -1.3818
 7323TIP3    H243385   1.300   5.837   0.936 -1.8135  2.2087 -1.3302
 7324TIP3   OH243386   3.485   4.715   4.843 -0.1601  0.2910  0.6468
 7324TIP3    H143387   3.457   4.786   4.786 -2.0495 -0.3580  0.7495
 7324TIP3    H243388   3.494   4.640   4.784 -0.2957  0.0785  0.8968
 7325TIP3   OH243389   4.520   2.602   5.411 -0.1353  0.2297  0.3419
 7325TIP3    H143390   4.565   2.518   5.419 -2.3448 -0.9602  0.8935
 7325TIP3    H243391   4.427   2.581   5.427 -0.8713  2.5939 -0.5625
 7326TIP3   OH243392   2.570   4.821   2.484  0.1583 -0.7574  0.4609
 7326TIP3    H143393   2.548   4.832   2.576 -3.0665 -1.1401 -0.1975
 7326TIP3    H243394   2.511   4.752   2.453  2.4542 -1.9569 -1.4822
 7327TIP3   OH243395   0.974   4.786   5.054 -0.0296  0.5356 -0.4170
 7327TIP3    H143396   0.993   4.702   5.095 -0.4926  1.8929  2.6482
 7327TIP3    H243397   0.904   4.767   4.991  0.2209 -1.4327 -0.1225
 7328TIP3   OH243398   0.835   0.225  10.956  0.6076  0.3595  0.2805
 7328TIP3    H143399   0.825   0.131  10.936  2.2504  0.1576  0.3119
 7328TIP3    H243400   0.794   0.269  10.882  2.8697 -0.3973 -1.5006
 7329TIP3   OH243401   1.078   0.610  13.754 -0.1542 -0.3208 -0.2490
 7329TIP3    H143402   1.078   0.517  13.772 -1.2911 -0.5258 -1.2799
 7329TIP3    H243403   0.986   0.637  13.759 -0.2925  0.0119 -3.4861
 7330TIP3   OH243404   3.020   1.263  11.884 -0.1410  0.3089  0.2409
 7330TIP3    H143405   3.011   1.355  11.908  3.0035  0.7416  0.0712
 7330TIP3    H243406   3.057   1.221  11.962 -0.0225 -0.4694 -0.2236
 7331TIP3   OH243407   5.482   3.151   4.037  0.0239 -0.1680  0.0724
 7331TIP3    H143408   5.407   3.125   4.089  1.0200 -0.1978  1.5142
 7331TIP3    H243409   5.552   3.091   4.064  1.0058  0.9028 -0.0610
 7332TIP3   OH243410   4.572   0.137   6.351  0.0687 -0.2161 -0.2134
 7332TIP3    H143411   4.513   0.085   6.296 -0.1880  0.3188 -0.4539
 7332TIP3    H243412   4.519   0.162   6.426  0.2926 -0.5873  0.0674
 7333TIP3   OH243413   3.780   5.260   3.364  0.0901 -0.2404  0.2092
 7333TIP3    H143414   3.824   5.261   3.278  1.0165 -1.5980  0.6330
 7333TIP3    H243415   3.728   5.340   3.366  1.6091  0.8131 -0.8289
 7334TIP3   OH243416   5.455   0.050  15.247 -0.1684 -0.3099 -0.4464
 7334TIP3    H143417   5.540   0.077  15.211  0.3448 -1.3371 -0.0132
 7334TIP3    H243418   5.430  -0.027  15.195 -1.7245  1.0770 -1.8175
 7335TIP3   OH243419   5.020   6.531   1.936 -0.2546 -0.0543  0.1986
 7335TIP3    H143420   4.984   6.531   1.847  0.9170 -1.2089 -0.2942
 7335TIP3    H243421   4.944   6.544   1.993 -1.0099  0.7447 -0.9714
 7336TIP3   OH243422   5.433   2.571   5.557  0.1302  0.6366  0.3209
 7336TIP3    H143423   5.372   2.529   5.617 -0.2015 -1.0122 -1.1332
 7336TIP3    H243424   5.386   2.576   5.474  1.0552  1.7120 -0.1533
 7337TIP3   OH243425   0.585   1.140  13.118  0.0326  0.4293  0.2669
 7337TIP3    H143426   0.629   1.213  13.161  1.9353 -0.1386 -0.6505
 7337TIP3    H243427   0.651   1.103  13.059 -0.3856 -2.9817  1.8156
 7338TIP3   OH243428   1.351   3.431  15.085  0.0308  0.1874  0.1242
 7338TIP3    H143429   1.403   3.433  15.165 -1.5457 -0.0619  1.1801
 7338TIP3    H243430   1.404   3.479  15.021  1.2696  0.4624  1.3242
 7339TIP3   OH243431   0.936   1.915   2.709  0.4344  0.4745  0.8209
 7339TIP3    H143432   0.962   1.824   2.693  0.8003  0.8141 -0.6191
 7339TIP3    H243433   0.928   1.922   2.804  0.6300 -0.9991  0.9543
 7340TIP3   OH243434   0.251   5.194   5.485 -0.1548  0.2931  0.6131
 7340TIP3    H143435   0.258   5.264   5.420  0.2665  0.6471  1.0316
 7340TIP3    H243436   0.341   5.177   5.512 -0.3500  0.3802  1.3406
 7341TIP3   OH243437   4.713   0.294   0.462  0.4895 -0.2953 -0.4675
 7341TIP3    H143438   4.773   0.328   0.395  1.1319 -1.5021 -0.5163
 7341TIP3    H243439   4.629   0.286   0.416  0.8809 -0.9316 -1.0768
 7342TIP3   OH243440   0.509   1.656  13.741  0.0347 -0.1562  0.3132
 7342TIP3    H143441   0.421   1.639  13.774  0.5578 -2.1712  0.7604
 7342TIP3    H243442   0.532   1.742  13.776 -2.1702  0.9051 -0.7502
 7343TIP3   OH243443   3.779   5.114  16.992 -0.9857  0.6376  0.4134
 7343TIP3    H143444   3.699   5.082  17.035 -0.1188 -2.6926 -0.3300
 7343TIP3    H243445   3.834   5.146  17.064 -1.6493 -0.0884  1.2451
 7344TIP3   OH243446   6.277   2.265   5.303  0.5436  0.1168 -0.0433
 7344TIP3    H143447   6.284   2.332   5.372  0.2231  1.4871 -1.3132
 7344TIP3    H243448   6.355   2.277   5.250  0.0633  0.0510 -0.7665
 7345TIP3   OH243449   4.697   2.498  11.350  0.6559  0.2154 -0.4113
 7345TIP3    H143450   4.686   2.583  11.391 -0.1182  0.0008 -0.1762
 7345TIP3    H243451   4.721   2.439  11.421 -1.9706 -0.4352  0.0010
 7346TIP3   OH243452   3.764   3.122   1.961 -0.3270  0.3377  0.3056
 7346TIP3    H143453   3.781   3.185   1.891 -0.8416 -0.3138 -0.4073
 7346TIP3    H243454   3.712   3.171   2.025  1.2502  1.3293  0.8773
 7347TIP3   OH243455   0.138   6.240   1.270  0.1353  0.4518  0.6570
 7347TIP3    H143456   0.178   6.171   1.324 -1.1217 -0.6541  0.1964
 7347TIP3    H243457   0.053   6.256   1.311  0.1513  1.2914  0.3777
 7348TIP3   OH243458   6.099   5.121   6.056  0.3640  0.1931 -0.3997
 7348TIP3    H143459   6.138   5.162   6.133 -0.8348  1.3906 -0.4148
 7348TIP3    H243460   6.017   5.083   6.087 -1.3117  2.7423 -1.5209
 7349TIP3   OH243461   6.649   2.794  15.609 -0.4411 -0.0630 -0.3094
 7349TIP3    H143462   6.599   2.790  15.527  1.1522  0.7650 -1.3438
 7349TIP3    H243463   6.725   2.739  15.593 -0.5856 -0.6372  0.9583
 7350TIP3   OH243464   6.616   1.044   5.926 -0.1902 -0.2445 -0.0888
 7350TIP3    H143465   6.621   0.992   5.846  0.2897  0.3869 -0.4723
 7350TIP3    H243466   6.564   0.990   5.986 -0.6392 -0.6792 -0.8535
 7351TIP3   OH243467   5.236   1.714  14.488 -0.2081  0.7359 -0.0780
 7351TIP3    H143468   5.306   1.703  14.552 -1.3052 -2.0134  0.7065
 7351TIP3    H243469   5.278   1.699  14.403  0.2340 -0.5512  0.3588
 7352TIP3   OH243470   6.306   1.267  14.020  0.6623  0.4238  0.1504
 7352TIP3    H143471   6.253   1.319  13.959  0.4536  0.7499  0.6119
 7352TIP3    H243472   6.323   1.325  14.094  0.9981  0.0592  0.3630
 7353TIP3   OH243473   6.407   3.479   4.123  0.6385 -0.2769  0.6176
 7353TIP3    H143474   6.319   3.511   4.141  0.3894  1.0126 -2.5279
 7353TIP3    H243475   6.396   3.385   4.107 -0.3476  0.0278 -0.6021
 7354TIP3   OH243476   3.912   6.021  12.704  0.1934  0.3812 -0.3806
 7354TIP3    H143477   3.887   5.949  12.645  0.7887 -0.5874  0.5331
 7354TIP3    H243478   3.901   6.100  12.651  1.3368 -0.5196 -2.0242
 7355TIP3   OH243479   3.373   1.304  11.405  0.2247  0.1895 -0.5390
 7355TIP3    H143480   3.285   1.266  11.403 -0.9819  2.9155 -2.0283
 7355TIP3    H243481   3.371   1.364  11.480  1.5152 -1.2249  0.6678
 7356TIP3   OH243482   2.661   6.015   4.554  0.3431 -0.3529  0.4968
 7356TIP3    H143483   2.736   5.978   4.600  1.0669  0.7710  0.2473
 7356TIP3    H243484   2.637   5.949   4.490  2.5775  0.2227 -0.9934
 7357TIP3   OH243485   3.512   4.292  16.572 -0.4652  0.1801 -0.1004
 7357TIP3    H143486   3.445   4.229  16.596 -0.0857  0.2366  1.1100
 7357TIP3    H243487   3.536   4.336  16.654  0.1246  1.0643 -0.7256
 7358TIP3   OH243488   6.726   4.190   0.270  0.0988  0.4244  0.6922
 7358TIP3    H143489   6.770   4.126   0.327 -0.6318 -0.2982  0.4433
 7358TIP3    H243490   6.797   4.248   0.242  0.7418 -0.1622  1.0626
 7359TIP3   OH243491   0.342   1.244  14.001 -0.4336 -0.2935  0.5734
 7359TIP3    H143492   0.285   1.170  13.979 -0.1764 -0.4132  0.3094
 7359TIP3    H243493   0.400   1.254  13.925 -0.1174 -0.1598  0.8279
 7360TIP3   OH243494   3.765   2.279  14.378  0.1934 -0.1679  0.6703
 7360TIP3    H143495   3.681   2.306  14.415 -0.2296  0.3776 -0.6736
 7360TIP3    H243496   3.779   2.191  14.414 -1.8069 -0.9887 -0.4864
 7361TIP3   OH243497   5.137   0.569  16.534 -0.2953 -0.1405  0.2600
 7361TIP3    H143498   5.212   0.624  16.557 -1.5498  0.9697  1.8351
 7361TIP3    H243499   5.076   0.628  16.490  0.1897 -1.2839 -2.0161
 7362TIP3   OH243500   4.031   2.453  15.471  0.1684  0.0994 -0.2389
 7362TIP3    H143501   4.086   2.380  15.499 -1.1472 -0.3788  1.1230
 7362TIP3    H243502   3.948   2.413  15.447  0.1768  0.9034 -1.6481
 7363TIP3   OH243503   3.589   3.721   1.687  0.2201  0.3581  0.2257
 7363TIP3    H143504   3.612   3.750   1.599  1.2185 -0.6943  0.1293
 7363TIP3    H243505   3.504   3.761   1.704  0.1195  0.7434 -1.1307
 7364TIP3   OH243506   3.671   4.126  13.133  0.1252  0.4110  0.1845
 7364TIP3    H143507   3.729   4.173  13.073  2.9952 -2.1018  0.8873
 7364TIP3    H243508   3.631   4.058  13.078  0.7825 -0.2752  0.5593
 7365TIP3   OH243509   1.557   6.457  14.509  0.1823 -0.1729  0.1567
 7365TIP3    H143510   1.500   6.419  14.575 -1.3920 -1.2633 -1.7784
 7365TIP3    H243511   1.623   6.391  14.492  0.1486 -0.1930  0.1024
 7366TIP3   OH243512   5.368   4.117  14.145  0.1674  0.5857  0.4668
 7366TIP3    H143513   5.446   4.063  14.158  0.1112  0.2870 -0.3973
 7366TIP3    H243514   5.297   4.054  14.136  0.0065  0.8236  0.0770
 7367TIP3   OH243515   1.593   0.993  11.220 -0.0261 -0.0097  0.4660
 7367TIP3    H143516   1.583   1.069  11.162  0.2964 -0.8134 -0.6532
 7367TIP3    H243517   1.685   0.992  11.243  0.3438 -1.1257 -1.0081
 7368TIP3   OH243518   3.667   2.118   2.020 -0.1218 -0.1057  0.4296
 7368TIP3    H143519   3.614   2.082   2.091 -0.2593 -0.4395  0.1631
 7368TIP3    H243520   3.606   2.174   1.971 -0.9374 -2.4387 -1.3504
 7369TIP3   OH243521   5.942   3.581  14.611  0.2133 -0.1067 -0.5704
 7369TIP3    H143522   5.918   3.501  14.564 -0.3410 -0.2351 -0.0788
 7369TIP3    H243523   6.037   3.584  14.607  0.2534 -0.9649 -0.3153
 7370TIP3   OH243524   3.155   3.181   6.414 -0.0281  0.3905 -0.4097
 7370TIP3    H143525   3.097   3.206   6.342  1.0673 -1.3235 -1.9162
 7370TIP3    H243526   3.138   3.089   6.429  0.4821  0.4867  0.8540
 7371TIP3   OH243527   1.357   6.542  13.824  0.2651  0.6519  0.2349
 7371TIP3    H143528   1.386   6.450  13.823 -0.5474  0.3717  1.3662
 7371TIP3    H243529   1.274   6.541  13.776  0.9193  1.0448 -0.9326
 7372TIP3   OH243530   3.702   6.103   1.080 -0.3226 -0.6418  0.0991
 7372TIP3    H143531   3.727   6.012   1.065 -0.2413 -0.5821 -0.1228
 7372TIP3    H243532   3.706   6.144   0.994  0.4194 -0.2351  0.3257
 7373TIP3   OH243533   4.392   5.028   3.141 -0.3529  0.1279  0.1999
 7373TIP3    H143534   4.431   4.988   3.063 -2.3011  0.3558 -0.9226
 7373TIP3    H243535   4.421   5.119   3.139 -0.3892  0.1292 -0.2470
 7374TIP3   OH243536   0.940   3.507  12.359  0.1073  0.3963  0.1188
 7374TIP3    H143537   0.864   3.517  12.302 -1.1360  1.1314  1.8864
 7374TIP3    H243538   0.961   3.414  12.355  0.5779  0.5671 -2.1994
 7375TIP3   OH243539   6.103   2.906   4.944 -0.2812  0.0300 -0.4010
 7375TIP3    H143540   6.163   2.833   4.927  1.0403  0.3372  2.4908
 7375TIP3    H243541   6.159   2.983   4.947 -0.9771  0.5087  1.0180
 7376TIP3   OH243542   3.514   5.178   0.076 -0.1419 -0.8094  0.4747
 7376TIP3    H143543   3.492   5.204   0.165  1.1963 -0.7685  0.8054
 7376TIP3    H243544   3.529   5.083   0.082  2.1755 -0.4621  0.7870
 7377TIP3   OH243545   0.160   2.758   3.414  0.1319  0.3716  0.3924
 7377TIP3    H143546   0.237   2.763   3.470  0.0629 -0.0450  0.5226
 7377TIP3    H243547   0.192   2.720   3.332  0.0722  0.2327  0.4336
 7378TIP3   OH243548   3.095   5.827   5.369 -0.4645 -0.1589  0.0865
 7378TIP3    H143549   3.110   5.745   5.322  1.9582 -0.2589  0.9310
 7378TIP3    H243550   3.111   5.896   5.304  2.4033 -0.3033  0.5571
 7379TIP3   OH243551   4.215   3.822   2.069 -0.2280  0.5294  0.0021
 7379TIP3    H143552   4.241   3.913   2.085  0.3534  0.1188  1.4556
 7379TIP3    H243553   4.121   3.826   2.054 -0.1035  1.4497 -0.5717
 7380TIP3   OH243554   5.693   1.237   4.051  0.7475 -0.4657 -0.0322
 7380TIP3    H143555   5.605   1.273   4.063  0.4789 -1.6323  1.6609
 7380TIP3    H243556   5.750   1.313   4.049 -0.4326  0.3970 -2.5590
 7381TIP3   OH243557   2.594   6.198  15.149 -0.4171  0.1697 -0.3762
 7381TIP3    H143558   2.574   6.148  15.228 -0.6968  0.4640 -0.2635
 7381TIP3    H243559   2.597   6.131  15.080  0.8553 -0.2259  0.0472
 7382TIP3   OH243560   4.477   2.073  13.784 -0.1133  0.1508  0.0332
 7382TIP3    H143561   4.448   2.139  13.721 -0.7928  1.2100  1.4287
 7382TIP3    H243562   4.561   2.105  13.816 -2.3063  2.5186  3.7332
 7383TIP3   OH243563   4.430   6.777  13.060  0.6575  0.2120  0.1481
 7383TIP3    H143564   4.388   6.708  13.009 -0.2508 -0.2007  1.4234
 7383TIP3    H243565   4.365   6.801  13.126  1.4578  1.3884  0.5159
 7384TIP3   OH243566   3.058   1.107   2.989  0.3071  0.4871  0.4796
 7384TIP3    H143567   2.967   1.136   2.990 -0.0770 -0.7009  0.5064
 7384TIP3    H243568   3.105   1.178   2.945 -1.3846 -1.1158 -4.2463
 7385TIP3   OH243569   1.186   4.815   3.694  0.2445 -0.1259  0.1441
 7385TIP3    H143570   1.261   4.871   3.716  0.0244  1.2686 -2.4849
 7385TIP3    H243571   1.223   4.727   3.686  1.4556  0.4134 -0.3479
 7386TIP3   OH243572   6.321   2.305   0.653  0.0287  0.1887 -0.3915
 7386TIP3    H143573   6.367   2.264   0.579 -0.7615 -2.3267  0.4466
 7386TIP3    H243574   6.333   2.243   0.725  0.2096  2.2935  1.4331
 7387TIP3   OH243575   1.346   5.897   2.162  0.6769  0.2135 -0.1653
 7387TIP3    H143576   1.336   5.963   2.093  1.1330 -0.0245 -0.4594
 7387TIP3    H243577   1.306   5.938   2.239  0.6067  0.6802 -0.4433
 7388TIP3   OH243578   6.331   3.157   0.904 -0.1766  0.7086 -0.2673
 7388TIP3    H143579   6.358   3.127   0.818  0.2709  2.8716 -0.9085
 7388TIP3    H243580   6.260   3.219   0.888 -0.8776  0.2733  1.0001
 7389TIP3   OH243581   4.770   1.285  14.976 -0.1587  0.9915 -0.7766
 7389TIP3    H143582   4.783   1.220  14.907  1.2572  2.8189 -2.2997
 7389TIP3    H243583   4.853   1.332  14.980 -0.8654  2.1311  0.9037
 7390TIP3   OH243584   3.958   1.402  16.531 -0.3242 -0.0530  0.8158
 7390TIP3    H143585   3.870   1.441  16.527 -0.4467 -0.4288 -0.3533
 7390TIP3    H243586   4.018   1.476  16.527 -0.5506  0.0376 -1.6121
 7391TIP3   OH243587   1.340   3.539   2.028  0.7685  0.2082 -0.4874
 7391TIP3    H143588   1.389   3.511   2.105  0.1412 -0.5497 -0.3630
 7391TIP3    H243589   1.310   3.458   1.987  0.2734  0.6410 -0.9932
 7392TIP3   OH243590   6.126   6.511  13.823  0.1556 -0.0092  0.5530
 7392TIP3    H143591   6.216   6.520  13.790  0.2567 -2.1752  0.1116
 7392TIP3    H243592   6.094   6.431  13.781 -1.0986 -0.6467  2.6372
 7393TIP3   OH243593   2.132   6.222  12.385  0.6861 -0.4720 -0.5173
 7393TIP3    H143594   2.173   6.267  12.459  2.0074 -1.8754 -0.3710
 7393TIP3    H243595   2.051   6.186  12.420  1.5385 -1.5365  0.3740
 7394TIP3   OH243596   6.603   1.500   2.816 -0.2044 -0.7110 -0.0653
 7394TIP3    H143597   6.565   1.516   2.902 -0.0202 -0.3049 -0.0555
 7394TIP3    H243598   6.567   1.416   2.788  0.4929 -1.2966  0.8217
 7395TIP3   OH243599   4.327   4.640  14.666  0.1077  0.3200  0.2345
 7395TIP3    H143600   4.361   4.729  14.658 -0.8436  0.8573  1.8417
 7395TIP3    H243601   4.351   4.613  14.755  2.0904 -1.7842 -0.8746
 7396TIP3   OH243602   0.724   2.044   5.539 -0.1182 -0.0542  0.6902
 7396TIP3    H143603   0.806   2.093   5.538  0.1914 -0.5461 -3.1186
 7396TIP3    H243604   0.747   1.959   5.576  1.0029 -0.0260  0.0713
 7397TIP3   OH243605   3.556   4.536  12.649  0.0889  0.4661  0.4941
 7397TIP3    H143606   3.650   4.522  12.657 -0.0329 -0.9362 -0.4915
 7397TIP3    H243607   3.521   4.519  12.736  0.7316  0.9236  0.8420
 7398TIP3   OH243608   3.209   2.802   0.636  0.1054  0.1550  0.0407
 7398TIP3    H143609   3.239   2.882   0.592  0.4460  1.0130  1.7721
 7398TIP3    H243610   3.287   2.769   0.680 -0.6149  0.2824  1.4231
 7399TIP3   OH243611   1.050   3.607   1.366 -0.7961  0.5559  0.3837
 7399TIP3    H143612   1.041   3.587   1.460 -0.7972  0.5211  0.3763
 7399TIP3    H243613   1.032   3.523   1.323  0.5728  0.2413  0.4139
 7400TIP3   OH243614   2.415   4.009  12.288  0.0482  0.4685 -0.2592
 7400TIP3    H143615   2.331   3.990  12.329 -0.1347  1.1840 -0.3056
 7400TIP3    H243616   2.433   4.100  12.310  0.1227  0.7546 -1.4569
 7401TIP3   OH243617   0.789   5.482   4.605  0.4060  0.0747 -0.2730
 7401TIP3    H143618   0.829   5.429   4.674 -0.3557 -2.0663 -1.4156
 7401TIP3    H243619   0.860   5.498   4.542 -0.1097 -2.5326 -1.6031
 7402TIP3   OH243620   2.683   3.396   0.159 -0.2304  0.3372  0.9565
 7402TIP3    H143621   2.721   3.337   0.094  0.9499  0.3563  1.6130
 7402TIP3    H243622   2.590   3.402   0.135  0.4978  1.6521 -1.7452
 7403TIP3   OH243623   2.834   4.664  12.338  0.5296 -0.4109 -0.2718
 7403TIP3    H143624   2.760   4.624  12.292 -0.2413  0.9970 -0.2889
 7403TIP3    H243625   2.903   4.668  12.272  0.3672 -1.0002 -0.4891
 7404TIP3   OH243626   5.071   1.161  10.270  0.3810 -0.2827 -0.2953
 7404TIP3    H143627   5.005   1.092  10.278  0.2839 -0.0341  1.3387
 7404TIP3    H243628   5.028   1.240  10.303  1.5650 -0.1735  1.0313
 7405TIP3   OH243629   5.191   1.205   4.994 -0.1928  0.9555 -0.5077
 7405TIP3    H143630   5.228   1.154   4.922  0.6254 -0.4968  0.9410
 7405TIP3    H243631   5.233   1.291   4.986  1.1133  0.2955 -0.7763
 7406TIP3   OH243632   1.281   6.239  16.273 -0.5165  0.2909 -0.3476
 7406TIP3    H143633   1.327   6.316  16.308 -1.3272 -0.0493  1.5302
 7406TIP3    H243634   1.342   6.202  16.210  0.2442  1.9852 -0.6374
 7407TIP3   OH243635   0.447   0.647   2.837  0.4603  0.5108  0.2887
 7407TIP3    H143636   0.520   0.643   2.775 -0.4935 -1.1755 -0.7298
 7407TIP3    H243637   0.488   0.630   2.922  1.2496 -0.5123 -0.2886
 7408TIP3   OH243638   4.800   1.943  17.181  0.3113  0.1253 -0.4124
 7408TIP3    H143639   4.730   1.878  17.185 -0.5561  0.9573 -1.6685
 7408TIP3    H243640   4.864   1.905  17.121  0.2028  0.0573 -0.4865
 7409TIP3   OH243641   3.085   1.349  13.295  0.3511  0.2608  0.1844
 7409TIP3    H143642   3.029   1.346  13.373  1.2932  0.6212  0.8871
 7409TIP3    H243643   3.026   1.332  13.222 -0.6659  0.6181  0.9190
 7410TIP3   OH243644   6.754   5.345   4.670 -0.2544 -0.3519  0.1878
 7410TIP3    H143645   6.660   5.332   4.676 -0.4487  1.2595  0.8371
 7410TIP3    H243646   6.765   5.440   4.662  1.2019 -0.6564 -2.0846
 7411TIP3   OH243647   1.076   6.638   4.506 -0.5776 -0.6210 -0.3584
 7411TIP3    H143648   1.034   6.637   4.592 -2.0089  2.7491 -0.9543
 7411TIP3    H243649   1.039   6.561   4.461 -1.9463 -0.8281  1.0684
 7412TIP3   OH243650   3.289   3.587   4.909 -0.0092 -0.3090 -0.1367
 7412TIP3    H143651   3.320   3.642   4.981  0.7721 -0.4842 -0.3349
 7412TIP3    H243652   3.366   3.537   4.882 -0.5488 -0.9933 -0.4211
 7413TIP3   OH243653   6.205   5.795  16.726 -0.2289 -0.3217  0.0359
 7413TIP3    H143654   6.194   5.853  16.650 -1.7598  0.0741  0.5249
 7413TIP3    H243655   6.131   5.817  16.782  1.1054 -0.3330  1.8299
 7414TIP3   OH243656   0.934   5.301  14.492  0.3339 -0.3985  0.4972
 7414TIP3    H143657   0.943   5.225  14.434 -0.7859  1.4041 -2.1251
 7414TIP3    H243658   1.022   5.316  14.526  0.7347 -2.3088  0.3307
 7415TIP3   OH243659   0.269   3.751   0.754 -0.2350  0.2784  0.6975
 7415TIP3    H143660   0.288   3.659   0.771  0.6110  0.4864  0.9244
 7415TIP3    H243661   0.208   3.750   0.680  0.1924 -0.4405  0.3495
 7416TIP3   OH243662   3.491   2.005  10.540  0.1786  0.7788 -0.2848
 7416TIP3    H143663   3.396   2.005  10.527  0.1584 -0.3586 -0.1489
 7416TIP3    H243664   3.518   1.915  10.523  0.9806  0.6638  1.4290
 7417TIP3   OH243665   5.786   1.014   5.175 -0.1417  0.5623  0.1982
 7417TIP3    H143666   5.832   0.937   5.141  0.9257  1.6626 -0.9014
 7417TIP3    H243667   5.797   1.009   5.270  0.7416 -0.1299  0.0657
 7418TIP3   OH243668   6.241   0.630   2.036  0.3119 -0.1044 -0.2826
 7418TIP3    H143669   6.303   0.557   2.041  0.5892  0.1370 -0.2535
 7418TIP3    H243670   6.200   0.632   2.123 -0.3724 -0.8279 -0.5789
 7419TIP3   OH243671   3.114   3.667  17.008 -0.4137  0.2509  0.2281
 7419TIP3    H143672   3.105   3.719  16.928 -0.1683  0.3478  0.2617
 7419TIP3    H243673   3.080   3.724  17.078 -2.2133 -0.4756 -0.0313
 7420TIP3   OH243674   5.855   1.591   4.448  0.0730  0.0197  0.6963
 7420TIP3    H143675   5.860   1.670   4.502 -0.8117  0.6510 -0.1236
 7420TIP3    H243676   5.945   1.573   4.424  0.3076  0.6562  1.0825
 7421TIP3   OH243677   4.722   4.915  12.984 -0.2697 -0.2479 -0.2042
 7421TIP3    H143678   4.680   4.838  13.021  0.6433  0.6330  2.8797
 7421TIP3    H243679   4.814   4.908  13.012  0.2967  0.8551 -1.7344
 7422TIP3   OH243680   4.101   2.827   1.842 -0.6829  0.3396 -0.4143
 7422TIP3    H143681   4.168   2.811   1.776  0.3478  0.2298  0.6495
 7422TIP3    H243682   4.097   2.922   1.850  1.0305  0.3141  1.1908
 7423TIP3   OH243683   3.416   4.369  15.192 -0.4665 -0.4946 -0.2706
 7423TIP3    H143684   3.465   4.450  15.178 -0.8509 -0.1619  0.2438
 7423TIP3    H243685   3.455   4.330  15.270 -1.5713  0.2242  0.6679
 7424TIP3   OH243686   5.766   3.390  14.812  0.1001 -0.0751 -0.3500
 7424TIP3    H143687   5.761   3.324  14.881 -0.3087 -0.7621 -1.0270
 7424TIP3    H243688   5.689   3.445  14.826  0.4037  0.2094  0.1753
 7425TIP3   OH243689   1.617   6.282   3.318 -0.5591 -0.1642 -0.5273
 7425TIP3    H143690   1.670   6.282   3.238  0.5487  1.0433  0.1863
 7425TIP3    H243691   1.545   6.342   3.299  0.3423  1.0346 -0.2294
 7426TIP3   OH243692   2.064   1.453   6.027  0.1036 -0.2052  0.2575
 7426TIP3    H143693   2.120   1.454   6.104  0.3962  2.1073  0.0425
 7426TIP3    H243694   1.976   1.437   6.061  0.1675  1.2231  1.1349
 7427TIP3   OH243695   4.359   2.447   3.223  0.2225 -0.3716 -0.6638
 7427TIP3    H143696   4.359   2.354   3.201  2.2575 -0.0546 -2.2110
 7427TIP3    H243697   4.443   2.461   3.267  1.2446  1.2178 -2.9744
 7428TIP3   OH243698   3.966   1.845  16.411 -0.8798 -0.0030 -0.3775
 7428TIP3    H143699   3.890   1.859  16.467  0.1845  1.0241  0.8509
 7428TIP3    H243700   3.929   1.827  16.325 -2.4984  1.2532  0.0220
 7429TIP3   OH243701   3.195   1.231  12.643  0.6668 -0.2715  0.5509
 7429TIP3    H143702   3.269   1.234  12.703  0.2850  0.6603  0.9771
 7429TIP3    H243703   3.125   1.189  12.692  0.8468 -0.9946  0.2057
 7430TIP3   OH243704   6.025   2.160   2.775  0.0739  0.2571  0.3522
 7430TIP3    H143705   6.008   2.211   2.855 -1.0820 -1.0742  0.9647
 7430TIP3    H243706   5.950   2.178   2.719  1.5463  2.3159 -1.0697
 7431TIP3   OH243707   1.934   4.722  16.611  0.7161 -0.8940 -0.0601
 7431TIP3    H143708   2.022   4.731  16.572 -0.3298  0.1999 -2.2772
 7431TIP3    H243709   1.906   4.635  16.583  0.2267 -0.3643 -1.2774
 7432TIP3   OH243710   3.305   4.852  15.367  0.6002 -0.4122  0.1019
 7432TIP3    H143711   3.302   4.757  15.373  1.3441 -0.5501 -1.4607
 7432TIP3    H243712   3.213   4.879  15.375  0.5024 -1.1759  1.6103
 7433TIP3   OH243713   4.070   4.714  16.277 -0.2068  0.1994 -0.3649
 7433TIP3    H143714   4.000   4.715  16.343  0.5135 -0.0848  0.4080
 7433TIP3    H243715   4.031   4.670  16.202 -1.2354  1.0726 -0.3609
 7434TIP3   OH243716   0.868   2.806  13.029 -0.2388 -0.3242 -0.0235
 7434TIP3    H143717   0.821   2.804  13.113 -0.2264  2.0231  0.0756
 7434TIP3    H243718   0.860   2.896  12.999  1.6651 -0.5983 -1.4829
 7435TIP3   OH243719   2.816   0.563   0.724 -0.0083 -0.5394 -0.2001
 7435TIP3    H143720   2.890   0.504   0.711  0.9800  0.4982  0.5639
 7435TIP3    H243721   2.798   0.558   0.817 -0.8446 -0.7242 -0.3744
 7436TIP3   OH243722   3.742   5.050   3.097 -0.6238 -0.7047  0.5033
 7436TIP3    H143723   3.680   4.981   3.072  0.4142 -1.2810 -0.5201
 7436TIP3    H243724   3.819   5.002   3.128 -0.2785  0.0119  0.7638
 7437TIP3   OH243725   4.734   2.827  15.119 -0.0452 -0.1268 -0.1390
 7437TIP3    H143726   4.725   2.920  15.138  0.6056 -0.0614 -0.1411
 7437TIP3    H243727   4.680   2.783  15.185 -1.0464  0.2934 -0.6845
 7438TIP3   OH243728   1.698   5.897  15.723 -0.6064  0.1893  0.3504
 7438TIP3    H143729   1.689   5.894  15.628  1.2424 -0.9214  0.1863
 7438TIP3    H243730   1.609   5.881  15.756 -0.8975 -1.4528 -1.1766
 7439TIP3   OH243731   2.470   3.219   0.810 -0.3387 -0.5267 -0.0368
 7439TIP3    H143732   2.443   3.209   0.719 -1.3513 -2.3116  0.4289
 7439TIP3    H243733   2.389   3.209   0.860  0.6475 -2.5726  1.2143
 7440TIP3   OH243734   3.182   6.465  10.860  0.2247  0.0635 -0.3146
 7440TIP3    H143735   3.109   6.514  10.899  0.1760  0.3144 -0.7243
 7440TIP3    H243736   3.168   6.471  10.766  0.3026 -0.6124 -0.3712
 7441TIP3   OH243737   2.517   2.081   3.460 -0.2276  0.0400 -0.0127
 7441TIP3    H143738   2.553   2.101   3.546 -0.7060  0.2664  0.1397
 7441TIP3    H243739   2.432   2.125   3.459 -2.6748 -4.3387  1.4916
 7442TIP3   OH243740   2.348   3.911  13.981 -0.5805 -0.1255 -0.2241
 7442TIP3    H143741   2.434   3.871  13.971 -0.3701  0.3641 -0.4161
 7442TIP3    H243742   2.294   3.844  14.023  0.1272 -0.1296  0.6913
 7443TIP3   OH243743   3.487   6.377  16.495  0.8676  0.3162  0.0064
 7443TIP3    H143744   3.419   6.428  16.452  1.5833  1.3041  0.0179
 7443TIP3    H243745   3.463   6.379  16.588 -0.6593 -1.7893 -0.3158
 7444TIP3   OH243746   3.863   6.167  13.629  0.7845 -0.1849  0.2037
 7444TIP3    H143747   3.916   6.142  13.706 -0.4053  0.9223  1.4056
 7444TIP3    H243748   3.787   6.110  13.633  0.6445 -0.0158 -0.0546
 7445TIP3   OH243749   5.191   2.251   0.604 -0.1362  0.3886 -0.0367
 7445TIP3    H143750   5.116   2.208   0.646  0.1297  0.6308  0.7057
 7445TIP3    H243751   5.267   2.213   0.647  0.1398  0.7063 -0.2443
 7446TIP3   OH243752   0.096   1.120   2.077 -0.3116  0.0506 -0.2609
 7446TIP3    H143753   0.154   1.049   2.105  0.3153  0.9177  0.6547
 7446TIP3    H243754   0.132   1.198   2.118 -1.0803  0.8853 -1.1557
 7447TIP3   OH243755   5.136   1.517   2.804 -0.1388  0.0571  0.1728
 7447TIP3    H143756   5.193   1.501   2.728 -1.0245 -1.3722 -0.1901
 7447TIP3    H243757   5.051   1.538   2.766 -0.2583  0.6417  0.7538
 7448TIP3   OH243758   0.192   4.206  12.555  0.5299  0.1341 -0.2465
 7448TIP3    H143759   0.147   4.146  12.496  0.8317  0.6806 -1.0387
 7448TIP3    H243760   0.267   4.239  12.504  0.7013  0.7351  0.3764
 7449TIP3   OH243761   3.828   6.414  13.807 -0.2365  0.2338 -0.1928
 7449TIP3    H143762   3.783   6.344  13.760  0.7007 -0.5637  0.0889
 7449TIP3    H243763   3.766   6.486  13.808 -1.0586 -0.4601 -0.8314
 7450TIP3   OH243764   2.812   1.436   0.271 -0.2470 -0.4622  0.0503
 7450TIP3    H143765   2.777   1.352   0.244 -0.6848 -0.2060 -0.1856
 7450TIP3    H243766   2.764   1.458   0.351  0.5528 -0.8896  0.6555
 7451TIP3   OH243767   0.730   5.500  15.391  0.4505  0.1138 -0.3238
 7451TIP3    H143768   0.749   5.418  15.437 -0.7316 -0.4793 -0.8620
 7451TIP3    H243769   0.693   5.558  15.458  3.3225  0.9915  0.5472
 7452TIP3   OH243770   0.232   0.940   1.579 -0.2125 -0.2880 -0.3645
 7452TIP3    H143771   0.285   0.982   1.646  0.7429  0.4151 -1.5641
 7452TIP3    H243772   0.141   0.956   1.607  0.1722  0.3345  0.5440
 7453TIP3   OH243773   3.211   3.927   2.021  0.2368  0.9430  0.2115
 7453TIP3    H143774   3.195   3.983   2.096 -1.3865 -1.1082  1.4429
 7453TIP3    H243775   3.284   3.871   2.048  0.5730  1.1409 -0.2759
 7454TIP3   OH243776   4.386   5.720  14.183  0.4595  0.4363  0.4658
 7454TIP3    H143777   4.468   5.693  14.142 -0.7678 -1.5722 -0.7474
 7454TIP3    H243778   4.365   5.804  14.143  1.5348  0.5970  0.2305
 7455TIP3   OH243779   0.636   2.743  16.978 -0.2318  0.0500 -0.1017
 7455TIP3    H143780   0.604   2.676  16.917  1.2614 -0.2856 -0.5413
 7455TIP3    H243781   0.582   2.820  16.959 -1.7072 -0.9049  0.1459
 7456TIP3   OH243782   0.323   1.693  11.084  0.0580 -0.3815  0.0744
 7456TIP3    H143783   0.346   1.601  11.070  0.5942  0.0074 -1.7245
 7456TIP3    H243784   0.340   1.735  11.000 -0.5199  1.3040  0.7782
 7457TIP3   OH243785   1.154   5.088  14.695 -0.5109 -0.2927 -0.2861
 7457TIP3    H143786   1.063   5.060  14.703 -0.9407  0.9481 -0.6628
 7457TIP3    H243787   1.192   5.030  14.630 -1.5292  0.3195 -1.4638
 7458TIP3   OH243788   4.080   4.644   3.188 -0.3138  0.1461  0.1573
 7458TIP3    H143789   4.173   4.650   3.167 -0.3181  1.9513  0.6036
 7458TIP3    H243790   4.067   4.552   3.212  1.1632 -0.3149 -0.7429
 7459TIP3   OH243791   0.959   1.298  14.203  0.1520 -0.2741 -0.0562
 7459TIP3    H143792   1.008   1.258  14.275  0.4020  1.4042  0.7339
 7459TIP3    H243793   0.903   1.228  14.170  1.4647 -1.6092  0.4917
 7460TIP3   OH243794   6.455   3.392  16.138 -0.2583 -0.0569 -0.7475
 7460TIP3    H143795   6.508   3.336  16.080  1.0522  2.9030 -2.5205
 7460TIP3    H243796   6.510   3.405  16.215 -0.3944 -0.8350 -0.5128
 7461TIP3   OH243797   5.800   0.438   2.102  0.3602 -0.2763  0.0371
 7461TIP3    H143798   5.883   0.430   2.057  0.2936 -1.7922  0.1680
 7461TIP3    H243799   5.795   0.360   2.157  0.2439  1.2972  2.3326
 7462TIP3   OH243800   2.368   2.936  11.194 -0.3681  0.0746 -0.2324
 7462TIP3    H143801   2.427   2.996  11.148  0.6031 -1.3957 -0.9178
 7462TIP3    H243802   2.374   2.854  11.146 -0.2338 -1.1416  1.8143
 7463TIP3   OH243803   1.724   2.309   5.039 -0.0680 -0.1476 -0.2578
 7463TIP3    H143804   1.640   2.270   5.064  0.8303  0.2170  3.6666
 7463TIP3    H243805   1.790   2.257   5.085  1.5004  2.5325  0.6968
 7464TIP3   OH243806   4.065   2.059  11.224 -0.8485 -0.2395 -0.3994
 7464TIP3    H143807   4.030   2.134  11.176  0.8522  0.9771  0.2148
 7464TIP3    H243808   3.993   1.996  11.227 -1.6534  0.5152 -2.7230
 7465TIP3   OH243809   6.176   2.775  15.644 -0.1370  0.4348 -0.4611
 7465TIP3    H143810   6.257   2.725  15.655  0.5976  1.7566  0.2681
 7465TIP3    H243811   6.194   2.859  15.687 -1.5699  1.0843 -1.1121
 7466TIP3   OH243812   0.126   4.970   2.903 -0.1884 -0.0550  0.3336
 7466TIP3    H143813   0.143   4.960   2.997 -1.1843 -0.0088  0.5318
 7466TIP3    H243814   0.045   5.021   2.899  0.4318  0.8861 -0.5684
 7467TIP3   OH243815   1.565   5.243  12.046 -0.5777  0.0554  0.1043
 7467TIP3    H143816   1.571   5.266  12.139 -1.2572  0.2270  0.1044
 7467TIP3    H243817   1.477   5.270  12.020 -0.4793 -0.2269 -0.5284
 7468TIP3   OH243818   6.278   6.703  11.776  0.1750  0.0442 -0.8035
 7468TIP3    H143819   6.312   6.624  11.818  1.4694  1.3510  0.6549
 7468TIP3    H243820   6.184   6.687  11.768  0.1297 -0.8823  1.1954
 7469TIP3   OH243821   2.857   6.002  16.257 -0.2726  0.0633 -0.2119
 7469TIP3    H143822   2.769   5.968  16.273 -0.6075  0.2573 -1.5986
 7469TIP3    H243823   2.899   5.935  16.204 -0.3146  0.9651 -1.3874
 7470TIP3   OH243824   6.276   0.007   0.440  0.9679 -0.0330  0.0697
 7470TIP3    H143825   6.347  -0.014   0.380  2.2214 -0.4093  1.6525
 7470TIP3    H243826   6.199  -0.036   0.403  1.7378 -0.3244 -1.2060
 7471TIP3   OH243827   4.467   4.845   5.795 -0.4905  0.0690 -0.1200
 7471TIP3    H143828   4.398   4.893   5.840 -0.6695 -0.9535  0.6960
 7471TIP3    H243829   4.531   4.825   5.863  0.3870  0.5924 -0.7767
 7472TIP3   OH243830   0.222   2.251   3.600 -0.2563  0.1855  0.0731
 7472TIP3    H143831   0.152   2.316   3.605  0.2172  0.5472  2.1709
 7472TIP3    H243832   0.290   2.284   3.658  0.5887 -1.4611  0.0438
 7473TIP3   OH243833   0.440   6.081  11.896  0.0233 -0.0128 -0.3790
 7473TIP3    H143834   0.430   6.113  11.806  3.6769  0.6664 -0.6224
 7473TIP3    H243835   0.479   6.155  11.943  0.0900 -1.0616  1.2456
 7474TIP3   OH243836   5.816   2.771  12.921 -0.1469  0.0153 -0.3195
 7474TIP3    H143837   5.815   2.862  12.893  1.3103 -0.4810 -2.0690
 7474TIP3    H243838   5.836   2.774  13.015  0.2336  1.4691 -0.4454
 7475TIP3   OH243839   4.926   1.674  13.981  0.3918 -0.2924 -0.1551
 7475TIP3    H143840   4.896   1.694  13.893  1.8281 -0.9337 -0.7965
 7475TIP3    H243841   4.913   1.579  13.991 -0.8287 -0.0462  0.7377
 7476TIP3   OH243842   0.293   1.820   3.264 -0.3005  0.1732 -0.0624
 7476TIP3    H143843   0.324   1.833   3.354 -2.8495 -0.9978  1.0348
 7476TIP3    H243844   0.348   1.750   3.229 -0.6980 -0.8660  1.3435
 7477TIP3   OH243845   4.719   0.345   1.886 -0.6253  0.1063 -0.6288
 7477TIP3    H143846   4.815   0.354   1.888 -0.4342 -1.6467 -1.0466
 7477TIP3    H243847   4.692   0.356   1.977  0.3089 -2.5528  0.0206
 7478TIP3   OH243848   0.758   0.439  10.736 -0.3980  0.0061  0.1825
 7478TIP3    H143849   0.681   0.455  10.681 -1.4801 -0.4601  1.5087
 7478TIP3    H243850   0.808   0.373  10.688  0.7137  2.4165 -2.1072
 7479TIP3   OH243851   5.718   6.774   5.504  0.0881  0.0117  0.2128
 7479TIP3    H143852   5.712   6.844   5.438 -0.6494  0.2545  0.5321
 7479TIP3    H243853   5.763   6.703   5.459 -0.0004  0.3470 -0.4129
 7480TIP3   OH243854   3.545   5.472  13.820  0.2301 -0.0141  0.0024
 7480TIP3    H143855   3.515   5.420  13.746 -1.8054  0.4692  0.4605
 7480TIP3    H243856   3.635   5.443  13.836 -0.0240 -1.5631 -1.3493
 7481TIP3   OH243857   0.049   6.102  14.386  0.2681 -0.2729  0.0257
 7481TIP3    H143858  -0.002   6.121  14.308 -0.6499 -1.5805  0.2922
 7481TIP3    H243859   0.136   6.137  14.367  0.3673 -1.5251 -2.0323
 7482TIP3   OH243860   3.725   2.217   3.300  0.3268 -0.0115 -0.3680
 7482TIP3    H143861   3.768   2.140   3.338  0.6161  0.4838  0.3229
 7482TIP3    H243862   3.636   2.189   3.282  1.0570 -1.2377 -2.3412
 7483TIP3   OH243863   6.170   6.124   6.480 -0.0614  0.1304  0.9767
 7483TIP3    H143864   6.219   6.205   6.460 -0.7161  0.5827  1.2033
 7483TIP3    H243865   6.109   6.150   6.549  1.5212 -1.1822  2.9268
 7484TIP3   OH243866   6.232   2.219  17.159  0.8222  0.6337 -0.3579
 7484TIP3    H143867   6.147   2.243  17.122  0.2080  0.5535  1.0088
 7484TIP3    H243868   6.224   2.126  17.179 -0.0153  1.4085  3.1127
 7485TIP3   OH243869   2.322   2.909   0.791 -0.1720  0.2159  0.1864
 7485TIP3    H143870   2.269   2.987   0.804 -2.7115 -1.4141 -0.1445
 7485TIP3    H243871   2.305   2.855   0.868  0.7045 -0.5005 -0.1128
 7486TIP3   OH243872   2.891   2.709  13.917  0.0706  0.4324 -0.2394
 7486TIP3    H143873   2.855   2.731  13.831  2.5065  0.9250 -1.1678
 7486TIP3    H243874   2.962   2.772  13.931  0.3850 -0.3005  1.6709
 7487TIP3   OH243875   1.864   3.891  14.178  0.2145 -0.5810  0.2359
 7487TIP3    H143876   1.793   3.846  14.133  0.7847 -0.2182 -1.0267
 7487TIP3    H243877   1.924   3.821  14.205 -0.0528 -0.7781  0.3273
 7488TIP3   OH243878   2.852   6.069   0.964  0.4280 -0.0331  0.0644
 7488TIP3    H143879   2.851   6.014   1.042  1.5725 -0.6223 -0.3122
 7488TIP3    H243880   2.945   6.087   0.950  0.0284  2.5630  0.5742
 7489TIP3   OH243881   2.442   0.626  14.541  0.0198  0.1232 -0.8537
 7489TIP3    H143882   2.511   0.599  14.480  1.4964  1.0146  0.3650
 7489TIP3    H243883   2.375   0.666  14.486  1.7987  1.8816 -1.8219
 7490TIP3   OH243884   2.741   3.983   0.564 -0.1390  0.6595 -0.0336
 7490TIP3    H143885   2.776   3.921   0.628 -1.0264  0.4158  0.2180
 7490TIP3    H243886   2.667   4.024   0.608 -0.6078  0.6661 -0.8179
 7491TIP3   OH243887   0.311   3.369  15.147  0.2726  0.1168  0.1795
 7491TIP3    H143888   0.403   3.378  15.122  0.0027  1.9778 -0.2351
 7491TIP3    H243889   0.296   3.441  15.208 -1.1693  0.4144 -0.5106
 7492TIP3   OH243890   1.191   4.489  12.808 -0.1634 -0.0169  0.8431
 7492TIP3    H143891   1.228   4.577  12.810 -0.3390  0.0913 -0.5821
 7492TIP3    H243892   1.099   4.501  12.832  0.1547 -0.0016  2.0884
 7493TIP3   OH243893   5.782   6.008  14.212 -0.3417 -0.3510 -0.3741
 7493TIP3    H143894   5.757   5.969  14.295 -1.8012  0.9437 -0.1987
 7493TIP3    H243895   5.837   6.083  14.235  0.7795 -1.0665 -0.6504
 7494TIP3   OH243896   1.816   1.766  15.280  0.6736 -0.3832  0.0802
 7494TIP3    H143897   1.801   1.837  15.218  0.1365 -0.4640  0.1099
 7494TIP3    H243898   1.799   1.804  15.366 -0.9158 -0.8839  0.0032
 7495TIP3   OH243899   2.305   1.322   2.871 -0.7590 -0.0503 -0.4985
 7495TIP3    H143900   2.281   1.372   2.793  0.5027 -0.1811 -0.9748
 7495TIP3    H243901   2.282   1.379   2.944 -0.9699  0.5047 -0.9942
 7496TIP3   OH243902   2.778   2.691   0.574 -0.3992  0.5434  0.0067
 7496TIP3    H143903   2.692   2.724   0.549 -0.3203 -0.1199 -1.1697
 7496TIP3    H243904   2.800   2.627   0.506 -0.1644 -1.2786  1.7713
 7497TIP3   OH243905   0.616   0.881   1.224 -0.0903 -0.4627 -0.5341
 7497TIP3    H143906   0.531   0.843   1.200 -0.2162 -0.9048  0.6025
 7497TIP3    H243907   0.618   0.878   1.319 -1.5311  5.5267 -0.1543
 7498TIP3   OH243908   6.330   1.178  13.425  0.3821  0.1924 -0.0264
 7498TIP3    H143909   6.419   1.144  13.417 -0.4465 -2.0331 -0.0288
 7498TIP3    H243910   6.306   1.161  13.516 -0.5699 -0.5730 -0.4089
 7499TIP3   OH243911   3.721   1.262   1.295  0.3527 -0.4542  0.1557
 7499TIP3    H143912   3.749   1.338   1.244 -1.6723 -1.4088 -2.4696
 7499TIP3    H243913   3.772   1.189   1.260 -1.2493 -1.1653 -0.7654
 7500TIP3   OH243914   6.438   3.880   3.026  0.2511  0.1382 -0.6648
 7500TIP3    H143915   6.429   3.824   2.949 -2.7749  0.8824 -0.9190
 7500TIP3    H243916   6.408   3.825   3.099  0.4650  0.3292 -0.4343
 7501TIP3   OH243917   5.869   2.888   0.973 -0.6124 -0.1293 -0.0685
 7501TIP3    H143918   5.955   2.919   1.000  0.0802 -2.0483  0.0488
 7501TIP3    H243919   5.888   2.811   0.918 -2.1812  0.6380 -1.7224
 7502TIP3   OH243920   6.588   3.920  11.859 -0.1516  0.3759  0.0643
 7502TIP3    H143921   6.530   3.856  11.901  1.0676 -0.4023  0.6030
 7502TIP3    H243922   6.632   3.871  11.789  0.6259  0.6709  0.3366
 7503TIP3   OH243923   2.460   4.056  17.097 -0.7335  0.4503 -0.4930
 7503TIP3    H143924   2.505   4.126  17.050  1.4163 -0.9171 -0.5663
 7503TIP3    H243925   2.435   3.994  17.028 -0.6631  0.0964 -0.1992
 7504TIP3   OH243926   4.140   0.141   4.659  0.2366 -0.0899  0.7234
 7504TIP3    H143927   4.179   0.146   4.747 -0.7481  1.4246  1.0843
 7504TIP3    H243928   4.067   0.203   4.662 -0.3865 -0.7402 -0.8739
 7505TIP3   OH243929   2.033   3.669  15.128  0.5172 -0.3191 -0.3913
 7505TIP3    H143930   2.026   3.744  15.187  0.3901 -0.8971  0.3230
 7505TIP3    H243931   2.126   3.647  15.128  0.5847 -0.0403 -0.7534
 7506TIP3   OH243932   0.324   3.102   2.763 -0.2317  0.0649 -0.3176
 7506TIP3    H143933   0.329   3.190   2.800  1.6490  0.2738 -1.0150
 7506TIP3    H243934   0.235   3.095   2.730 -0.8032  1.2198  0.9116
 7507TIP3   OH243935   5.596   0.138   3.823 -0.0482 -0.1158 -0.0731
 7507TIP3    H143936   5.518   0.123   3.770  1.3486 -0.8209 -1.9898
 7507TIP3    H243937   5.669   0.114   3.766  1.6064  1.0299  1.4897
 7508TIP3   OH243938   5.481   0.397  11.717 -0.2230  0.2461 -1.1899
 7508TIP3    H143939   5.494   0.428  11.807  1.4212 -0.6696 -1.0814
 7508TIP3    H243940   5.427   0.464  11.675 -0.2794  1.1041  0.2420
 7509TIP3   OH243941   3.404   1.815   5.406 -0.2519 -0.6044 -0.2854
 7509TIP3    H143942   3.455   1.895   5.399  0.2099 -0.8817 -0.0800
 7509TIP3    H243943   3.415   1.772   5.321  2.1876 -2.0637  0.7347
 7510TIP3   OH243944   3.572   0.379   3.352  0.2384 -0.1365 -0.2776
 7510TIP3    H143945   3.663   0.389   3.378  0.0915  0.7698 -0.0766
 7510TIP3    H243946   3.522   0.406   3.429 -0.2001 -0.5577 -0.4129
 7511TIP3   OH243947   4.262   0.707   2.589  0.0546  0.4284  0.3173
 7511TIP3    H143948   4.348   0.743   2.609 -0.7987  2.7995 -0.1739
 7511TIP3    H243949   4.200   0.766   2.630 -1.4157  0.0992 -1.3387
 7512TIP3   OH243950   4.125   1.492  15.632 -0.1730  0.5903  0.1569
 7512TIP3    H143951   4.121   1.566  15.572  0.5667  0.0280 -0.6068
 7512TIP3    H243952   4.119   1.415  15.575 -1.7576  0.0747  1.0063
 7513TIP3   OH243953   0.967   2.697  10.664 -0.1039  0.0021 -0.0363
 7513TIP3    H143954   1.055   2.721  10.637 -1.2412  1.8352 -2.2215
 7513TIP3    H243955   0.972   2.602  10.679  2.5783  0.3180  1.4078
 7514TIP3   OH243956   3.546   5.662  16.912  0.0106 -0.0471 -1.3372
 7514TIP3    H143957   3.532   5.573  16.881 -0.7426 -0.4934  0.2223
 7514TIP3    H243958   3.617   5.654  16.977  0.0395  0.5081 -1.2955
 7515TIP3   OH243959   2.559   1.983  12.564 -0.2084  0.2412  0.3679
 7515TIP3    H143960   2.611   1.935  12.629 -1.9899 -0.9496  0.9530
 7515TIP3    H243961   2.604   1.966  12.481  0.4408 -0.6309  0.8863
 7516TIP3   OH243962   6.095   2.450  16.960 -0.0894  0.2814  0.3387
 7516TIP3    H143963   6.068   2.358  16.962  3.0018 -0.7043 -0.3003
 7516TIP3    H243964   6.013   2.498  16.949 -1.8211 -2.3498  1.0736
 7517TIP3   OH243965   5.423   0.609   2.886 -0.0251 -0.1420  0.2713
 7517TIP3    H143966   5.439   0.549   2.814 -0.3819  0.2298 -0.1188
 7517TIP3    H243967   5.334   0.591   2.915 -0.3033  0.5096 -0.1535
 7518TIP3   OH243968   3.366   1.118  11.676  0.2687 -0.0912 -0.4813
 7518TIP3    H143969   3.321   1.089  11.755  1.3645  0.4954  0.3827
 7518TIP3    H243970   3.410   1.199  11.702 -0.6946  1.0139 -2.1475
 7519TIP3   OH243971   5.836   4.189  13.435 -0.1280  0.4852  0.2013
 7519TIP3    H143972   5.787   4.112  13.466 -1.6966  1.3150 -0.1505
 7519TIP3    H243973   5.928   4.162  13.438 -0.7519 -1.9237 -1.3533
 7520TIP3   OH243974   6.711   6.605   3.183 -0.2712  0.0009  0.0707
 7520TIP3    H143975   6.767   6.567   3.251 -0.5576 -0.7787 -0.1203
 7520TIP3    H243976   6.690   6.531   3.126  0.2008  0.7134 -1.0276
 7521TIP3   OH243977   3.297   1.883  12.347 -0.6693  0.2289 -0.2810
 7521TIP3    H143978   3.280   1.972  12.315 -2.8098 -0.3660 -0.8945
 7521TIP3    H243979   3.212   1.854  12.382 -0.3226 -2.0363 -1.2508
 7522TIP3   OH243980   3.039   0.896   2.182 -0.0441 -0.2628 -0.0174
 7522TIP3    H143981   3.038   0.808   2.144  0.6343  0.1740 -1.0586
 7522TIP3    H243982   3.024   0.882   2.275  0.4929 -1.5222 -0.1138
 7523TIP3   OH243983   1.376   1.064  15.656  0.5076  0.0043  0.0412
 7523TIP3    H143984   1.304   1.089  15.598  0.8633  3.3673  0.9218
 7523TIP3    H243985   1.333   1.034  15.736  0.0406 -3.4904 -1.4381
 7524TIP3   OH243986   3.252   2.157  11.919 -0.2919 -0.3554 -0.2211
 7524TIP3    H143987   3.321   2.103  11.880  0.4014  1.1095 -1.0409
 7524TIP3    H243988   3.288   2.182  12.005 -0.7080 -1.3562  0.2554
 7525TIP3   OH243989   5.322   4.796  13.233  0.0559  0.4644  0.0030
 7525TIP3    H143990   5.287   4.882  13.254 -0.7637  1.1165 -3.5781
 7525TIP3    H243991   5.327   4.750  13.316  0.1711  3.8420  1.9346
 7526TIP3   OH243992   3.472   3.705   0.651  0.3763  0.1380 -0.2532
 7526TIP3    H143993   3.431   3.628   0.612 -1.1500  1.0403 -0.4472
 7526TIP3    H243994   3.485   3.680   0.743 -0.5252 -0.2015 -0.2080
 7527TIP3   OH243995   1.959   4.227  13.381  0.6886 -0.0244  0.0536
 7527TIP3    H143996   2.040   4.180  13.399  0.6206 -0.3785 -0.5726
 7527TIP3    H243997   1.986   4.301  13.327  0.6591  0.1338  0.2514
 7528TIP3   OH243998   1.975   5.166   4.611  0.5743 -0.1825 -0.2656
 7528TIP3    H143999   1.924   5.148   4.533  0.6074 -4.7095  0.6555
 7528TIP3    H244000   1.914   5.152   4.684  1.5783  0.0710  0.6468
 7529TIP3   OH244001   5.066   0.337   0.663 -0.0782  0.3593  0.3845
 7529TIP3    H144002   5.022   0.416   0.694 -1.4304 -0.1402 -0.1957
 7529TIP3    H244003   4.994   0.275   0.646  0.9687 -1.0317  0.9570
 7530TIP3   OH244004   5.952   5.783  16.457  0.2438 -0.0227  0.3722
 7530TIP3    H144005   5.985   5.699  16.489  1.2625 -0.2482 -1.1972
 7530TIP3    H244006   6.025   5.818  16.405  0.1402  2.2280  1.7037
 7531TIP3   OH244007   2.486   1.314   1.013  0.0883 -0.0659 -0.5317
 7531TIP3    H144008   2.408   1.364   1.033  0.0961  0.1411 -1.0192
 7531TIP3    H244009   2.507   1.337   0.923  0.0345 -1.0172 -0.7919
 7532TIP3   OH244010   5.483   6.617  14.837 -0.0094 -0.0226 -0.1037
 7532TIP3    H144011   5.545   6.679  14.799 -0.9211  1.4059  0.7032
 7532TIP3    H244012   5.452   6.566  14.762 -0.0930  1.2499 -0.9561
 7533TIP3   OH244013   0.423   3.098   2.422 -0.6374  0.3178  0.4603
 7533TIP3    H144014   0.434   3.131   2.511  1.6334 -0.2531  0.4108
 7533TIP3    H244015   0.466   3.164   2.367 -1.4416  0.3221 -0.1773
 7534TIP3   OH244016   5.935   1.901   2.622 -0.5504  0.5234 -0.0290
 7534TIP3    H144017   5.898   1.929   2.706  0.1459 -2.0949  1.2066
 7534TIP3    H244018   5.868   1.843   2.585 -0.9499  1.8483 -1.3982
 7535TIP3   OH244019   3.148   2.165   2.426 -0.1655  0.3422 -0.8944
 7535TIP3    H144020   3.149   2.167   2.522  0.0559 -3.0730 -0.7793
 7535TIP3    H244021   3.058   2.183   2.402 -0.3003  0.8302 -0.0501
 7536TIP3   OH244022   2.857   0.012   2.248 -0.4811 -0.1538 -0.0954
 7536TIP3    H144023   2.846  -0.051   2.320 -3.1225 -1.4215 -1.5488
 7536TIP3    H244024   2.825  -0.034   2.171  0.3118  1.9661 -1.7311
 7537TIP3   OH244025   2.062   2.904   3.042 -0.6381  0.6115  0.1364
 7537TIP3    H144026   2.004   2.828   3.036 -0.6808  0.5307  1.4593
 7537TIP3    H244027   2.094   2.917   2.953  0.3450 -1.7351  0.1126
 7538TIP3   OH244028   0.726   6.729  15.036  0.1806  0.3076 -0.3878
 7538TIP3    H144029   0.676   6.764  15.110 -0.1899 -0.9391 -0.0329
 7538TIP3    H244030   0.781   6.660  15.075  0.1245 -0.2259 -1.2440
 7539TIP3   OH244031   3.472   0.736  12.730 -0.1194  0.0974  0.0625
 7539TIP3    H144032   3.439   0.658  12.686  1.2282  0.6339 -1.9712
 7539TIP3    H244033   3.446   0.725  12.821 -1.9289 -1.6159 -0.6318
 7540TIP3   OH244034   5.474   2.289  15.302  0.5596  0.2193  0.0176
 7540TIP3    H144035   5.499   2.204  15.265 -1.7399 -0.2752 -0.5317
 7540TIP3    H244036   5.449   2.269  15.393  0.4752  0.3762  0.0304
 7541TIP3   OH244037   1.939   4.174   1.945  0.3694  0.1227 -0.0808
 7541TIP3    H144038   1.984   4.159   1.862  0.1652  0.9606 -0.3460
 7541TIP3    H244039   1.933   4.087   1.985  1.8657 -0.0584 -0.2205
 7542TIP3   OH244040   0.212   4.152  13.434  0.1073  0.5252 -0.1507
 7542TIP3    H144041   0.163   4.091  13.379  0.6684 -0.3407  0.3003
 7542TIP3    H244042   0.278   4.190  13.375  1.1149 -0.8622  0.0481
 7543TIP3   OH244043   2.979   0.217   3.355 -0.4629 -0.3952 -0.4918
 7543TIP3    H144044   2.940   0.282   3.414 -0.8703 -2.1973  1.2551
 7543TIP3    H244045   3.073   0.226   3.370 -0.3875  1.2387 -1.8207
 7544TIP3   OH244046   6.531   3.235  14.070 -0.3659  0.5487  0.0673
 7544TIP3    H144047   6.482   3.205  13.994 -0.8467 -0.2566  0.6884
 7544TIP3    H244048   6.592   3.164  14.090 -0.6835  0.4804  0.8183
 7545TIP3   OH244049   6.465   4.611   2.269  0.6555 -0.0205  0.0567
 7545TIP3    H144050   6.435   4.529   2.308 -0.8041  0.4713  0.0165
 7545TIP3    H244051   6.552   4.625   2.306 -0.3401 -0.0013  2.5221
 7546TIP3   OH244052   4.492   4.391  13.866  0.1029  0.0289 -0.3395
 7546TIP3    H144053   4.533   4.319  13.914 -0.5307 -0.4697 -0.5471
 7546TIP3    H244054   4.514   4.375  13.775 -1.8728 -1.1133 -0.6299
 7547TIP3   OH244055   3.142   5.811   4.512 -0.8014 -0.6993 -0.9565
 7547TIP3    H144056   3.223   5.838   4.555 -0.3536 -1.5646 -1.2424
 7547TIP3    H244057   3.165   5.804   4.420 -1.2081 -0.9281 -1.0443
 7548TIP3   OH244058   0.277   4.251  10.856 -0.0430  0.4544 -0.7521
 7548TIP3    H144059   0.186   4.242  10.830  0.0598  2.2730 -1.8880
 7548TIP3    H244060   0.324   4.264  10.773  1.2013 -0.0964 -0.1519
 7549TIP3   OH244061   0.246   3.469   5.438 -0.0312 -0.1661  0.0378
 7549TIP3    H144062   0.189   3.489   5.364  1.2732  2.4134 -0.3225
 7549TIP3    H244063   0.287   3.385   5.414 -1.9932 -0.9400 -0.6863
 7550TIP3   OH244064   3.361   2.581  13.740  0.0543 -0.1387  0.2111
 7550TIP3    H144065   3.303   2.549  13.808  0.8718 -1.7516  0.1629
 7550TIP3    H244066   3.447   2.544  13.762  0.6267  0.4974 -0.9000
 7551TIP3   OH244067   3.084   5.766   2.388  0.2743  0.2820  0.4628
 7551TIP3    H144068   3.003   5.795   2.430  0.3618  0.4091  0.5443
 7551TIP3    H244069   3.150   5.830   2.416  0.0698  1.0814 -0.8714
 7552TIP3   OH244070   5.978   6.555  17.065 -0.0053  0.4365 -0.0994
 7552TIP3    H144071   6.028   6.612  17.006 -1.3479  0.1625 -1.5446
 7552TIP3    H244072   5.929   6.614  17.121 -1.5219  0.7395 -1.7016
 7553TIP3   OH244073   3.473   3.326  14.763  0.3994 -1.2589 -0.0600
 7553TIP3    H144074   3.451   3.331  14.856  0.0633 -0.3108 -0.1822
 7553TIP3    H244075   3.533   3.252  14.756  1.3577 -0.6104  1.0953
 7554TIP3   OH244076   2.227   0.079   1.002 -0.2974 -0.2469  0.8825
 7554TIP3    H144077   2.135   0.089   0.975  0.1733  0.3185 -0.5350
 7554TIP3    H244078   2.242  -0.016   0.999 -0.8291 -0.3448  1.1370
 7555TIP3   OH244079   2.948   4.094   3.322  0.3905  0.8312  0.3253
 7555TIP3    H144080   2.961   4.129   3.411  0.3013 -1.4840  1.2767
 7555TIP3    H244081   3.029   4.047   3.303  0.4569  1.4251 -0.8879
 7556TIP3   OH244082   3.963   2.484  12.978 -0.5736  0.4307 -0.1092
 7556TIP3    H144083   4.025   2.552  13.003 -1.3895  1.0083  0.3869
 7556TIP3    H244084   3.961   2.486  12.883  0.0440  0.5182 -0.1220
 7557TIP3   OH244085   0.842   2.093   1.638 -0.3102 -0.5237 -0.2724
 7557TIP3    H144086   0.837   2.129   1.727  3.0267 -0.3923 -0.0908
 7557TIP3    H244087   0.857   1.999   1.652 -0.6164 -0.6360 -0.7033
 7558TIP3   OH244088   5.559   6.384  16.570  0.0482 -0.2007 -0.3586
 7558TIP3    H144089   5.588   6.430  16.491  0.0642 -0.4779 -0.5169
 7558TIP3    H244090   5.535   6.454  16.631  1.2317  0.0245 -0.1521
 7559TIP3   OH244091   0.199   2.164   4.027  0.6957 -0.1809 -0.2303
 7559TIP3    H144092   0.170   2.253   4.047  0.8157  0.4730 -2.7600
 7559TIP3    H244093   0.265   2.144   4.093 -2.5598 -0.1490  3.1590
 7560TIP3   OH244094   2.726   0.848   0.436  0.0903 -0.0554  0.5458
 7560TIP3    H144095   2.662   0.860   0.366 -0.7492  0.3967  1.3816
 7560TIP3    H244096   2.747   0.755   0.435  0.1127 -0.0404 -0.3297
 7561TIP3   OH244097   0.919   4.579  12.831 -0.6925 -0.4393 -0.3233
 7561TIP3    H144098   0.893   4.526  12.907  0.5037 -1.7209 -0.8029
 7561TIP3    H244099   0.892   4.527  12.755 -3.1793  1.4713 -0.8342
 7562TIP3   OH244100   3.508   1.595   4.786 -0.0065  0.2547  0.3851
 7562TIP3    H144101   3.423   1.565   4.756  0.0019 -0.2460  0.8568
 7562TIP3    H244102   3.519   1.556   4.873 -0.6406  2.8341  1.6675
 7563TIP3   OH244103   3.676   5.947  15.475 -0.0340 -0.0601  0.3197
 7563TIP3    H144104   3.734   5.907  15.539 -0.2833  0.6499  1.0022
 7563TIP3    H244105   3.691   5.898  15.394 -0.3762 -1.5428  1.1396
 7564TIP3   OH244106   1.644   0.265   0.391  0.2122  0.2649 -0.5840
 7564TIP3    H144107   1.662   0.345   0.441 -1.0126  0.0529  0.2129
 7564TIP3    H244108   1.635   0.296   0.300 -1.6771  1.2509 -0.0876
 7565TIP3   OH244109   5.826   6.432   1.418 -0.5532 -0.3603  0.0992
 7565TIP3    H144110   5.786   6.503   1.468 -0.6559 -0.2868 -0.0819
 7565TIP3    H244111   5.832   6.466   1.329  1.4504  0.2426  0.4397
 7566TIP3   OH244112   6.496   0.991  11.158 -0.2042  0.3657  0.4539
 7566TIP3    H144113   6.482   1.048  11.233  0.1098  0.2415  0.6053
 7566TIP3    H244114   6.412   0.993  11.111 -0.8642 -0.6846  1.5726
 7567TIP3   OH244115   3.384   5.317  16.276 -0.6448  0.1801  0.0027
 7567TIP3    H144116   3.401   5.384  16.342 -2.3026  0.3826  0.2451
 7567TIP3    H244117   3.311   5.351  16.225  0.4230 -0.1023 -1.7721
 7568TIP3   OH244118   4.246   1.682   3.218  0.5493 -0.5920  0.3867
 7568TIP3    H144119   4.177   1.716   3.275 -0.2748 -2.3457  0.4685
 7568TIP3    H244120   4.231   1.588   3.215  1.5624 -0.7283 -1.4482
 7569TIP3   OH244121   0.063   0.441   4.072 -0.4713 -0.5672 -0.0282
 7569TIP3    H144122   0.154   0.471   4.064 -0.0999 -1.8705 -0.7918
 7569TIP3    H244123   0.011   0.518   4.049  0.4559 -0.0791 -0.5504
 7570TIP3   OH244124   3.424   4.963  14.079 -0.7712 -0.5029 -0.7382
 7570TIP3    H144125   3.496   4.929  14.025  1.9158  0.2915  2.1535
 7570TIP3    H244126   3.424   5.057  14.062 -0.0508 -0.2783  0.3956
 7571TIP3   OH244127   0.296   6.229  15.453  0.2771 -0.3495 -0.8031
 7571TIP3    H144128   0.291   6.134  15.465  0.8998  0.0178  3.1979
 7571TIP3    H244129   0.383   6.253  15.484 -0.6687  1.7312  0.3878
 7572TIP3   OH244130   3.194   5.065   5.544  0.2745  1.0095  0.3742
 7572TIP3    H144131   3.225   5.030   5.460 -0.5302  1.1404  0.0158
 7572TIP3    H244132   3.271   5.062   5.601  1.1628  2.0632 -0.7283
 7573TIP3   OH244133   0.841   1.393   3.633 -0.1669 -0.1692 -0.3132
 7573TIP3    H144134   0.801   1.310   3.605 -0.4783 -0.3114  0.5381
 7573TIP3    H244135   0.768   1.444   3.668  0.3435 -0.3501  1.0594
 7574TIP3   OH244136   0.104   2.937   0.235 -0.4194 -0.5377 -0.1311
 7574TIP3    H144137   0.062   2.965   0.317 -0.6609  0.3196 -0.5347
 7574TIP3    H244138   0.137   3.019   0.197  3.1391 -1.3747  1.0098
 7575TIP3   OH244139   1.982   4.721  13.182  0.2239  0.7489 -0.1643
 7575TIP3    H144140   2.028   4.804  13.169  1.1849  0.0692 -1.2159
 7575TIP3    H244141   1.890   4.743  13.171  0.3041  2.0327  1.4834
 7576TIP3   OH244142   2.002   4.426  13.772  0.2852  0.1973 -0.2743
 7576TIP3    H144143   1.922   4.433  13.719 -0.0963  0.7340  0.3747
 7576TIP3    H244144   2.069   4.400  13.709 -0.3900 -0.2244 -0.8325
 7577TIP3   OH244145   0.070   5.535  16.217  0.6318  0.0321 -0.4150
 7577TIP3    H144146   0.031   5.614  16.254  0.6011 -0.1700 -0.0192
 7577TIP3    H244147   0.164   5.546  16.231  0.5594 -0.4282  0.4822
 7578TIP3   OH244148   2.550   1.114   1.540 -0.0659  0.1509  0.0787
 7578TIP3    H144149   2.516   1.202   1.555 -0.2446 -0.1459  1.4136
 7578TIP3    H244150   2.501   1.082   1.465 -0.2881  1.0332 -0.1583
 7579TIP3   OH244151   2.734   1.556  12.453  0.2003 -0.1415  0.6201
 7579TIP3    H144152   2.748   1.572  12.546 -0.2395 -0.3516  0.7191
 7579TIP3    H244153   2.806   1.498  12.428 -1.1713 -2.2494  1.4186
 7580TIP3   OH244154   1.186   0.865   2.352  0.0089  0.2408 -0.6776
 7580TIP3    H144155   1.097   0.830   2.358  0.2048 -0.1175  0.1931
 7580TIP3    H244156   1.223   0.825   2.274  0.1999 -1.4289  0.2566
 7581TIP3   OH244157   1.229   3.922  14.407  0.8825  0.1831 -0.4341
 7581TIP3    H144158   1.156   3.983  14.394  0.9999  0.3208 -0.4465
 7581TIP3    H244159   1.187   3.842  14.438  0.6774  0.1092 -0.8960
 7582TIP3   OH244160   0.324   4.047  11.922  0.3699  0.1872  0.0410
 7582TIP3    H144161   0.233   4.075  11.914  1.0972  2.6879  0.2376
 7582TIP3    H244162   0.320   3.952  11.915 -2.1329  0.3308 -1.0447
 7583TIP3   OH244163   3.732   6.567  12.363  0.2525  0.2729 -0.1703
 7583TIP3    H144164   3.787   6.633  12.406 -0.2944 -0.2350  1.3551
 7583TIP3    H244165   3.795   6.504  12.328  0.6806 -0.2464  1.4649
 7584TIP3   OH244166   3.246   1.892   0.933  0.0433  0.1355 -0.2898
 7584TIP3    H144167   3.168   1.917   0.983  0.2349 -0.9797  0.6040
 7584TIP3    H244168   3.266   1.969   0.880 -2.0536  0.2050 -1.0370
 7585TIP3   OH244169   1.516   3.737   3.569 -0.0498 -0.0818  0.2496
 7585TIP3    H144170   1.499   3.829   3.550  0.6314 -0.4522 -2.3409
 7585TIP3    H244171   1.605   3.736   3.605  0.4576  0.1190 -0.9995
 7586TIP3   OH244172   0.108   6.543   2.895 -0.0544  0.5442  0.4084
 7586TIP3    H144173   0.200   6.558   2.917 -0.5260  1.6046  1.7241
 7586TIP3    H244174   0.110   6.519   2.802  1.7024 -1.1268  0.8270
 7587TIP3   OH244175   3.683   0.416   6.289 -0.4879  0.3168 -0.0956
 7587TIP3    H144176   3.738   0.339   6.305 -1.3207  0.1954  2.4176
 7587TIP3    H244177   3.597   0.381   6.265 -0.5778  0.4781 -0.0140
 7588TIP3   OH244178   6.248   2.319  15.777  0.5245  0.7405  0.1573
 7588TIP3    H144179   6.165   2.360  15.799  0.5121 -0.1319  1.8970
 7588TIP3    H244180   6.265   2.259  15.850  1.1943 -1.3375 -1.6411
 7589TIP3   OH244181   6.258   1.911  14.447 -0.2744 -0.5819 -0.4441
 7589TIP3    H144182   6.232   1.949  14.531  0.7942 -2.4855  0.7943
 7589TIP3    H244183   6.185   1.930  14.389 -0.5071  1.8253  0.5767
 7590TIP3   OH244184   4.664   1.194  13.478 -0.2785  0.5715 -0.6986
 7590TIP3    H144185   4.601   1.137  13.433 -1.6393  1.1116  0.4658
 7590TIP3    H244186   4.620   1.217  13.561  0.5677  2.6615 -0.8023
 7591TIP3   OH244187   6.646   1.713   5.119 -0.2164 -0.1295 -0.6191
 7591TIP3    H144188   6.641   1.808   5.131 -0.3270 -0.2130 -0.0214
 7591TIP3    H244189   6.700   1.702   5.040  0.0097  0.4198 -0.5438
 7592TIP3   OH244190   4.037   2.729  11.050  0.1402 -0.1217  0.1433
 7592TIP3    H144191   4.032   2.817  11.085  0.8001 -0.5332  1.2934
 7592TIP3    H244192   4.067   2.740  10.960 -3.5465  1.0785 -1.0114
 7593TIP3   OH244193   6.150   3.704  14.082 -0.4105  0.0220  0.0431
 7593TIP3    H144194   6.059   3.690  14.106 -0.4081  0.8035  0.5134
 7593TIP3    H244195   6.193   3.732  14.163  0.4571 -1.2670  0.0536
 7594TIP3   OH244196   3.687   2.188   5.721  0.0122  0.5928  0.3869
 7594TIP3    H144197   3.617   2.176   5.785 -1.3259 -0.0312 -1.1602
 7594TIP3    H244198   3.652   2.253   5.660  0.5024 -0.2383 -0.7832
 7595TIP3   OH244199   1.830   6.669   0.757  0.0141  0.6844 -0.8482
 7595TIP3    H144200   1.834   6.581   0.720  0.4997  0.5191 -0.3938
 7595TIP3    H244201   1.881   6.723   0.696  0.2876  0.5273 -0.7573
 7596TIP3   OH244202   3.332   2.817  14.906  0.5137 -0.9882 -0.0671
 7596TIP3    H144203   3.386   2.826  14.827 -0.7258 -0.5349 -0.8854
 7596TIP3    H244204   3.372   2.875  14.970  0.9188 -0.5587 -0.7080
 7597TIP3   OH244205   2.550   4.874  14.040  0.2423  0.5883 -0.5310
 7597TIP3    H144206   2.547   4.942  14.108 -1.2136  1.6918 -1.6621
 7597TIP3    H244207   2.643   4.865  14.021  0.4953  2.0016 -0.0831
 7598TIP3   OH244208   5.802   4.356  12.915 -0.4618 -0.3745  0.4472
 7598TIP3    H144209   5.724   4.411  12.910 -0.6356 -0.6686 -0.1283
 7598TIP3    H244210   5.780   4.288  12.978 -0.0831  0.4677  1.5106
 7599TIP3   OH244211   3.376   6.031   1.501  0.2441 -0.2926  0.2162
 7599TIP3    H144212   3.416   5.989   1.577  0.8047 -0.6802 -0.2949
 7599TIP3    H244213   3.450   6.065   1.451 -0.2091  1.8828  0.9442
 7600TIP3   OH244214   2.010   2.174   0.799  0.3078 -0.0734 -0.3053
 7600TIP3    H144215   2.023   2.118   0.722  1.0234  3.5429 -2.9463
 7600TIP3    H244216   1.932   2.225   0.779  0.6835  1.1591  1.2815
 7601TIP3   OH244217   5.555   4.764  12.830 -0.5713  0.7202  0.4181
 7601TIP3    H144218   5.577   4.831  12.895  1.1135 -0.0340  0.6378
 7601TIP3    H244219   5.494   4.808  12.771 -0.3448  2.1096  1.1909
 7602TIP3   OH244220   1.986   5.500  13.212 -0.2162 -0.8053 -0.2318
 7602TIP3    H144221   1.894   5.525  13.222  0.6970  1.8907  2.1297
 7602TIP3    H244222   2.000   5.432  13.277 -0.1032  0.1551  0.7689
 7603TIP3   OH244223   0.317   1.688   4.553 -0.1917  0.0659 -0.2068
 7603TIP3    H144224   0.226   1.660   4.541 -0.6560  1.4526  0.0164
 7603TIP3    H244225   0.367   1.607   4.554 -1.4585 -0.7216 -0.0628
 7604TIP3   OH244226   2.048   1.328  14.217 -0.1627  0.7879  0.3310
 7604TIP3    H144227   1.964   1.293  14.186  0.6599 -0.1948 -0.8696
 7604TIP3    H244228   2.079   1.263  14.280 -0.2355  1.0693  0.6556
 7605TIP3   OH244229   1.944   2.414  11.816  0.0213  0.4079 -0.0624
 7605TIP3    H144230   1.907   2.409  11.728  1.6011 -0.1558 -0.7132
 7605TIP3    H244231   1.899   2.345  11.865  0.4442 -0.5093 -0.9462
 7606TIP3   OH244232   4.692   5.019  14.622  0.3573  0.3839  0.2314
 7606TIP3    H144233   4.689   4.928  14.594  1.9610  0.1592  0.7417
 7606TIP3    H244234   4.776   5.052  14.591 -0.6481  2.0016 -0.8407
 7607TIP3   OH244235   2.317   4.475   6.137  0.1229 -0.5774 -0.1957
 7607TIP3    H144236   2.231   4.489   6.176  0.2530 -1.3098  0.3649
 7607TIP3    H244237   2.377   4.468   6.211  0.7358  0.3005 -0.5910
 7608TIP3   OH244238   5.682   5.186  14.979  0.5803  0.2405  0.0894
 7608TIP3    H144239   5.637   5.160  14.899  0.5981 -1.3135  0.5693
 7608TIP3    H244240   5.772   5.200  14.952  0.6580 -0.6091 -0.1026
 7609TIP3   OH244241   4.681   0.253  16.706 -0.1005  0.0689  0.2406
 7609TIP3    H144242   4.595   0.221  16.681 -0.3360  0.5511  0.4343
 7609TIP3    H244243   4.666   0.305  16.784  0.5031 -0.6659  0.8649
 7610TIP3   OH244244   1.640   6.634  16.476 -0.0039  0.0782  0.0503
 7610TIP3    H144245   1.682   6.683  16.547  0.4262 -1.0305  0.5777
 7610TIP3    H244246   1.712   6.586  16.435 -0.6666 -1.5004  0.6801
 7611TIP3   OH244247   5.747   4.817   2.832  0.0335 -0.0849 -0.0474
 7611TIP3    H144248   5.696   4.845   2.908  0.2383 -0.3046  0.1730
 7611TIP3    H244249   5.707   4.862   2.757 -0.2635  0.0117  0.1716
 7612TIP3   OH244250   1.837   1.522  11.346 -0.1144  0.3779 -0.0051
 7612TIP3    H144251   1.925   1.543  11.376 -0.9491  3.7348  0.3380
 7612TIP3    H244252   1.844   1.521  11.250  0.6141 -1.0859  0.0441
 7613TIP3   OH244253   6.378   1.564   3.757  0.5059  0.0211  0.1880
 7613TIP3    H144254   6.350   1.501   3.691 -0.2348 -0.0771  0.5861
 7613TIP3    H244255   6.468   1.586   3.733  0.6065 -0.8227 -0.2299
 7614TIP3   OH244256   3.287   4.086  15.407 -0.0633  0.0304 -0.5366
 7614TIP3    H144257   3.321   4.023  15.470  0.9317  0.0872 -1.0076
 7614TIP3    H244258   3.250   4.033  15.337  0.0262 -0.0296 -0.5394
 7615TIP3   OH244259   4.800   2.417  15.952 -0.6927  0.1257 -0.6052
 7615TIP3    H144260   4.874   2.388  16.005 -1.9602 -0.9270  0.6247
 7615TIP3    H244261   4.836   2.427  15.864  0.9260 -0.2962 -0.0125
 7616TIP3   OH244262   4.270   3.445   3.157 -0.3451 -0.0349 -0.2646
 7616TIP3    H144263   4.321   3.526   3.159 -0.3006  0.0138 -2.5862
 7616TIP3    H244264   4.264   3.419   3.249  2.2193  0.9869  0.2471
 7617TIP3   OH244265   1.543   2.437   1.247  0.4961  0.0014 -0.5457
 7617TIP3    H144266   1.593   2.449   1.328 -0.0907 -1.2146  0.0178
 7617TIP3    H244267   1.473   2.376   1.272 -0.3016  0.4378 -1.7171
 7618TIP3   OH244268   4.768   3.279  14.064  0.1221  0.0281  0.0998
 7618TIP3    H144269   4.751   3.198  14.017 -0.7789 -0.6376  1.5598
 7618TIP3    H244270   4.846   3.261  14.116  1.3628  0.8957 -1.3895
 7619TIP3   OH244271   3.592   4.339  16.825 -0.5645 -0.0256 -0.5230
 7619TIP3    H144272   3.538   4.326  16.903  0.2079 -0.1322  0.0025
 7619TIP3    H244273   3.646   4.416  16.846 -0.5843  0.1436 -1.0815
 7620TIP3   OH244274   1.470   3.971   3.413  0.1003 -0.0426 -0.6113
 7620TIP3    H144275   1.414   3.980   3.336 -0.6749  2.7759  0.2070
 7620TIP3    H244276   1.559   3.982   3.380 -0.2296  1.2218 -1.1022
 7621TIP3   OH244277   5.081   0.569  12.550 -0.8661 -0.0789  0.6899
 7621TIP3    H144278   5.049   0.648  12.508 -2.0253  0.3615  2.3535
 7621TIP3    H244279   5.154   0.598  12.605  0.7569 -0.6790 -1.0559
 7622TIP3   OH244280   3.805   2.134   2.322 -0.2766 -0.4332 -0.1414
 7622TIP3    H144281   3.897   2.126   2.348 -0.1144  0.5768 -0.3742
 7622TIP3    H244282   3.785   2.050   2.281  0.1380 -1.1697  1.1309
 7623TIP3   OH244283   3.219   1.437   1.855  0.0001  0.3336 -0.7312
 7623TIP3    H144284   3.252   1.522   1.827 -1.7183  1.3737  0.2519
 7623TIP3    H244285   3.187   1.395   1.774  2.7295 -0.2855 -1.5283
 7624TIP3   OH244286   0.263   5.671   5.043 -0.2745  0.2665 -0.5001
 7624TIP3    H144287   0.300   5.614   5.111  0.1287  1.3571  0.2142
 7624TIP3    H244288   0.334   5.733   5.022 -1.5759  2.2373  0.7263
 7625TIP3   OH244289   4.013   2.948   1.367  0.2449 -0.4072  0.0895
 7625TIP3    H144290   4.017   3.036   1.331 -2.1128  0.0121  0.8122
 7625TIP3    H244291   4.100   2.912   1.350  1.5617  2.3702  0.6478
 7626TIP3   OH244292   6.291   5.800  12.574  0.1285 -0.1901 -0.4662
 7626TIP3    H144293   6.381   5.811  12.544  0.4436 -0.1907  0.4810
 7626TIP3    H244294   6.288   5.711  12.609  0.1524  0.3236  0.8657
 7627TIP3   OH244295   3.868   5.749  13.834  0.5634  0.1606 -0.3964
 7627TIP3    H144296   3.948   5.762  13.885 -1.0545 -0.1270  2.2518
 7627TIP3    H244297   3.856   5.654  13.831  0.5484  0.1809 -1.1714
 7628TIP3   OH244298   0.029   1.376  11.511  0.2277  0.5344  0.4953
 7628TIP3    H144299  -0.059   1.370  11.474 -0.0184  0.8512  1.0203
 7628TIP3    H244300   0.053   1.286  11.533  0.9433  0.1638 -1.7240
 7629TIP3   OH244301   3.730   1.291   2.040 -0.3396 -0.0727 -0.2625
 7629TIP3    H144302   3.648   1.299   2.089 -1.0255 -4.0803 -0.5995
 7629TIP3    H244303   3.704   1.255   1.956  1.5382  0.9765 -1.3192
 7630TIP3   OH244304   5.794   5.495  11.985  0.3454 -0.3957  0.5213
 7630TIP3    H144305   5.839   5.569  12.025 -0.1041 -0.4015  1.0526
 7630TIP3    H244306   5.761   5.529  11.902  3.5134 -1.1034 -1.0803
 7631TIP3   OH244307   2.459   3.169   2.741 -0.1260  0.0815  0.2095
 7631TIP3    H144308   2.393   3.119   2.692 -0.2710 -0.8204  1.3080
 7631TIP3    H244309   2.495   3.106   2.803  1.2972  0.7531  0.0749
 7632TIP3   OH244310   3.698   5.066  16.349  0.1371 -0.3824  0.2641
 7632TIP3    H144311   3.794   5.061  16.343 -0.1192 -2.6499 -2.7821
 7632TIP3    H244312   3.669   4.975  16.350 -2.0542  0.2921 -0.0708
 7633TIP3   OH244313   3.398   3.646  16.980 -0.3424 -0.2800 -0.0087
 7633TIP3    H144314   3.303   3.652  16.988 -0.3267  0.1714 -0.1518
 7633TIP3    H244315   3.416   3.665  16.888 -0.1446 -0.7307 -0.0642
 7634TIP3   OH244316   5.239   0.444  15.651  0.5045 -0.1857 -0.2002
 7634TIP3    H144317   5.282   0.361  15.673  0.0175 -0.8665 -1.7551
 7634TIP3    H244318   5.184   0.423  15.576  0.4599  1.5898 -0.6759
 7635TIP3   OH244319   6.308   3.968   4.688  0.0018 -0.4312 -0.0130
 7635TIP3    H144320   6.392   3.987   4.731 -0.5793 -1.5335  1.6730
 7635TIP3    H244321   6.294   3.875   4.705 -1.0659 -0.4931 -1.1892
 7636TIP3   OH244322   1.862   5.724   4.611 -0.3889  0.3866  0.1808
 7636TIP3    H144323   1.873   5.629   4.601 -2.1305  0.4691 -3.4426
 7636TIP3    H244324   1.875   5.740   4.704  2.7768 -3.0048  0.4341
 7637TIP3   OH244325   3.348   2.604  15.712  0.1602  0.0893 -0.0874
 7637TIP3    H144326   3.401   2.684  15.710  0.0077  0.1794 -1.1191
 7637TIP3    H244327   3.278   2.621  15.649  2.3315 -2.3417 -3.3309
 7638TIP3   OH244328   5.085   3.136   2.164  0.6277 -0.0110 -0.0398
 7638TIP3    H144329   5.002   3.099   2.134  0.6360 -0.0734  0.0130
 7638TIP3    H244330   5.074   3.230   2.155  0.4799 -0.0095  0.1468
 7639TIP3   OH244331   3.465   2.351   1.846  0.1879  0.1302  0.3117
 7639TIP3    H144332   3.450   2.400   1.926  1.3081  2.0487 -0.6353
 7639TIP3    H244333   3.377   2.330   1.814 -0.2610 -0.2958  1.8062
 7640TIP3   OH244334   1.251   1.359   2.687 -0.0129 -0.4366  0.3438
 7640TIP3    H144335   1.345   1.377   2.678  0.0279 -0.3806  0.9143
 7640TIP3    H244336   1.213   1.398   2.608  0.2659  0.8088  0.8146
 7641TIP3   OH244337   5.744   2.408  15.065 -0.2285  0.5829  0.2722
 7641TIP3    H144338   5.724   2.497  15.092 -0.7608 -0.0291  1.9250
 7641TIP3    H244339   5.659   2.370  15.042 -0.2665 -0.1857  1.6801
 7642TIP3   OH244340   3.629   5.714   6.235  0.1078  0.4052  0.1113
 7642TIP3    H144341   3.636   5.779   6.304  1.3774  0.1819  0.2110
 7642TIP3    H244342   3.619   5.631   6.281 -3.4952  0.6777 -0.0206
 7643TIP3   OH244343   6.671   1.650  11.751  0.1980 -0.2877  0.2740
 7643TIP3    H144344   6.688   1.605  11.834  0.6040  0.2907  0.5059
 7643TIP3    H244345   6.726   1.728  11.754  0.7446 -0.6213 -0.8546
 7644TIP3   OH244346   5.723   6.207   1.528  0.3090  0.6393  0.0107
 7644TIP3    H144347   5.737   6.289   1.480  0.2641 -0.7105 -2.3740
 7644TIP3    H244348   5.801   6.154   1.509  0.2456  0.0168  1.3736
 7645TIP3   OH244349   1.610   5.270  17.233 -0.1573  0.0252  0.2492
 7645TIP3    H144350   1.536   5.210  17.245 -0.1294 -0.1229 -0.3126
 7645TIP3    H244351   1.618   5.315  17.317 -1.3422  0.5737  0.0797
 7646TIP3   OH244352   1.304   4.654   5.662  0.0525  0.2124  0.1262
 7646TIP3    H144353   1.317   4.714   5.736 -1.5935 -0.2346  0.8074
 7646TIP3    H244354   1.279   4.571   5.703  2.6967 -1.0990 -0.7803
 7647TIP3   OH244355   4.590   2.363   2.777 -0.0523  0.2043 -0.4498
 7647TIP3    H144356   4.561   2.282   2.735 -3.4470  1.7183 -1.2016
 7647TIP3    H244357   4.593   2.342   2.870 -3.1066 -0.2298 -0.3991
 7648TIP3   OH244358   2.653   2.238   3.155  0.0624 -0.2219 -0.2407
 7648TIP3    H144359   2.670   2.298   3.083 -0.4118 -1.3413 -1.3047
 7648TIP3    H244360   2.563   2.259   3.183  0.1785  0.0871 -0.1027
 7649TIP3   OH244361   3.336   2.354   5.272  0.2264 -0.0021  0.2368
 7649TIP3    H144362   3.316   2.441   5.305  1.0638  0.1587  0.3377
 7649TIP3    H244363   3.419   2.331   5.314  1.1364  0.0661 -1.4946
 7650TIP3   OH244364   4.171   6.523   4.828 -0.0727 -0.2438 -0.4641
 7650TIP3    H144365   4.086   6.567   4.827 -0.2860 -0.6335  0.1135
 7650TIP3    H244366   4.219   6.561   4.754 -0.7714 -0.0646 -0.8299
 7651TIP3   OH244367   0.857   3.739   1.199  0.0799 -0.0638 -0.5752
 7651TIP3    H144368   0.927   3.688   1.240 -0.2551 -0.3481 -0.3532
 7651TIP3    H244369   0.818   3.789   1.271  1.1677  1.4070 -0.9873
 7652TIP3   OH244370   6.159   3.920   5.923  0.3805  0.4300  0.4431
 7652TIP3    H144371   6.112   3.919   6.006  0.7601 -0.1857  0.6501
 7652TIP3    H244372   6.236   3.975   5.939  0.8278 -0.2687  0.7053
 7653TIP3   OH244373   4.506   6.777  16.934  0.5262  0.9309  0.6223
 7653TIP3    H144374   4.544   6.725  16.864  3.2010  1.6538  1.4872
 7653TIP3    H244375   4.453   6.714  16.984 -1.9927  0.5589 -2.3674
 7654TIP3   OH244376   6.433   1.144  11.397  0.4851 -0.0074 -0.2948
 7654TIP3    H144377   6.468   1.197  11.469 -0.9025 -0.3534  0.6579
 7654TIP3    H244378   6.350   1.186  11.375 -1.0963 -2.2852  1.1064
 7655TIP3   OH244379   2.664   5.137  17.152  0.2772  0.0327  0.2550
 7655TIP3    H144380   2.615   5.111  17.230 -1.6684  2.0914 -0.2275
 7655TIP3    H244381   2.657   5.233  17.150  0.3181  0.0169 -2.4211
 7656TIP3   OH244382   4.516   2.787  11.022  0.2826 -0.1931  0.3510
 7656TIP3    H144383   4.584   2.796  10.956 -0.2922 -0.1439 -0.2414
 7656TIP3    H244384   4.442   2.838  10.988  0.2717  0.5376  1.4261
 7657TIP3   OH244385   2.878   1.362  13.107 -0.1778 -0.1097  0.7320
 7657TIP3    H144386   2.901   1.455  13.102 -0.3859 -0.1367 -0.8103
 7657TIP3    H244387   2.802   1.353  13.051 -0.1424 -1.2244  0.8594
 7658TIP3   OH244388   4.945   2.076   0.382  0.9849  0.0136 -0.6173
 7658TIP3    H144389   4.983   2.074   0.295  0.3970  1.0030 -0.9050
 7658TIP3    H244390   4.928   2.169   0.399 -0.6373 -0.3312 -0.2294
 7659TIP3   OH244391   2.701   0.736  12.249  0.1013  0.2036 -0.2148
 7659TIP3    H144392   2.759   0.683  12.303 -1.1601 -2.0970 -1.0481
 7659TIP3    H244393   2.620   0.743  12.301  0.3393  1.5284 -0.0065
 7660TIP3   OH244394   1.096   0.058   5.449  0.1810 -0.5075  0.2040
 7660TIP3    H144395   1.169  -0.000   5.426  0.3904 -0.2513  0.2218
 7660TIP3    H244396   1.128   0.109   5.523 -0.3145 -0.9716  0.7503
 7661TIP3   OH244397   0.756   2.763   2.287  0.0156 -0.8030  0.0644
 7661TIP3    H144398   0.733   2.698   2.353 -1.2102  1.6089  2.1533
 7661TIP3    H244399   0.671   2.798   2.259  0.6759  0.6805 -0.1300
 7662TIP3   OH244400   0.910   0.986   3.357  0.1551  0.6532  0.5088
 7662TIP3    H144401   1.004   0.970   3.359  0.3795  1.7143 -0.5398
 7662TIP3    H244402   0.872   0.918   3.413  1.3812 -0.9479 -0.5610
 7663TIP3   OH244403   2.467   3.345  11.659  0.2634  0.4314 -0.1059
 7663TIP3    H144404   2.421   3.310  11.582  1.4600  1.5456 -1.3673
 7663TIP3    H244405   2.522   3.415  11.623 -0.8290  2.4665  2.0910
 7664TIP3   OH244406   6.383   3.388  15.177 -0.4194  0.1351  0.1324
 7664TIP3    H144407   6.328   3.456  15.217 -1.1571 -0.6134  0.3993
 7664TIP3    H244408   6.321   3.330  15.133  0.1675 -0.6864  0.3864
 7665TIP3   OH244409   1.952   2.217   5.613  0.7401  0.1862 -0.4698
 7665TIP3    H144410   1.994   2.258   5.538 -0.5794 -0.8445 -1.8072
 7665TIP3    H244411   1.865   2.257   5.617  0.1325 -1.0853 -0.6348
 7666TIP3   OH244412   3.354   0.487   4.975 -0.3165 -0.2583 -0.1577
 7666TIP3    H144413   3.283   0.424   4.958  0.8095 -1.4000 -0.6998
 7666TIP3    H244414   3.434   0.441   4.948  0.5972  1.1550  0.0971
 7667TIP3   OH244415   0.706   0.984  12.099  0.4900 -0.3249 -0.5064
 7667TIP3    H144416   0.665   0.922  12.038 -0.6380  0.8536 -0.9553
 7667TIP3    H244417   0.680   1.070  12.067  0.8844  0.3476  0.9551
 7668TIP3   OH244418   4.825   3.125   5.832 -0.4017 -0.6522  0.3520
 7668TIP3    H144419   4.790   3.043   5.797  1.3265 -1.5553  0.7125
 7668TIP3    H244420   4.890   3.099   5.896  1.0453  1.0033 -0.3862
 7669TIP3   OH244421   3.360   4.498  14.927 -0.3209  0.0727  0.0098
 7669TIP3    H144422   3.402   4.419  14.893 -0.1427  1.0204 -2.0926
 7669TIP3    H244423   3.274   4.498  14.884 -0.8516  0.3108  1.0639
 7670TIP3   OH244424   6.324   5.150   0.120  0.1642  0.1104  0.4556
 7670TIP3    H144425   6.347   5.109   0.037  0.7123 -0.2235  0.7666
 7670TIP3    H244426   6.408   5.157   0.167 -0.1721  0.1272  1.0550
 7671TIP3   OH244427   4.253   2.540  15.331 -0.3996 -0.7958 -0.5428
 7671TIP3    H144428   4.283   2.462  15.285 -0.2887 -1.4701  0.6393
 7671TIP3    H244429   4.177   2.511  15.382 -0.8874  0.0679 -0.7675
 7672TIP3   OH244430   1.403   3.169  13.602  0.2916 -0.1328 -0.4215
 7672TIP3    H144431   1.337   3.173  13.533 -1.1743  0.0322  0.9554
 7672TIP3    H244432   1.454   3.249  13.592 -1.6606  1.2435  0.3568
 7673TIP3   OH244433   6.513   2.625  13.696 -0.0371  0.0906  0.1261
 7673TIP3    H144434   6.531   2.530  13.693  1.2145  0.3524 -3.0120
 7673TIP3    H244435   6.581   2.660  13.754  1.1929 -0.6387 -0.8379
 7674TIP3   OH244436   6.033   2.453  12.108 -0.2326 -0.0229  0.1268
 7674TIP3    H144437   6.119   2.446  12.149  0.1875 -1.8355 -1.0161
 7674TIP3    H244438   5.993   2.367  12.122 -1.6469  0.6417  0.1902
 7675TIP3   OH244439   1.460   0.801  16.444 -0.3493 -0.1570 -0.1234
 7675TIP3    H144440   1.551   0.820  16.469 -1.0261  1.2680  1.3710
 7675TIP3    H244441   1.465   0.780  16.351  1.4248  0.6111 -0.2283
 7676TIP3   OH244442   1.552   1.075  12.510 -0.8253  0.3903  0.6347
 7676TIP3    H144443   1.596   1.114  12.586 -0.5730 -0.5894  0.9998
 7676TIP3    H244444   1.479   1.134  12.491  1.3688  2.8048 -0.7904
 7677TIP3   OH244445   5.699   2.385  14.654  0.1257 -0.3103 -0.1135
 7677TIP3    H144446   5.611   2.398  14.690  0.1744  3.9207 -1.2385
 7677TIP3    H244447   5.688   2.393  14.560  1.9406  2.4392 -0.1595
 7678TIP3   OH244448   4.577   1.327  14.712 -0.2626 -0.5407  0.4921
 7678TIP3    H144449   4.577   1.352  14.620 -0.6097  0.7947  0.8437
 7678TIP3    H244450   4.662   1.356  14.745 -0.2396 -0.7848  0.6509
 7679TIP3   OH244451   1.971   4.798  13.946  0.0371 -0.2407  0.0306
 7679TIP3    H144452   1.999   4.889  13.943  0.2761 -0.2287  2.1174
 7679TIP3    H244453   1.918   4.786  13.867  1.6780  1.1345 -1.3002
 7680TIP3   OH244454   0.579   5.680  10.891 -0.3708  0.7567  0.5438
 7680TIP3    H144455   0.660   5.629  10.888  0.4681  2.1169 -0.7043
 7680TIP3    H244456   0.561   5.702  10.800 -3.1709 -1.0590  0.6158
 7681TIP3   OH244457   2.808   4.807  13.481 -0.3654 -0.0062  0.0646
 7681TIP3    H144458   2.806   4.900  13.459  0.7164 -0.3565 -1.5781
 7681TIP3    H244459   2.898   4.780  13.465 -0.8313 -1.4891 -0.1682
 7682TIP3   OH244460   6.109   5.405   1.973 -0.0065 -0.0503  0.8338
 7682TIP3    H144461   6.182   5.355   2.009 -0.6699 -1.4920  0.2137
 7682TIP3    H244462   6.034   5.347   1.979 -0.0186 -0.6388 -3.3970
 7683TIP3   OH244463   1.036   2.900  13.325  0.0209  0.1605 -0.0963
 7683TIP3    H144464   1.013   2.825  13.381  2.4454 -1.3320 -1.0047
 7683TIP3    H244465   1.048   2.972  13.387  0.5601 -0.9319  1.1064
 7684TIP3   OH244466   6.284   4.500  11.364 -0.0067 -0.2421  0.2207
 7684TIP3    H144467   6.357   4.561  11.365  1.2319 -1.6371 -2.0708
 7684TIP3    H244468   6.320   4.418  11.396 -1.3310 -0.1914  1.9440
 7685TIP3   OH244469   2.608   0.071  16.142 -0.3357  0.6580  0.2718
 7685TIP3    H144470   2.529   0.124  16.132  0.9649  2.4359 -1.0021
 7685TIP3    H244471   2.680   0.133  16.134  1.2327 -1.2079 -0.6532
 7686TIP3   OH244472   4.382   3.029  11.601  0.5474  0.1033 -0.2293
 7686TIP3    H144473   4.372   2.946  11.554  1.5559 -0.1221 -0.0525
 7686TIP3    H244474   4.474   3.030  11.627 -0.1339 -0.0266  2.2241
 7687TIP3   OH244475   0.054   5.811  12.272  0.2683  0.4775 -0.0397
 7687TIP3    H144476   0.123   5.864  12.232  1.2061 -1.9142 -1.6498
 7687TIP3    H244477   0.092   5.778  12.353  0.6546  0.0028 -0.4156
 7688TIP3   OH244478   0.220   3.367  13.264 -0.0385 -0.3569 -0.0144
 7688TIP3    H144479   0.220   3.337  13.173  1.3041  2.5987 -1.0686
 7688TIP3    H244480   0.190   3.292  13.315  0.0865 -2.3576 -2.8085
 7689TIP3   OH244481   6.686   2.387   5.557 -0.1066  0.0143  0.9770
 7689TIP3    H144482   6.627   2.339   5.614  1.7962 -0.8971  2.2547
 7689TIP3    H244483   6.698   2.472   5.601 -1.7573  0.8400 -0.1472
 7690TIP3   OH244484   4.049   3.660   3.451 -0.2339 -0.3502  0.3813
 7690TIP3    H144485   4.039   3.713   3.372  0.4079 -2.0401 -0.8836
 7690TIP3    H244486   4.114   3.706   3.504 -0.4327  0.6405 -0.2336
 7691TIP3   OH244487   6.753   6.090   0.184 -0.1002 -0.0170 -0.0986
 7691TIP3    H144488   6.846   6.073   0.169 -0.2703  0.0029 -1.2291
 7691TIP3    H244489   6.741   6.076   0.278  0.7568 -1.4162 -0.1756
 7692TIP3   OH244490   4.451   3.946  12.688  0.3336 -0.0921  0.2150
 7692TIP3    H144491   4.525   3.958  12.627  1.2659 -0.4134  1.2678
 7692TIP3    H244492   4.456   3.854  12.713  0.2117  0.1374  1.1025
 7693TIP3   OH244493   0.953   2.006   5.305 -0.0071 -0.1036 -0.1189
 7693TIP3    H144494   0.991   1.990   5.391  1.0830  1.3469 -0.3094
 7693TIP3    H244495   0.865   2.040   5.324 -0.5891 -1.8089  0.3543
 7694TIP3   OH244496   0.094   3.909  14.028 -0.1574 -0.2276  0.5573
 7694TIP3    H144497   0.140   3.825  14.019  1.1490  0.7878 -3.1702
 7694TIP3    H244498   0.046   3.919  13.946  0.0849  2.8681  0.7260
 7695TIP3   OH244499   1.779   0.493   0.497 -0.5520 -0.5340  0.3776
 7695TIP3    H144500   1.873   0.503   0.482 -0.7456  0.1199 -0.4646
 7695TIP3    H244501   1.765   0.529   0.585 -0.4540  2.1964 -0.6668
 7696TIP3   OH244502   5.004   5.210   4.514  0.1852  0.5464 -0.2116
 7696TIP3    H144503   5.083   5.163   4.540  0.6159  1.0354 -0.6272
 7696TIP3    H244504   5.035   5.297   4.491 -0.5904  0.9923  0.4069
 7697TIP3   OH244505   5.043   3.627   4.569  0.8363 -0.6049  0.8515
 7697TIP3    H144506   5.043   3.712   4.526 -2.0352 -0.5670  0.8341
 7697TIP3    H244507   5.070   3.565   4.500 -2.6458 -0.4013 -0.8146
 7698TIP3   OH244508   5.809   4.239   3.006 -0.1817  0.1835 -0.5449
 7698TIP3    H144509   5.757   4.243   2.926  0.0429  2.1532 -0.6194
 7698TIP3    H244510   5.812   4.329   3.037 -0.7731 -0.6548  2.0385
 7699TIP3   OH244511   5.940   5.904  13.730  0.1290 -0.2399 -0.6887
 7699TIP3    H144512   5.849   5.889  13.757 -0.0439  0.8248 -0.6602
 7699TIP3    H244513   5.937   5.902  13.634 -0.1647  1.1428 -0.7137
 7700TIP3   OH244514   0.783   3.307   0.078  0.7039  0.0311 -0.1502
 7700TIP3    H144515   0.796   3.224   0.124  0.6937  0.3173  0.3840
 7700TIP3    H244516   0.847   3.306   0.007 -0.3449 -1.1046 -1.1003
 7701TIP3   OH244517   0.334   5.266   1.091 -0.4019 -0.4615  0.1602
 7701TIP3    H144518   0.279   5.273   1.013 -0.4359  0.7608  0.2811
 7701TIP3    H244519   0.273   5.256   1.164 -0.4211 -0.2429  0.1739
 7702TIP3   OH244520   5.771   4.152  15.861  0.3053 -0.3459 -0.3691
 7702TIP3    H144521   5.788   4.122  15.772  2.8676  0.2977 -0.1118
 7702TIP3    H244522   5.688   4.109  15.885 -1.1034  0.5075 -3.4892
 7703TIP3   OH244523   6.134   5.848   3.504 -0.8844 -0.0932  0.6981
 7703TIP3    H144524   6.205   5.784   3.498 -2.0941 -1.6069  2.1548
 7703TIP3    H244525   6.062   5.800   3.543 -3.1074  1.1140 -1.7306
 7704TIP3   OH244526   5.677   6.677   5.189  0.7455 -0.0268 -0.4616
 7704TIP3    H144527   5.695   6.764   5.154  0.8733 -0.1531 -0.7113
 7704TIP3    H244528   5.583   6.666   5.180  1.0385 -0.8655 -2.6419
 7705TIP3   OH244529   4.489   1.287   3.165 -0.0113 -0.1027 -0.3883
 7705TIP3    H144530   4.513   1.251   3.079  0.5317 -1.1796  0.2139
 7705TIP3    H244531   4.401   1.255   3.181 -0.2631  0.4139 -0.7064
 7706TIP3   OH244532   0.420   0.386   3.001  0.0239 -0.2914 -0.0582
 7706TIP3    H144533   0.476   0.338   3.062 -1.7139 -2.8014 -0.3891
 7706TIP3    H244534   0.477   0.404   2.926  0.9351 -1.1115  0.4253
 7707TIP3   OH244535   0.517   0.796   5.606  0.0157  0.4883 -0.3373
 7707TIP3    H144536   0.522   0.701   5.614  0.6944  0.3869 -1.8139
 7707TIP3    H244537   0.453   0.811   5.537  1.6607  1.0146 -1.7797
 7708TIP3   OH244538   0.582   3.351  14.609 -0.1540 -0.5866 -0.7652
 7708TIP3    H144539   0.544   3.406  14.678 -0.6840 -1.0159 -0.7125
 7708TIP3    H244540   0.601   3.268  14.653 -0.6022 -0.9025 -1.1681
 7709TIP3   OH244541   1.103   1.400  15.611  0.0734 -0.3894 -1.3095
 7709TIP3    H144542   1.096   1.496  15.613  1.1488 -0.3139 -1.1682
 7709TIP3    H244543   1.121   1.380  15.519 -0.4951 -0.4898 -1.4030
 7710TIP3   OH244544   0.945   3.971   5.671  0.0438  0.5589 -0.1252
 7710TIP3    H144545   0.946   4.065   5.691  0.2923  0.3657  0.8003
 7710TIP3    H244546   0.983   3.930   5.748  0.1979 -0.2867 -0.6431
 7711TIP3   OH244547   4.324   1.540   4.479 -0.2314 -0.1375  0.1358
 7711TIP3    H144548   4.356   1.580   4.559  1.0900  0.6668 -0.7828
 7711TIP3    H244549   4.376   1.580   4.409 -1.7108 -0.4449 -1.1736
 7712TIP3   OH244550   0.409   4.526   4.071  0.8235  0.2236 -1.0852
 7712TIP3    H144551   0.339   4.465   4.048  1.5360 -0.6562 -0.9386
 7712TIP3    H244552   0.402   4.596   4.005 -0.2345  0.1890 -1.0229
 7713TIP3   OH244553   3.093   6.199   2.704 -0.3707  0.0576  0.4280
 7713TIP3    H144554   2.998   6.193   2.695 -0.3797  1.8603 -0.9870
 7713TIP3    H244555   3.118   6.272   2.648  2.0518 -1.4069 -0.4760
 7714TIP3   OH244556   6.397   0.905   2.266 -0.1797 -0.5957 -0.5223
 7714TIP3    H144557   6.457   0.836   2.238  2.4895  1.6592 -0.6414
 7714TIP3    H244558   6.445   0.986   2.249 -3.2344  1.3026 -0.4497
 7715TIP3   OH244559   4.222   5.465  16.292 -0.2088 -0.3121  0.2061
 7715TIP3    H144560   4.278   5.533  16.257  0.0754 -1.2510 -1.1921
 7715TIP3    H244561   4.170   5.509  16.360  1.7956  0.7001  1.1372
 7716TIP3   OH244562   1.649   2.732   2.808  0.0703  0.2952 -0.3713
 7716TIP3    H144563   1.594   2.658   2.832  0.5537 -0.0864 -0.4370
 7716TIP3    H244564   1.682   2.710   2.721 -2.7532  2.2754 -2.0179
 7717TIP3   OH244565   3.401   4.856   2.361  0.1190 -0.1127 -0.3922
 7717TIP3    H144566   3.459   4.804   2.306  0.4273 -0.0875 -0.0969
 7717TIP3    H244567   3.379   4.797   2.434 -1.3473 -0.6023 -1.2170
 7718TIP3   OH244568   0.017   6.362   5.592  0.9187 -0.1458  0.2841
 7718TIP3    H144569   0.029   6.286   5.650 -0.5971 -0.5756  0.0482
 7718TIP3    H244570   0.063   6.338   5.512 -0.3900 -1.2539 -0.1581
 7719TIP3   OH244571   4.696   5.416  10.847 -0.2018  0.6050 -0.2478
 7719TIP3    H144572   4.635   5.379  10.783  0.2763 -1.0355  0.2165
 7719TIP3    H244573   4.782   5.387  10.818  0.0168 -0.1831  1.1457
 7720TIP3   OH244574   5.820   3.898  15.013 -0.0649 -0.1160 -0.2063
 7720TIP3    H144575   5.910   3.918  14.987  0.2196 -1.8394 -0.5747
 7720TIP3    H244576   5.790   3.833  14.950 -1.3456 -0.0700  0.3359
 7721TIP3   OH244577   4.879   1.665   5.003 -0.6405 -0.1770  0.0398
 7721TIP3    H144578   4.854   1.605   5.073 -1.8622  1.3051  0.9032
 7721TIP3    H244579   4.898   1.608   4.928 -1.7763 -1.6332  0.8327
 7722TIP3   OH244580   1.776   5.433   0.764 -0.1033 -0.4672  0.0050
 7722TIP3    H144581   1.814   5.475   0.687  1.1473 -0.8437  0.3954
 7722TIP3    H244582   1.682   5.436   0.749 -0.0011  1.6585 -0.3894
 7723TIP3   OH244583   0.453   3.111  13.885  0.0291 -0.2031 -0.0921
 7723TIP3    H144584   0.534   3.067  13.859 -0.1206 -0.6212  0.1455
 7723TIP3    H244585   0.472   3.204  13.875  0.7180 -0.2792  0.4760
 7724TIP3   OH244586   0.078   1.470  12.833  0.1842  0.5212 -0.7346
 7724TIP3    H144587   0.007   1.532  12.817 -0.0377  0.5727  0.3999
 7724TIP3    H244588   0.123   1.505  12.910  1.0642  0.1582 -1.0814
 7725TIP3   OH244589   3.719   2.285  13.300 -0.0088 -0.3982 -0.1789
 7725TIP3    H144590   3.775   2.338  13.357 -0.8673 -0.5866  0.8661
 7725TIP3    H244591   3.757   2.295  13.213  1.0579  0.2703  0.3481
 7726TIP3   OH244592   4.827   0.198   4.889  0.4312  0.2123  0.2074
 7726TIP3    H144593   4.861   0.129   4.947  0.8405  0.4892  0.2977
 7726TIP3    H244594   4.884   0.273   4.905  0.6464  0.2424 -0.6721
 7727TIP3   OH244595   6.513   6.095  17.010  0.0790  0.6232  0.3508
 7727TIP3    H144596   6.577   6.149  16.963  0.5268  0.2867  0.5641
 7727TIP3    H244597   6.455   6.061  16.942 -0.8706  2.2427  0.3366
 7728TIP3   OH244598   0.674   4.372   0.443 -0.1527 -0.1101  0.2271
 7728TIP3    H144599   0.689   4.339   0.354  0.3051  0.9142 -0.0897
 7728TIP3    H244600   0.711   4.304   0.500  0.7334 -0.1816 -0.4085
 7729TIP3   OH244601   6.289   5.832   0.603 -0.2387 -0.3565  0.0140
 7729TIP3    H144602   6.286   5.928   0.598  0.4817 -0.4062 -1.6301
 7729TIP3    H244603   6.198   5.805   0.604 -0.4647  0.2517 -1.8949
 7730TIP3   OH244604   0.398   2.891   0.276  0.5734  0.8321 -0.1552
 7730TIP3    H144605   0.340   2.844   0.217  0.3641  0.5711  0.2585
 7730TIP3    H244606   0.369   2.982   0.271  0.0735  0.6875  0.1183
 7731TIP3   OH244607   1.137   5.070  11.773 -0.8469 -0.2978 -0.2923
 7731TIP3    H144608   1.210   5.045  11.830 -0.5119  2.6225  0.6334
 7731TIP3    H244609   1.176   5.072  11.685 -0.6254 -1.9106 -0.2367
 7732TIP3   OH244610   4.923   1.474  12.199  0.0690  0.1556  0.2420
 7732TIP3    H144611   4.881   1.480  12.285 -0.9501  1.1966 -0.3188
 7732TIP3    H244612   4.852   1.448  12.140  0.2326  1.8458 -0.7045
 7733TIP3   OH244613   5.243   6.736   6.169 -0.3794 -0.0075 -0.5713
 7733TIP3    H144614   5.332   6.701   6.179  0.2020  1.1675 -1.4590
 7733TIP3    H244615   5.234   6.750   6.074 -1.3127  0.3813 -0.4266
 7734TIP3   OH244616   2.047   6.008  14.874  0.0269  0.3014 -0.5062
 7734TIP3    H144617   2.102   6.010  14.952  0.8943  0.2689 -1.1158
 7734TIP3    H244618   1.972   6.064  14.896 -0.7406 -1.3261  1.0804
 7735TIP3   OH244619   3.797   4.752  13.562  0.2010 -0.3207 -0.1867
 7735TIP3    H144620   3.856   4.680  13.585  1.1228  0.5926  0.2934
 7735TIP3    H244621   3.823   4.777  13.474 -0.7823 -1.2279 -0.7518
 7736TIP3   OH244622   2.541   1.919   1.774  0.0068  0.1245  0.0913
 7736TIP3    H144623   2.555   1.897   1.682  3.4430  1.7671  0.1677
 7736TIP3    H244624   2.629   1.928   1.811 -1.2933  1.9879  2.9329
 7737TIP3   OH244625   3.830   6.565   0.730 -0.0972  0.4771 -0.4185
 7737TIP3    H144626   3.881   6.633   0.687  0.6336  0.2637  0.0975
 7737TIP3    H244627   3.758   6.612   0.772  0.3819  0.9351 -0.0931
 7738TIP3   OH244628   3.470   1.065  12.010 -0.8661  0.5866 -0.5185
 7738TIP3    H144629   3.541   1.054  12.073 -0.9833  0.3964 -0.4190
 7738TIP3    H244630   3.513   1.053  11.925 -0.9324 -0.4219 -0.4246
 7739TIP3   OH244631   1.988   0.805  14.255  0.7459  0.4024  0.0230
 7739TIP3    H144632   1.957   0.751  14.183 -0.2239  0.2365  0.5578
 7739TIP3    H244633   2.051   0.865  14.215  0.2227  0.3079 -0.9593
 7740TIP3   OH244634   4.287   5.080   6.360  0.1522 -0.0842 -0.0255
 7740TIP3    H144635   4.234   5.148   6.318  1.0159  1.0974  0.7993
 7740TIP3    H244636   4.357   5.127   6.404 -0.1133 -1.3987  1.8471
 7741TIP3   OH244637   0.207   0.028   6.414  0.0543 -0.1435  0.2164
 7741TIP3    H144638   0.137   0.090   6.436 -0.4009 -1.0239  1.3112
 7741TIP3    H244639   0.220  -0.022   6.494  0.7349 -1.1613 -0.5214
 7742TIP3   OH244640   5.746   1.041  12.277  0.0016  0.2962  0.0161
 7742TIP3    H144641   5.746   1.070  12.368  1.2872  2.0718 -0.5144
 7742TIP3    H244642   5.806   0.967  12.276 -1.7588 -1.1868  1.0144
 7743TIP3   OH244643   2.847   6.553  16.931  0.0632  0.1122 -0.5570
 7743TIP3    H144644   2.779   6.508  16.880 -0.0123 -0.3483 -0.0527
 7743TIP3    H244645   2.929   6.517  16.898 -0.0486 -1.5451  0.9093
 7744TIP3   OH244646   1.786   6.450   1.459  0.1710 -0.2859 -0.5347
 7744TIP3    H144647   1.844   6.421   1.388  0.7552  0.8299 -0.5258
 7744TIP3    H244648   1.742   6.527   1.424 -1.1741 -1.0137 -0.4635
 7745TIP3   OH244649   0.512   2.660   5.735  0.2995  0.1293 -0.0231
 7745TIP3    H144650   0.513   2.627   5.645  1.4886  0.0089  0.0269
 7745TIP3    H244651   0.464   2.743   5.729 -0.8401 -0.5491 -0.5165
 7746TIP3   OH244652   1.373   0.284  13.148 -0.3772  0.2492 -0.0215
 7746TIP3    H144653   1.445   0.231  13.181 -0.3418 -0.0138 -0.5315
 7746TIP3    H244654   1.297   0.255  13.198 -0.9252 -2.2129 -2.1977
 7747TIP3   OH244655   2.458   1.532   5.180  0.2558  0.2488  0.1055
 7747TIP3    H144656   2.543   1.523   5.136  1.2259  0.4369  1.8812
 7747TIP3    H244657   2.477   1.511   5.272 -1.4869  0.9501  0.6366
 7748TIP3   OH244658   6.007   6.636   2.032  0.3908  0.5845 -0.6370
 7748TIP3    H144659   5.970   6.550   2.050 -1.1601  1.1516 -1.0136
 7748TIP3    H244660   5.992   6.649   1.938 -0.6236  1.8140 -0.3280
 7749TIP3   OH244661   5.702   4.603   2.001 -0.1975  0.4132  0.6975
 7749TIP3    H144662   5.780   4.591   1.947 -1.7464 -0.1671 -1.4968
 7749TIP3    H244663   5.713   4.543   2.074  1.5902  0.6291  0.6218
 7750TIP3   OH244664   2.186   5.033  15.636  0.2384 -0.3316 -0.1940
 7750TIP3    H144665   2.107   5.038  15.690  1.8622 -0.6767  2.3064
 7750TIP3    H244666   2.227   5.120  15.644  1.7543 -1.1335  1.1999
 7751TIP3   OH244667   1.469   4.659   0.802  0.1956 -0.1545 -0.5226
 7751TIP3    H144668   1.526   4.722   0.846  0.9510  0.1313 -1.8678
 7751TIP3    H244669   1.529   4.608   0.747 -0.5431 -1.4084 -0.1631
 7752TIP3   OH244670   1.290   0.755   3.015 -0.2573 -0.0481  0.4838
 7752TIP3    H144671   1.204   0.792   3.036  0.6477  3.0496 -0.9661
 7752TIP3    H244672   1.350   0.830   3.021  2.1449 -1.9077  0.2685
 7753TIP3   OH244673   3.092   4.885   2.354 -0.6214 -0.2552 -0.5785
 7753TIP3    H144674   3.147   4.958   2.324 -0.3532 -0.1365  0.2018
 7753TIP3    H244675   3.075   4.834   2.274  1.3375 -0.7783 -0.6931
 7754TIP3   OH244676   1.139   4.600   2.671  0.0723 -0.4238 -0.9768
 7754TIP3    H144677   1.197   4.525   2.675  0.6347  0.0970  1.6901
 7754TIP3    H244678   1.057   4.566   2.634  0.0975 -2.5073  0.7923
 7755TIP3   OH244679   1.469   1.989   0.388 -0.1054  0.4213 -0.4030
 7755TIP3    H144680   1.511   2.072   0.410  0.8974 -0.0527 -0.4937
 7755TIP3    H244681   1.522   1.953   0.317  0.7575 -1.2883  1.0498
 7756TIP3   OH244682   4.539   1.749  12.836  0.3183  0.3086 -0.6955
 7756TIP3    H144683   4.487   1.775  12.912 -4.1717 -0.6673 -3.2531
 7756TIP3    H244684   4.513   1.811  12.767  2.0457 -0.6753 -2.2953
 7757TIP3   OH244685   2.452   0.226   2.223 -0.1348 -0.0083 -0.2050
 7757TIP3    H144686   2.499   0.257   2.299  0.3206 -0.7097 -0.1940
 7757TIP3    H244687   2.400   0.152   2.255 -0.3829  0.0592 -0.4467
 7758TIP3   OH244688   4.013   0.190  11.135  0.8391 -0.6608  0.0796
 7758TIP3    H144689   3.977   0.246  11.066  0.2486  0.2559  1.1165
 7758TIP3    H244690   4.094   0.155  11.097  0.4107 -0.3584 -1.1565
 7759TIP3   OH244691   4.186   5.410  11.544  0.0606 -0.7400  0.1869
 7759TIP3    H144692   4.211   5.379  11.631 -0.8155 -0.1095  0.6728
 7759TIP3    H244693   4.097   5.378  11.532 -0.6579  1.0649  0.4666
 7760TIP3   OH244694   5.139   2.770  13.127  0.9124 -0.1943 -0.1354
 7760TIP3    H144695   5.214   2.788  13.184 -0.0283  3.2580  0.1271
 7760TIP3    H244696   5.081   2.716  13.181  0.8258  1.5659  1.5976
 7761TIP3   OH244697   3.488   0.580  15.283 -0.4325  0.4097 -0.1201
 7761TIP3    H144698   3.549   0.551  15.350  1.2240  1.2398 -1.2379
 7761TIP3    H244699   3.429   0.506  15.271 -0.0683 -0.1529  1.4424
 7762TIP3   OH244700   3.172   5.945   0.064 -0.0464 -0.2650 -0.6385
 7762TIP3    H144701   3.218   6.029   0.056 -1.1451  0.5154  0.9108
 7762TIP3    H244702   3.239   5.879   0.043  2.0153  0.8008  2.1099
 7763TIP3   OH244703   1.850   4.674  16.352  0.1659 -0.2571  0.4089
 7763TIP3    H144704   1.783   4.717  16.405  1.1147  0.6894  0.8546
 7763TIP3    H244705   1.871   4.594  16.399  1.4931  0.9094  1.8444
 7764TIP3   OH244706   5.936   1.961   1.422  0.0277 -0.1842  0.5494
 7764TIP3    H144707   5.987   1.907   1.483 -1.0522 -1.5935  0.2194
 7764TIP3    H244708   5.934   1.910   1.341  1.4219  1.6631 -0.6816
 7765TIP3   OH244709   6.717   6.287  12.159 -0.3366  0.5769  0.4995
 7765TIP3    H144710   6.803   6.297  12.201  0.0673  1.8676 -0.6247
 7765TIP3    H244711   6.657   6.268  12.232  0.9869 -0.9737  1.2268
 7766TIP3   OH244712   1.805   5.450   4.525 -0.1525  0.3352  0.2085
 7766TIP3    H144713   1.748   5.427   4.598 -0.9643  0.8734 -0.2363
 7766TIP3    H244714   1.818   5.368   4.477 -3.4762  0.8270 -1.6932
 7767TIP3   OH244715   6.382   1.336   2.212  0.3016  0.0596  0.0911
 7767TIP3    H144716   6.406   1.389   2.288 -0.5320 -0.0337  0.4281
 7767TIP3    H244717   6.435   1.257   2.220 -0.1951 -0.2009  0.8958
 7768TIP3   OH244718   1.584   2.292  14.806 -0.3879 -0.2736  0.7623
 7768TIP3    H144719   1.661   2.333  14.846  0.4546  2.3831 -3.3089
 7768TIP3    H244720   1.620   2.222  14.751 -0.9013  0.3545 -0.4060
 7769TIP3   OH244721   0.417   1.393   2.565  0.0921 -0.3251  0.4350
 7769TIP3    H144722   0.375   1.382   2.650 -1.3165 -1.1580 -0.3553
 7769TIP3    H244723   0.485   1.460   2.580 -1.3791  0.8995  1.7737
 7770TIP3   OH244724   5.765   2.268  11.439 -0.0632  0.1275 -0.3940
 7770TIP3    H144725   5.694   2.211  11.469 -2.4374  2.9898 -0.3374
 7770TIP3    H244726   5.742   2.288  11.348  0.2975  1.6161 -0.1650
 7771TIP3   OH244727   4.657   4.284  11.934  0.1023 -0.2046  0.2599
 7771TIP3    H144728   4.565   4.274  11.958 -0.0538  0.3077 -0.1010
 7771TIP3    H244729   4.676   4.376  11.953  0.4871 -0.2649  0.1630
 7772TIP3   OH244730   2.455   2.412   4.084 -0.6867 -0.0362 -0.3317
 7772TIP3    H144731   2.405   2.447   4.158 -0.5143 -1.1004  0.3053
 7772TIP3    H244732   2.545   2.438   4.101 -0.4311 -1.4322  0.5602
 7773TIP3   OH244733   4.423   0.488   0.817  0.0760  0.2484  0.3022
 7773TIP3    H144734   4.457   0.399   0.817 -0.4192  0.0528  0.9220
 7773TIP3    H244735   4.439   0.520   0.728  0.7052 -0.2803  0.2169
 7774TIP3   OH244736   3.913   0.156  12.932  0.0407  0.3914  0.6536
 7774TIP3    H144737   3.919   0.092  13.003 -0.5302 -1.2597 -0.7310
 7774TIP3    H244738   3.859   0.227  12.966  0.0158 -0.2428  1.9473
 7775TIP3   OH244739   4.856   0.880   4.483 -0.2076 -0.3898  0.3278
 7775TIP3    H144740   4.764   0.872   4.457 -0.4270 -2.4551  1.5703
 7775TIP3    H244741   4.901   0.815   4.429  0.4701  0.3815 -0.0349
 7776TIP3   OH244742   4.681   2.649   0.404  0.3384  0.1322 -0.2140
 7776TIP3    H144743   4.701   2.623   0.494 -3.4894  0.7828  0.9153
 7776TIP3    H244744   4.657   2.567   0.360 -2.0805  0.3337  0.6348
 7777TIP3   OH244745   3.229   0.913  11.882  0.0368  0.1976 -0.4955
 7777TIP3    H144746   3.148   0.887  11.838  0.8374  1.6223 -2.9216
 7777TIP3    H244747   3.201   0.954  11.964 -1.7331  0.9812 -1.4768
 7778TIP3   OH244748   0.042   3.471  15.414  0.3816 -0.0838  0.2824
 7778TIP3    H144749  -0.038   3.437  15.453  1.4299  0.9670  3.4925
 7778TIP3    H244750   0.045   3.563  15.440  2.5407 -0.0574  0.0520
 7779TIP3   OH244751   3.713   0.756  15.128 -0.0201  0.3155  0.2319
 7779TIP3    H144752   3.680   0.670  15.101 -0.2508  1.1580 -2.2958
 7779TIP3    H244753   3.638   0.815  15.116  0.5104  1.1018  0.7555
 7780TIP3   OH244754   4.499   3.199   3.880 -0.3026  0.0141 -0.3644
 7780TIP3    H144755   4.507   3.168   3.790 -1.3137 -0.0314 -0.4473
 7780TIP3    H244756   4.549   3.135   3.932  1.2770  0.7100 -1.0109
 7781TIP3   OH244757   5.919   3.495  12.342  0.2935 -0.2276 -0.1093
 7781TIP3    H144758   5.828   3.469  12.357  0.3253  0.9832  2.4800
 7781TIP3    H244759   5.928   3.497  12.247 -1.8859 -2.0379 -0.4094
 7782TIP3   OH244760   5.230   1.632   3.291  0.1117 -0.5836 -0.5629
 7782TIP3    H144761   5.283   1.568   3.337 -0.7493 -1.6200 -0.9976
 7782TIP3    H244762   5.179   1.581   3.228  0.2599  0.6544 -1.7097
 7783TIP3   OH244763   3.185   4.232  12.560 -0.0834 -0.6513 -0.6997
 7783TIP3    H144764   3.270   4.188  12.552  0.4312 -0.0211  1.1149
 7783TIP3    H244765   3.132   4.173  12.614 -0.1194 -0.0859 -0.1135
 7784TIP3   OH244766   4.376   6.278  16.842  0.1656 -0.3378 -0.6590
 7784TIP3    H144767   4.303   6.339  16.837 -0.3373 -0.9747 -1.0721
 7784TIP3    H244768   4.372   6.228  16.761  0.0637 -1.4987  0.0519
 7785TIP3   OH244769   4.515   3.042  15.467 -0.8531  0.2358  0.3366
 7785TIP3    H144770   4.508   3.023  15.561  1.5354  0.8413  0.6562
 7785TIP3    H244771   4.428   3.022  15.433 -1.7537 -0.0325  2.6738
 7786TIP3   OH244772   3.481   3.124  16.257 -0.0878  0.2907 -0.0425
 7786TIP3    H144773   3.540   3.053  16.283  0.7443  0.0875 -2.3603
 7786TIP3    H244774   3.408   3.080  16.213  0.6548  0.8703 -1.8964
 7787TIP3   OH244775   6.235   2.280  11.868 -0.1507 -0.5148  0.1821
 7787TIP3    H144776   6.291   2.243  11.800 -2.2929 -1.3902 -1.1609
 7787TIP3    H244777   6.192   2.355  11.827  0.5594  0.5994  1.4206
 7788TIP3   OH244778   3.947   3.506   2.543  0.2117  0.2705  0.0737
 7788TIP3    H144779   3.926   3.547   2.459 -0.5995 -0.0493  0.1188
 7788TIP3    H244780   3.935   3.576   2.607  1.8992  0.8160 -0.1864
 7789TIP3   OH244781   3.931   3.268   2.128 -0.0228 -0.3772  0.1080
 7789TIP3    H144782   3.888   3.211   2.063 -0.9797 -0.2888  0.6508
 7789TIP3    H244783   3.935   3.214   2.207  0.0575 -0.0655  0.3137
 7790TIP3   OH244784   1.672   2.663   3.241  0.1484 -0.5118  0.4245
 7790TIP3    H144785   1.617   2.739   3.261  1.8384  0.7442  0.3757
 7790TIP3    H244786   1.624   2.588   3.276 -1.2805  0.6366  0.9493
 7791TIP3   OH244787   3.548   1.540   4.187  0.0819  0.2478  0.0367
 7791TIP3    H144788   3.476   1.517   4.245 -0.5793 -1.3027 -1.3622
 7791TIP3    H244789   3.516   1.615   4.137  0.6145  1.5209  1.5422
 7792TIP3   OH244790   2.538   0.050   0.956 -0.1834 -0.0252  0.0980
 7792TIP3    H144791   2.465   0.095   0.914  0.4325  0.0738 -0.8708
 7792TIP3    H244792   2.497  -0.025   1.000 -1.3176  1.8034  2.2975
 7793TIP3   OH244793   6.021   1.097  16.481  0.2205  0.1565 -0.3971
 7793TIP3    H144794   6.076   1.070  16.407  0.6451  1.2017 -0.4724
 7793TIP3    H244795   6.028   1.025  16.543 -0.9372 -1.1768 -1.7924
 7794TIP3   OH244796   3.744   3.442   6.180 -0.1022  0.7333  0.0110
 7794TIP3    H144797   3.679   3.411   6.117 -0.1595 -0.8617  0.8312
 7794TIP3    H244798   3.817   3.474   6.127 -0.7685  0.7973 -0.8749
 7795TIP3   OH244799   3.025   3.300   4.425  0.8263 -0.3100 -0.4446
 7795TIP3    H144800   3.065   3.375   4.469  0.7372 -0.7166  0.3330
 7795TIP3    H244801   2.935   3.327   4.407 -0.2443 -1.4243  2.8551
 7796TIP3   OH244802   1.327   2.688   5.381 -0.3035  0.0612  0.2436
 7796TIP3    H144803   1.277   2.610   5.405  0.1013 -0.4360 -0.5231
 7796TIP3    H244804   1.278   2.725   5.307 -0.2367  0.2723  0.3060
 7797TIP3   OH244805   2.101   4.206   4.317 -0.3181 -0.0262  0.3023
 7797TIP3    H144806   2.182   4.176   4.274 -0.8659 -0.3796 -0.4956
 7797TIP3    H244807   2.047   4.128   4.323 -0.9349  0.3803  0.0833
 7798TIP3   OH244808   4.116   5.229   4.949  0.4950  0.3467  0.1340
 7798TIP3    H144809   4.073   5.156   4.904 -0.2410  1.3394 -0.7751
 7798TIP3    H244810   4.066   5.241   5.029 -0.8853  1.4460 -0.8805
 7799TIP3   OH244811   3.846   5.465   3.970 -0.0473 -0.1873  0.8939
 7799TIP3    H144812   3.936   5.493   3.950 -1.1299  2.0674 -1.0941
 7799TIP3    H244813   3.813   5.534   4.027 -1.6021  0.8357 -1.1818
 7800TIP3   OH244814   6.730   1.465   4.250 -0.0619 -0.2086  0.0352
 7800TIP3    H144815   6.770   1.422   4.326 -1.1568  0.8257  1.2047
 7800TIP3    H244816   6.777   1.548   4.242 -2.6074  1.4736  2.0382
 7801TIP3   OH244817   5.182   3.331   2.703 -0.3559 -0.4850  0.0656
 7801TIP3    H144818   5.185   3.275   2.625  1.8965 -2.6534  1.6265
 7801TIP3    H244819   5.264   3.380   2.700 -0.3086 -0.5024  1.0395
 7802TIP3   OH244820   6.228   3.816   1.411 -0.2732 -0.0008  0.2736
 7802TIP3    H144821   6.186   3.746   1.361 -2.7366  1.7413 -0.1291
 7802TIP3    H244822   6.228   3.784   1.501  0.8672 -1.5548 -0.2450
 7803TIP3   OH244823   5.552   0.312  15.920 -0.0694 -0.0783  0.0205
 7803TIP3    H144824   5.525   0.243  15.860  0.1491  0.2308 -0.4391
 7803TIP3    H244825   5.470   0.346  15.956 -0.0928 -1.7899  1.6311
 7804TIP3   OH244826   3.400   6.479  11.228 -0.1115 -0.3365 -0.7320
 7804TIP3    H144827   3.376   6.521  11.310 -1.3366  0.6144 -1.5594
 7804TIP3    H244828   3.371   6.389  11.237 -0.6571 -0.1176 -0.2975
 7805TIP3   OH244829   4.152   5.005   5.136  0.0048  0.3176 -0.0075
 7805TIP3    H144830   4.165   5.040   5.048  0.8848 -1.6925 -0.6981
 7805TIP3    H244831   4.090   4.932   5.124 -0.7741  0.7632  1.2073
 7806TIP3   OH244832   3.531   6.686   4.407  0.1856 -0.1039  0.3429
 7806TIP3    H144833   3.521   6.703   4.500  0.3950  0.7697  0.2130
 7806TIP3    H244834   3.604   6.742   4.380  0.3953 -0.6578 -0.2590
 7807TIP3   OH244835   0.744   2.399   0.732  0.1328  0.3004  0.1283
 7807TIP3    H144836   0.676   2.347   0.689 -0.1642  1.2105 -0.5324
 7807TIP3    H244837   0.697   2.474   0.768  0.6970  0.6283  0.1922
 7808TIP3   OH244838   1.491   4.100  14.919  0.2326  0.3332 -0.3124
 7808TIP3    H144839   1.575   4.145  14.927 -0.5978  1.8401  0.2088
 7808TIP3    H244840   1.458   4.125  14.833 -0.1207  0.5408 -0.1207
 7809TIP3   OH244841   2.339   2.554   1.468  0.6656 -0.4013  0.1586
 7809TIP3    H144842   2.429   2.567   1.497  0.3968 -2.5325  2.0778
 7809TIP3    H244843   2.286   2.598   1.534  0.1905 -1.5740  0.5573
 7810TIP3   OH244844   6.388   5.485  16.280  0.1204 -0.0216 -0.2872
 7810TIP3    H144845   6.319   5.431  16.243 -0.4914 -0.5496  1.5794
 7810TIP3    H244846   6.442   5.425  16.330 -0.9904  1.1644  2.4230
 7811TIP3   OH244847   0.742   4.309  14.967 -0.0518 -0.4662 -0.2633
 7811TIP3    H144848   0.737   4.402  14.945 -1.2604 -0.1857  1.0908
 7811TIP3    H244849   0.823   4.300  15.017 -0.1436 -0.0609 -0.0455
 7812TIP3   OH244850   3.359   3.171  17.171 -0.1852  0.8215 -0.3852
 7812TIP3    H144851   3.415   3.142  17.243 -0.8266  2.4282  0.7971
 7812TIP3    H244852   3.416   3.226  17.117 -0.2485  1.3163  0.0491
 7813TIP3   OH244853   1.398   6.137  15.395 -0.5508  0.8161 -0.0533
 7813TIP3    H144854   1.370   6.098  15.478  1.0642  0.4821  0.3362
 7813TIP3    H244855   1.352   6.222  15.393 -1.7589  0.1991  0.4671
 7814TIP3   OH244856   3.758   0.425  16.546  0.0682 -0.2059 -0.5449
 7814TIP3    H144857   3.721   0.360  16.607 -1.0346  0.4103 -0.5495
 7814TIP3    H244858   3.843   0.447  16.584 -0.1328 -0.6627  0.1824
 7815TIP3   OH244859   2.113   2.758  11.801  0.5235  0.4319 -0.1935
 7815TIP3    H144860   2.102   2.679  11.748 -0.0383 -0.2206  0.8879
 7815TIP3    H244861   2.152   2.821  11.741  0.2613 -0.4222 -1.2825
 7816TIP3   OH244862   3.863   3.259   5.088 -0.1730 -0.6775  0.0959
 7816TIP3    H144863   3.898   3.224   5.007  2.2742  0.4486  0.6292
 7816TIP3    H244864   3.827   3.344   5.064  2.3904  0.5770  0.5052
 7817TIP3   OH244865   3.375   5.669   6.738  0.2179 -0.0572  0.2320
 7817TIP3    H144866   3.427   5.645   6.662  1.0102  0.6343  0.5545
 7817TIP3    H244867   3.345   5.585   6.774 -2.1024 -0.3082 -2.1535
 7818TIP3   OH244868   3.815   3.199  13.507  0.4734 -0.2078 -0.1403
 7818TIP3    H144869   3.768   3.188  13.589 -1.8212 -0.1164 -1.3929
 7818TIP3    H244870   3.873   3.273  13.521 -0.3465  0.1804  1.2063
 7819TIP3   OH244871   3.058   1.205   5.310  0.3565  0.0143 -0.1915
 7819TIP3    H144872   3.069   1.166   5.396  0.4104  1.9401  0.6927
 7819TIP3    H244873   3.001   1.280   5.324 -0.6633 -0.3527 -2.0543
 7820TIP3   OH244874   4.286   4.515  15.906 -0.1131 -0.3564 -0.2174
 7820TIP3    H144875   4.352   4.451  15.930 -0.0413 -0.0664  0.3570
 7820TIP3    H244876   4.207   4.463  15.887  0.2292 -0.6863 -0.7441
 7821TIP3   OH244877   1.765   3.458  11.962  0.0969  0.0011  1.1312
 7821TIP3    H144878   1.686   3.481  11.913 -0.3535  0.5319  2.0934
 7821TIP3    H244879   1.762   3.363  11.969 -0.5333  0.0329  1.2899
 7822TIP3   OH244880   2.975   6.452   2.314  0.2527 -0.1143  0.4286
 7822TIP3    H144881   3.039   6.522   2.313 -0.5864  0.6650 -1.7149
 7822TIP3    H244882   2.962   6.429   2.222 -1.4667 -1.2530  0.9106
 7823TIP3   OH244883   3.135   4.278  10.896  0.4043 -0.1635  0.2900
 7823TIP3    H144884   3.230   4.284  10.883  0.2655  3.5894  0.4080
 7823TIP3    H244885   3.108   4.368  10.915 -3.0344 -1.3532  1.4095
 7824TIP3   OH244886   5.233   5.591  11.271  0.6869  0.3030  0.0213
 7824TIP3    H144887   5.233   5.686  11.283 -0.4483  0.2919  0.1142
 7824TIP3    H244888   5.322   5.572  11.241  1.3455  1.2255  1.2972
 7825TIP3   OH244889   0.102   3.074   5.324 -0.5507 -0.2247 -0.0986
 7825TIP3    H144890   0.169   3.141   5.313  0.2171 -1.2809 -2.0873
 7825TIP3    H244891   0.039   3.091   5.254 -0.7126 -1.1599 -0.1889
 7826TIP3   OH244892   3.923   4.833   2.594  1.2636 -0.2902  0.3353
 7826TIP3    H144893   3.847   4.868   2.547 -1.1123 -1.5290  3.1001
 7826TIP3    H244894   3.972   4.785   2.527 -0.6269  0.1506 -1.4238
 7827TIP3   OH244895   2.344   5.151   4.522 -0.1064  0.0945 -0.2182
 7827TIP3    H144896   2.345   5.099   4.442 -1.9127 -0.6474  0.2089
 7827TIP3    H244897   2.296   5.097   4.585 -1.0398  1.7935  0.5649
 7828TIP3   OH244898   0.199   3.653   1.753 -0.3943 -0.0827 -0.3285
 7828TIP3    H144899   0.230   3.593   1.685  1.6967  0.2271  0.2923
 7828TIP3    H244900   0.147   3.718   1.706  0.0018 -0.5715 -1.4603
 7829TIP3   OH244901   2.896   0.366  15.285 -0.3607  0.4540  0.1475
 7829TIP3    H144902   2.931   0.329  15.367  0.8433  0.7039 -0.2410
 7829TIP3    H244903   2.805   0.336  15.282 -0.2895  0.0884  1.3668
 7830TIP3   OH244904   4.600   0.910   2.039  0.3182  0.0279  0.6819
 7830TIP3    H144905   4.634   0.865   2.117 -0.7567  0.9542  1.7098
 7830TIP3    H244906   4.522   0.860   2.015 -0.5032  0.9214  1.4309
 7831TIP3   OH244907   5.778   2.117   1.568  0.3112  0.5952  0.7983
 7831TIP3    H144908   5.836   2.065   1.511 -2.4208 -0.7525 -0.8521
 7831TIP3    H244909   5.762   2.198   1.518  0.2076  0.6492  0.9191
 7832TIP3   OH244910   3.205   0.480   5.843  0.0392 -0.4915  0.4431
 7832TIP3    H144911   3.216   0.543   5.771  1.4520  0.9517  1.8666
 7832TIP3    H244912   3.293   0.445   5.857 -0.1567 -0.5132  1.6625
 7833TIP3   OH244913   2.479   2.232  15.675 -0.1609  0.2121  0.0817
 7833TIP3    H144914   2.520   2.278  15.748 -2.2036 -0.7489  1.8796
 7833TIP3    H244915   2.484   2.139  15.699 -1.9228 -0.0341 -0.4168
 7834TIP3   OH244916   0.039   1.056  12.381 -0.0052  1.0357  0.3615
 7834TIP3    H144917   0.029   1.005  12.461 -1.8314  0.9118  0.0674
 7834TIP3    H244918  -0.003   1.140  12.401 -0.6369  0.9369 -0.5351
 7835TIP3   OH244919   5.567   1.510  11.498  0.5955 -0.3169 -0.4423
 7835TIP3    H144920   5.504   1.492  11.429 -0.8477 -1.4737  1.1238
 7835TIP3    H244921   5.529   1.583  11.547 -1.4302 -3.3559  2.7094
 7836TIP3   OH244922   1.477   3.474  11.925 -0.2312  1.0068 -0.2400
 7836TIP3    H144923   1.437   3.539  11.867 -1.2519 -1.6645 -2.6176
 7836TIP3    H244924   1.421   3.473  12.002 -0.9534  1.9965 -0.7452
 7837TIP3   OH244925   1.797   0.948  11.793 -0.5514  0.1133  0.2832
 7837TIP3    H144926   1.786   0.857  11.767 -1.7987  0.3588 -0.0860
 7837TIP3    H244927   1.790   0.998  11.712  0.4464  0.5241  0.4366
 7838TIP3   OH244928   3.917   2.387   6.320  0.5361 -0.8176  0.5802
 7838TIP3    H144929   3.872   2.424   6.245  1.8120 -1.0480 -0.3091
 7838TIP3    H244930   4.009   2.413   6.310  0.7089 -0.7413  2.1189
 7839TIP3   OH244931   5.255   4.812  16.046  0.3175  0.1329  0.4660
 7839TIP3    H144932   5.266   4.902  16.014 -0.1281 -1.0454 -3.2662
 7839TIP3    H244933   5.344   4.778  16.054  0.4197  0.1797 -0.4264
 7840TIP3   OH244934   0.149   3.271   4.993 -0.2450 -0.5046  0.1780
 7840TIP3    H144935   0.105   3.197   5.037  1.7906 -1.8332  0.0398
 7840TIP3    H244936   0.078   3.333   4.974 -1.2998 -0.0079  5.0272
 7841TIP3   OH244937   5.001   0.484   4.560 -0.0342 -0.3653 -0.0005
 7841TIP3    H144938   4.971   0.415   4.501 -0.5794 -1.1737  1.2180
 7841TIP3    H244939   4.921   0.524   4.593  0.2698  1.9852 -1.9867
 7842TIP3   OH244940   0.668   1.889   0.197 -0.1682  0.3287 -0.0789
 7842TIP3    H144941   0.664   1.944   0.119  0.6448  0.7200  0.1525
 7842TIP3    H244942   0.596   1.920   0.252 -1.3314 -0.5699 -1.0727
 7843TIP3   OH244943   4.824   3.990   4.781 -0.0186 -0.5439  0.7191
 7843TIP3    H144944   4.780   4.008   4.864  0.7185 -2.0053  1.4525
 7843TIP3    H244945   4.811   3.896   4.768 -1.9521  0.0296 -1.8825
 7844TIP3   OH244946   3.739   5.347   4.498  0.5856  0.1796 -0.5137
 7844TIP3    H144947   3.678   5.400   4.447 -1.2512 -2.2903 -0.9257
 7844TIP3    H244948   3.800   5.411   4.535 -1.6322  2.5991 -0.8821
 7845TIP3   OH244949   2.700   4.591  15.031 -0.3783  0.3873 -0.4192
 7845TIP3    H144950   2.734   4.596  14.942  0.9593 -1.8116 -0.0671
 7845TIP3    H244951   2.665   4.678  15.048  0.0452  1.0658 -2.8060
 7846TIP3   OH244952   4.971   4.222   5.648  0.4414 -0.3475 -0.0692
 7846TIP3    H144953   5.063   4.198   5.653  0.4990 -0.4946 -1.5567
 7846TIP3    H244954   4.925   4.151   5.692  0.9927 -0.5351  0.2082
 7847TIP3   OH244955   1.550   0.263  14.767  1.0498 -0.2413  0.6665
 7847TIP3    H144956   1.606   0.223  14.833 -2.8183 -1.7762  3.2402
 7847TIP3    H244957   1.512   0.339  14.811  0.9940  0.6548 -0.9260
 7848TIP3   OH244958   3.539   3.685  15.259 -0.5005 -0.7882  0.2621
 7848TIP3    H144959   3.619   3.717  15.299  0.3886 -2.3570 -0.2161
 7848TIP3    H244960   3.529   3.738  15.179 -0.7364  0.3851  1.0609
 7849TIP3   OH244961   3.937   0.586  16.649 -0.2061 -0.3012 -0.1590
 7849TIP3    H144962   3.900   0.662  16.604  1.6304  0.2545 -0.7398
 7849TIP3    H244963   4.028   0.609  16.665  0.0452 -1.8838  0.7968
 7850TIP3   OH244964   1.814   3.797   1.080 -0.8651 -0.5638  0.2224
 7850TIP3    H144965   1.861   3.780   0.998 -0.1228 -2.4023  1.0148
 7850TIP3    H244966   1.880   3.788   1.148 -1.5925  0.4765  1.0791
 7851TIP3   OH244967   3.740   0.705   0.401 -0.2006 -0.2483 -0.4630
 7851TIP3    H144968   3.824   0.750   0.408 -0.0708 -0.7128  1.0556
 7851TIP3    H244969   3.751   0.624   0.451 -2.1895  0.6610  1.5588
 7852TIP3   OH244970   0.089   0.836   4.865  0.3500 -0.4183  0.4882
 7852TIP3    H144971   0.106   0.749   4.830 -1.6690 -0.4987 -0.3667
 7852TIP3    H244972   0.073   0.823   4.958  3.6133 -0.4796  1.0831
 7853TIP3   OH244973   4.828   3.039  16.363 -0.4526 -0.4330  0.5468
 7853TIP3    H144974   4.831   3.133  16.347 -0.1888 -0.6079 -0.5016
 7853TIP3    H244975   4.833   3.000  16.275  0.4256 -1.4449  1.0334
 7854TIP3   OH244976   4.664   0.836   3.275 -0.4008  0.3634 -0.4852
 7854TIP3    H144977   4.631   0.920   3.305  0.3353  0.6238 -0.3942
 7854TIP3    H244978   4.592   0.798   3.224 -0.5871  1.2320 -0.8774
 7855TIP3   OH244979   0.398   5.157  11.387  0.1684 -0.1874  0.7143
 7855TIP3    H144980   0.455   5.081  11.399  0.7301  0.5514  2.9420
 7855TIP3    H244981   0.310   5.124  11.407  0.0778 -0.7968 -0.6151
 7856TIP3   OH244982   0.512   2.811   4.209  0.6788 -0.3601  0.2562
 7856TIP3    H144983   0.543   2.726   4.176 -0.3452 -0.8175  0.4752
 7856TIP3    H244984   0.547   2.875   4.147  2.7785 -0.7887  0.9467
 7857TIP3   OH244985   1.817   1.166  14.135  1.1494 -0.1689 -0.2159
 7857TIP3    H144986   1.819   1.071  14.138 -0.4771 -0.4407 -4.4153
 7857TIP3    H244987   1.741   1.190  14.189  3.2289 -0.9872  3.2000
 7858TIP3   OH244988   2.963   5.082  15.494 -0.2581  0.5690  0.2869
 7858TIP3    H144989   3.048   5.101  15.454  0.0035  0.5764  0.8295
 7858TIP3    H244990   2.932   5.167  15.526  0.0167  0.4099  1.0065
 7859TIP3   OH244991   6.247   0.712  13.050 -0.1574 -0.2960  0.0076
 7859TIP3    H144992   6.223   0.799  13.019 -0.6229 -0.3611  0.1756
 7859TIP3    H244993   6.319   0.685  12.993 -1.2135 -0.5472 -1.2308
 7860TIP3   OH244994   0.877   0.178  12.621 -1.1004  0.4599  0.3439
 7860TIP3    H144995   0.864   0.216  12.708 -1.1741  0.9659  0.1119
 7860TIP3    H244996   0.862   0.084  12.634 -0.7554  0.4804  0.9505
 7861TIP3   OH244997   0.521   6.254  16.258 -0.5420 -0.3639 -0.6021
 7861TIP3    H144998   0.535   6.278  16.166  0.2730 -1.0627 -0.6692
 7861TIP3    H244999   0.496   6.162  16.255 -0.5984 -0.3659 -0.1206
 7862TIP3   OH245000   4.105   5.899   2.859  0.0276  0.4779  0.1898
 7862TIP3    H145001   4.200   5.904   2.873  0.1007  0.6261 -0.3327
 7862TIP3    H245002   4.075   5.833   2.922  0.5833 -0.1011 -0.1396
 7863TIP3   OH245003   0.336   0.053  12.357  0.4093  0.1949 -0.0443
 7863TIP3    H145004   0.271   0.079  12.291 -1.8192 -1.6123  1.3294
 7863TIP3    H245005   0.358  -0.038  12.334  1.4925  0.3818  0.2516
 7864TIP3   OH245006   1.020   1.521  12.829 -0.7696 -0.3441  0.1304
 7864TIP3    H145007   1.096   1.540  12.884  0.2442 -2.1390 -0.5815
 7864TIP3    H245008   0.949   1.504  12.891  0.1742 -1.6013  0.8899
 7865TIP3   OH245009   3.171   2.376  10.176  0.4530  0.4695 -0.2175
 7865TIP3    H145010   3.166   2.309  10.244 -0.3748 -0.6787 -1.3676
 7865TIP3    H245011   3.125   2.337  10.101  3.5588  0.6409 -2.2997
 7866TIP3   OH245012   4.938   2.238  15.053 -0.1079 -0.1896 -0.3204
 7866TIP3    H145013   5.028   2.210  15.067 -0.5756 -2.8654 -2.2613
 7866TIP3    H245014   4.892   2.216  15.134  0.3460 -1.6334 -0.4500
 7867TIP3   OH245015   5.596   5.406   0.232  0.4011  0.9205 -0.1803
 7867TIP3    H145016   5.650   5.455   0.170  0.6987  0.6562 -0.1325
 7867TIP3    H245017   5.540   5.350   0.178  1.0848  0.2440 -0.2009
 7868TIP3   OH245018   0.566   4.270  10.815 -0.1267 -0.2617 -0.5756
 7868TIP3    H145019   0.584   4.179  10.836  0.0134 -0.2358 -0.5819
 7868TIP3    H245020   0.537   4.269  10.724  1.5484 -0.1084 -1.1333
 7869TIP3   OH245021   0.754   2.822   1.145 -0.2951  0.3255  1.0187
 7869TIP3    H145022   0.809   2.883   1.095  0.0304 -1.5926 -1.0569
 7869TIP3    H245023   0.810   2.747   1.162 -1.9747 -1.2943 -0.3537
 7870TIP3   OH245024   2.278   4.345  15.397  0.3680 -0.4568 -0.2169
 7870TIP3    H145025   2.300   4.438  15.395  0.2720 -0.4322 -0.1408
 7870TIP3    H245026   2.184   4.342  15.379  0.4333 -0.5628 -0.5404
 7871TIP3   OH245027   6.141   5.882   5.891 -0.1342 -0.6198 -0.7181
 7871TIP3    H145028   6.171   5.823   5.822 -0.4684 -0.9590 -0.5731
 7871TIP3    H245029   6.221   5.924   5.922  0.0130 -0.4339 -1.3350
 7872TIP3   OH245030   1.240   1.428   4.231  0.1790  0.3430 -0.7734
 7872TIP3    H145031   1.169   1.375   4.195 -0.3043  0.0869  0.5531
 7872TIP3    H245032   1.319   1.377   4.212 -0.1666 -0.2563 -0.6241
 7873TIP3   OH245033   0.326   4.847  14.923 -0.2568 -0.2328  0.4726
 7873TIP3    H145034   0.291   4.758  14.922 -1.5968  0.2699 -1.7470
 7873TIP3    H245035   0.317   4.877  14.832  0.5468  2.0270  1.1044
 7874TIP3   OH245036   2.047   6.627   1.297 -0.3267  0.3625  0.7889
 7874TIP3    H145037   1.974   6.683   1.324 -1.0412 -0.4912  0.6370
 7874TIP3    H245038   2.054   6.642   1.202 -1.8480 -1.3245  0.3759
 7875TIP3   OH245039   0.210   1.874   5.528 -0.7841 -0.4139  0.6646
 7875TIP3    H145040   0.279   1.939   5.540 -0.1539 -1.0846  0.6839
 7875TIP3    H245041   0.229   1.806   5.592 -0.8728 -1.1034 -0.0290
 7876TIP3   OH245042   1.074   0.271   6.632  0.7303  0.3306 -0.1489
 7876TIP3    H145043   1.136   0.246   6.700  0.9180  2.3323  0.4581
 7876TIP3    H245044   1.073   0.367   6.635 -0.8852  0.3777 -1.5010
 7877TIP3   OH245045   1.617   1.632  14.960  0.1456  0.6514  0.8686
 7877TIP3    H145046   1.641   1.660  14.871  0.4492 -1.9070  0.0807
 7877TIP3    H245047   1.548   1.693  14.987 -0.5652  0.9470 -1.4878
 7878TIP3   OH245048   1.159   1.501  15.049  0.3395  0.4312  0.1664
 7878TIP3    H145049   1.143   1.516  14.956 -1.3633  1.5347  0.6002
 7878TIP3    H245050   1.254   1.506  15.059  0.8184 -2.8542 -2.0062
 7879TIP3   OH245051   0.372   3.379   1.013  0.1748 -0.3470 -0.8407
 7879TIP3    H145052   0.433   3.411   0.947  0.3683  0.6299 -0.2005
 7879TIP3    H245053   0.307   3.329   0.964  1.5723 -1.5396 -1.5086
 7880TIP3   OH245054   5.737   0.767   0.100  0.3830 -0.0512  0.2893
 7880TIP3    H145055   5.705   0.848   0.139  1.3800 -0.0064  1.0392
 7880TIP3    H245056   5.688   0.757   0.019  0.0881  1.1710  0.3206
 7881TIP3   OH245057   3.252   1.715  15.715 -0.3447 -0.2248 -0.9451
 7881TIP3    H145058   3.242   1.736  15.622 -1.6354  0.7496 -0.6012
 7881TIP3    H245059   3.230   1.622  15.720  0.6503 -0.5160 -1.7455
 7882TIP3   OH245060   6.398   6.492  13.890 -0.4446 -0.0309 -0.1599
 7882TIP3    H145061   6.342   6.467  13.963  0.1414 -2.0182 -0.3545
 7882TIP3    H245062   6.423   6.408  13.849  0.5637  0.9574 -1.6233
 7883TIP3   OH245063   4.847   0.286  16.462  0.1710  0.5216 -0.7172
 7883TIP3    H145064   4.800   0.359  16.420  1.7879  2.9320  1.5020
 7883TIP3    H245065   4.824   0.293  16.554  1.8878 -0.5913 -0.1954
 7884TIP3   OH245066   0.943   2.906  16.239 -0.0887 -0.1074  0.2578
 7884TIP3    H145067   0.882   2.839  16.207 -0.8236  1.1030 -0.9417
 7884TIP3    H245068   0.938   2.898  16.335 -0.2093 -1.7060  0.1402
 7885TIP3   OH245069   6.595   5.681   6.189 -0.0571 -0.0054 -0.8382
 7885TIP3    H145070   6.628   5.696   6.278  2.1971 -0.9398 -1.4798
 7885TIP3    H245071   6.580   5.769   6.154 -1.4843  0.3759  0.6027
 7886TIP3   OH245072   0.303   2.972  12.092  0.2824 -0.3855 -0.3537
 7886TIP3    H145073   0.375   3.030  12.116 -0.1341  0.1797 -0.4592
 7886TIP3    H245074   0.323   2.943  12.003  0.3640 -0.2073 -0.3934
 7887TIP3   OH245075   1.135   4.729  13.976 -0.2525  0.1296  0.3030
 7887TIP3    H145076   1.142   4.747  13.882  0.3603 -0.8878  0.1443
 7887TIP3    H245077   1.144   4.634  13.983 -0.5743  0.1692  1.3702
 7888TIP3   OH245078   2.834   3.674  11.787 -0.2038  0.6406 -0.2394
 7888TIP3    H145079   2.835   3.602  11.850 -2.2890  0.0879 -0.8218
 7888TIP3    H245080   2.918   3.668  11.742 -0.7233 -1.9735 -0.9078
 7889TIP3   OH245081   2.271   6.764   2.554  0.1300  0.0898 -0.4836
 7889TIP3    H145082   2.218   6.686   2.569  0.6224 -0.3009 -0.7496
 7889TIP3    H245083   2.230   6.807   2.479 -2.0456  1.7956  1.5950
 7890TIP3   OH245084   1.263   6.331   1.304 -0.3057  0.0128  0.1971
 7890TIP3    H145085   1.233   6.286   1.383  0.0898  0.0150  0.3519
 7890TIP3    H245086   1.351   6.361   1.326 -1.0159  1.9430  0.5304
 7891TIP3   OH245087   0.509   0.719   3.676  0.2362 -0.2030  0.2352
 7891TIP3    H145088   0.524   0.721   3.582 -0.1134 -0.7169  0.1647
 7891TIP3    H245089   0.516   0.627   3.700  1.1096  0.0185  0.8445
 7892TIP3   OH245090   1.951   5.181  13.576  0.2061 -0.2100  0.4343
 7892TIP3    H145091   2.026   5.231  13.609  0.2453  0.9585 -1.3249
 7892TIP3    H245092   1.990   5.111  13.524  0.1136 -0.9674  1.3818
 7893TIP3   OH245093   0.229   1.573  13.741  0.2752 -0.7536  0.1558
 7893TIP3    H145094   0.257   1.481  13.749  0.8818 -0.4147  2.0430
 7893TIP3    H245095   0.203   1.581  13.649  1.6366 -2.4270 -0.4142
 7894TIP3   OH245096   4.358   1.376   5.966  0.2353  0.2864 -0.0226
 7894TIP3    H145097   4.281   1.418   6.003 -0.5487 -0.4382 -0.7989
 7894TIP3    H245098   4.428   1.393   6.029 -0.6088  0.7538  0.7965
 7895TIP3   OH245099   2.005   4.467  14.794  0.0884 -0.3148  0.0843
 7895TIP3    H145100   1.952   4.432  14.722 -0.5611  0.3257  0.2448
 7895TIP3    H245101   1.979   4.416  14.870 -1.2017  0.7964  0.4148
 7896TIP3   OH245102   3.367   6.115   3.976 -0.6265 -0.2030 -0.4480
 7896TIP3    H145103   3.372   6.210   3.964  1.7668 -0.2320  0.1642
 7896TIP3    H245104   3.273   6.096   3.970 -1.2462  2.3245  0.3994
 7897TIP3   OH245105   3.253   3.894   5.412  0.3221  0.2355 -0.3075
 7897TIP3    H145106   3.347   3.908   5.403  0.2411  0.8801 -0.1817
 7897TIP3    H245107   3.213   3.962   5.357 -0.0898  0.8965  0.7896
 7898TIP3   OH245108   1.720   0.016   3.364  0.3435  0.1991  0.2723
 7898TIP3    H145109   1.671  -0.005   3.444 -3.3825 -0.4182 -2.0579
 7898TIP3    H245110   1.704   0.109   3.350  1.8926  0.5619  0.7637
 7899TIP3   OH245111   5.386   5.785  13.083 -0.4594  0.3885 -0.2149
 7899TIP3    H145112   5.408   5.696  13.053  0.3112  0.0163  1.4205
 7899TIP3    H245113   5.457   5.840  13.051  0.6849 -0.1100  1.4148
 7900TIP3   OH245114   1.820   3.282   4.755  0.1446 -0.0665 -0.1495
 7900TIP3    H145115   1.832   3.308   4.846 -0.8344 -0.8082  0.2085
 7900TIP3    H245116   1.851   3.191   4.752 -0.6207 -0.3291 -0.3486
 7901TIP3   OH245117   2.226   5.311  14.615 -0.1488 -0.4859  0.4296
 7901TIP3    H145118   2.152   5.252  14.625 -1.0843  0.8268  1.3597
 7901TIP3    H245119   2.215   5.376  14.685 -0.2014  1.8860 -1.6958
 7902TIP3   OH245120   3.701   5.571  11.982 -0.2400 -0.5423  0.2342
 7902TIP3    H145121   3.696   5.666  11.982  1.9693 -0.4123  0.5296
 7902TIP3    H245122   3.727   5.547  12.071  2.0214 -1.2258 -0.5709
 7903TIP3   OH245123   4.680   1.534  14.282 -0.7203 -0.1024 -0.0059
 7903TIP3    H145124   4.655   1.536  14.190  0.3890 -0.0458 -0.3170
 7903TIP3    H245125   4.601   1.559  14.329 -0.7600  1.8444 -1.0567
 7904TIP3   OH245126   5.747   3.617  15.379 -0.0590  0.0934 -0.3705
 7904TIP3    H145127   5.759   3.561  15.302 -0.9595 -0.2664 -0.2459
 7904TIP3    H245128   5.800   3.575  15.447 -1.6502 -1.2776  0.0567
 7905TIP3   OH245129   1.450   5.549   5.301  0.1851  0.3616  0.1718
 7905TIP3    H145130   1.397   5.557   5.222  1.6202 -2.1697 -1.1161
 7905TIP3    H245131   1.390   5.513   5.367 -0.0278 -1.2671 -0.9011
 7906TIP3   OH245132   4.474   5.039  13.469 -0.3982 -0.7236 -0.2453
 7906TIP3    H145133   4.553   5.087  13.442  0.0647 -2.5251 -2.1984
 7906TIP3    H245134   4.493   5.013  13.560  0.9366 -0.4761 -0.4315
 7907TIP3   OH245135   4.629   0.323   3.409 -0.5801 -0.4189 -0.3591
 7907TIP3    H145136   4.645   0.265   3.334 -1.6141 -0.6853 -0.3761
 7907TIP3    H245137   4.584   0.399   3.370 -1.1955 -0.5969  0.0004
 7908TIP3   OH245138   4.905   2.269   5.047  0.0188 -0.0756 -0.5214
 7908TIP3    H145139   4.867   2.273   4.959  0.4342  0.1323 -0.6928
 7908TIP3    H245140   4.910   2.361   5.074 -0.2852 -0.1497 -0.2018
 7909TIP3   OH245141   5.960   4.177   4.738 -0.1554  0.0850 -0.5254
 7909TIP3    H145142   5.906   4.225   4.801 -0.0118  2.0663 -1.8532
 7909TIP3    H245143   6.038   4.153   4.787 -1.4626 -1.2745  0.9336
 7910TIP3   OH245144   0.402   4.267  13.202  0.0600 -0.6565 -0.8191
 7910TIP3    H145145   0.410   4.353  13.162 -0.1436 -0.4069 -0.3247
 7910TIP3    H245146   0.489   4.250  13.240 -0.0452 -0.4502 -0.4827
 7911TIP3   OH245147   1.924   1.882   5.170  0.4454 -0.2148 -0.1833
 7911TIP3    H145148   2.017   1.864   5.154  0.8247 -0.2246  1.8016
 7911TIP3    H245149   1.879   1.802   5.143  1.0395 -0.2714 -1.0174
 7912TIP3   OH245150   5.326   0.171  16.369 -0.2183  0.4081  0.2862
 7912TIP3    H145151   5.265   0.243  16.385  0.1587  0.4970  1.3820
 7912TIP3    H245152   5.281   0.094  16.406 -0.5817  0.0934 -0.7980
 7913TIP3   OH245153   5.315   4.724   5.485  0.4844  0.1847  0.0930
 7913TIP3    H145154   5.265   4.680   5.554 -0.3111 -0.7432 -1.0563
 7913TIP3    H245155   5.273   4.696   5.404  0.8602  1.9393 -0.7374
 7914TIP3   OH245156   3.216   2.402  13.130  0.0270  0.1896 -0.1454
 7914TIP3    H145157   3.303   2.417  13.167  0.4327 -0.6118 -0.7458
 7914TIP3    H245158   3.198   2.479  13.077 -0.1845  0.9466  1.0088
 7915TIP3   OH245159   1.534   4.798  11.591 -0.0663 -0.2228  0.0263
 7915TIP3    H145160   1.600   4.844  11.643 -2.8252  3.5843  0.4325
 7915TIP3    H245161   1.508   4.862  11.524 -1.3804 -2.6231 -1.8614
 7916TIP3   OH245162   5.309   0.209  15.416  0.5891  0.5600  0.2992
 7916TIP3    H145163   5.353   0.155  15.351  0.9165 -0.2315  1.1713
 7916TIP3    H245164   5.356   0.293  15.413  1.4126  0.1088  0.4015
 7917TIP3   OH245165   0.373   4.330  10.607 -0.1334  0.0132  0.6028
 7917TIP3    H145166   0.453   4.369  10.570  0.2343 -1.6308 -0.4022
 7917TIP3    H245167   0.302   4.375  10.562  0.2178  1.3289  1.3354
 7918TIP3   OH245168   6.071   6.227  13.682 -0.4373 -0.1294  0.0112
 7918TIP3    H145169   6.139   6.245  13.747  0.9188 -1.4850 -1.0071
 7918TIP3    H245170   6.084   6.135  13.659 -1.7383 -0.0136 -1.2327
 7919TIP3   OH245171   3.908   1.271  12.732  0.1983  0.8435  0.1028
 7919TIP3    H145172   3.963   1.203  12.693 -0.7166 -0.6544  1.3638
 7919TIP3    H245173   3.851   1.224  12.793 -0.7506  2.6926  0.6860
 7920TIP3   OH245174   0.422   6.313   0.263 -0.0405 -0.7049 -0.0441
 7920TIP3    H145175   0.357   6.284   0.327  0.5404 -0.9685  0.4384
 7920TIP3    H245176   0.481   6.238   0.254  0.3114 -0.3952 -0.3194
 7921TIP3   OH245177   4.524   0.482  16.969 -0.2687  0.1919 -0.1741
 7921TIP3    H145178   4.616   0.460  16.956 -0.0535  1.1450 -0.2658
 7921TIP3    H245179   4.492   0.415  17.029  0.6744  0.3082  0.4638
 7922TIP3   OH245180   1.767   3.067   3.076  0.3548  0.5936  0.4219
 7922TIP3    H145181   1.832   3.054   3.146  0.3902  0.5729  0.3852
 7922TIP3    H245182   1.760   2.981   3.034  2.7132  1.4006 -1.6965
 7923TIP3   OH245183   5.717   0.109  14.943 -0.2367 -0.0662 -0.1723
 7923TIP3    H145184   5.659   0.152  15.006  0.5616 -0.2013  0.6633
 7923TIP3    H245185   5.772   0.179  14.909  1.4044 -0.4894  1.5622
 7924TIP3   OH245186   3.968   6.678   3.699 -0.2403 -0.4657 -0.1063
 7924TIP3    H145187   4.036   6.659   3.634  0.3394 -1.6766  0.8131
 7924TIP3    H245188   3.987   6.616   3.771 -1.6356 -0.0355  0.6419
 7925TIP3   OH245189   3.485   1.167  11.058 -0.5324 -0.1109 -0.0824
 7925TIP3    H145190   3.530   1.192  11.138 -0.9749 -0.7725  0.3843
 7925TIP3    H245191   3.550   1.120  11.006 -0.7534 -1.3091  0.7104
 7926TIP3   OH245192   4.217   5.664   5.193 -0.1497  0.1030 -0.5138
 7926TIP3    H145193   4.276   5.688   5.264 -1.2055 -0.1946  0.4672
 7926TIP3    H245194   4.275   5.630   5.125  0.7752 -0.7191  0.6681
 7927TIP3   OH245195   0.999   0.519   5.801 -0.6280  0.2668 -0.4608
 7927TIP3    H145196   1.023   0.589   5.740 -0.8265  0.4126 -0.3732
 7927TIP3    H245197   0.913   0.545   5.834  0.0929  0.9356  0.9685
 7928TIP3   OH245198   4.006   1.268   3.611 -0.1512  0.4691 -0.2277
 7928TIP3    H145199   4.053   1.350   3.625 -0.2382  0.8683 -2.1788
 7928TIP3    H245200   3.929   1.292   3.561 -0.5446 -0.7041 -0.2024
 7929TIP3   OH245201   3.208   5.037   4.295 -0.1330  0.3652  0.3005
 7929TIP3    H145202   3.196   5.091   4.373  1.2911  0.7158  0.2962
 7929TIP3    H245203   3.236   5.098   4.227  1.6710 -0.3748  0.3388
 7930TIP3   OH245204   3.991   1.345  14.924  0.1034  0.1905 -0.4468
 7930TIP3    H145205   4.072   1.301  14.900  1.0687  2.1306 -0.8219
 7930TIP3    H245206   3.959   1.383  14.843 -1.0594 -0.3423 -0.2479
 7931TIP3   OH245207   5.164   0.339  10.029 -0.7724 -0.0046  0.7233
 7931TIP3    H145208   5.219   0.410  10.063  2.6187 -1.2738 -1.8191
 7931TIP3    H245209   5.129   0.373   9.947 -2.6244  0.2172  1.5723
 7932TIP3   OH245210   0.501   1.530  12.822  0.7186  0.5110 -0.2495
 7932TIP3    H145211   0.533   1.552  12.735  1.6479  1.4423  0.3181
 7932TIP3    H245212   0.450   1.606  12.849  1.3059  0.6718  0.4341
 7933TIP3   OH245213   0.114   0.844   5.504 -0.2061 -0.3455  0.5564
 7933TIP3    H145214   0.068   0.790   5.568  0.7337 -0.2859  1.2822
 7933TIP3    H245215   0.129   0.927   5.548 -0.7367  0.1670 -0.2086
 7934TIP3   OH245216   1.912   3.372   2.252  0.2473  0.0683 -0.0203
 7934TIP3    H145217   1.878   3.384   2.163  1.2938  1.1721 -0.2939
 7934TIP3    H245218   1.979   3.305   2.243  0.8566  0.6988 -0.2010
 7935TIP3   OH245219   6.356   2.329   0.175  0.1693  0.2317  0.0128
 7935TIP3    H145220   6.303   2.281   0.112  0.4711  0.6322 -0.5602
 7935TIP3    H245221   6.400   2.397   0.122  0.9464  0.1445  0.5354
 7936TIP3   OH245222   4.375   5.430   5.551 -0.0986  0.0313  0.0505
 7936TIP3    H145223   4.316   5.414   5.477 -0.0621  1.6158 -0.3435
 7936TIP3    H245224   4.318   5.421   5.628 -0.1929 -1.3695 -0.1646
 7937TIP3   OH245225   2.036   6.028   0.735 -0.2391  0.0117  0.1719
 7937TIP3    H145226   1.999   6.018   0.647  0.4291 -0.5628 -0.0423
 7937TIP3    H245227   2.027   5.941   0.774  1.5187 -0.3071 -0.1259
 7938TIP3   OH245228   4.917   1.565  12.810  0.0620  0.2283 -0.0315
 7938TIP3    H145229   4.920   1.471  12.830  1.0164 -0.0116 -1.2284
 7938TIP3    H245230   4.904   1.607  12.895  0.6671 -0.9318  0.6526
 7939TIP3   OH245231   5.547   6.327  12.827 -0.0233 -0.1740 -1.0315
 7939TIP3    H145232   5.519   6.291  12.912 -0.9074  1.1995 -0.7195
 7939TIP3    H245233   5.469   6.373  12.794  0.0525 -1.3874 -2.9822
 7940TIP3   OH245234   0.338   5.803  11.978  0.0528 -0.2057  0.7949
 7940TIP3    H145235   0.360   5.766  12.064  0.4895  2.3904  1.8560
 7940TIP3    H245236   0.385   5.886  11.976 -2.6670  1.3410 -0.5654
 7941TIP3   OH245237   3.478   1.908  16.633  0.2842 -0.4821  0.0360
 7941TIP3    H145238   3.439   1.950  16.711 -1.2895  1.0929 -1.5519
 7941TIP3    H245239   3.452   1.817  16.639  0.8497 -0.5487  1.7744
 7942TIP3   OH245240   3.867   3.334  16.496 -0.4071  0.7821 -0.0966
 7942TIP3    H145241   3.963   3.333  16.496 -0.3713 -2.1409 -0.4008
 7942TIP3    H245242   3.843   3.390  16.423  1.0726  1.6537  0.0651
 7943TIP3   OH245243   1.695   4.616   1.223  0.3661  0.3055 -0.6331
 7943TIP3    H145244   1.609   4.642   1.191  0.1073  0.7560  0.3940
 7943TIP3    H245245   1.746   4.698   1.225 -0.4362  0.8098  2.5568
 7944TIP3   OH245246   3.543   5.394  14.391  0.3784 -0.0733  0.5391
 7944TIP3    H145247   3.488   5.431  14.322  0.5768  0.6291  0.7627
 7944TIP3    H245248   3.518   5.301  14.393 -1.0794  0.3059  0.8938
 7945TIP3   OH245249   2.075   0.000   0.503 -0.0577  0.6651  0.3071
 7945TIP3    H145250   2.083  -0.083   0.455 -1.5690  1.5294 -1.5290
 7945TIP3    H245251   2.021   0.055   0.446  2.2388  3.4826  0.7465
 7946TIP3   OH245252   2.109   6.226   5.709 -0.2238  0.1939  0.1064
 7946TIP3    H145253   2.019   6.194   5.701 -0.7885  1.2511  2.0566
 7946TIP3    H245254   2.147   6.171   5.777 -0.1478  1.3708  1.0225
 7947TIP3   OH245255   5.094   3.951  13.992  0.2848 -0.3604  0.2423
 7947TIP3    H145256   5.179   3.925  14.028  0.8535  0.2930 -0.5988
 7947TIP3    H245257   5.079   3.890  13.919  0.3278 -0.0773 -0.0046
 7948TIP3   OH245258   5.692   2.221   5.274 -0.5957 -0.4033 -0.2364
 7948TIP3    H145259   5.681   2.169   5.194 -0.1520 -2.6086  1.0812
 7948TIP3    H245260   5.625   2.288   5.268  0.2597  0.2839 -3.0706
 7949TIP3   OH245261   5.952   3.022   3.030 -0.7307 -0.2168 -0.2410
 7949TIP3    H145262   6.041   2.992   3.011 -0.9041  0.3274 -2.0529
 7949TIP3    H245263   5.939   3.003   3.123  1.2588 -0.3411  0.0373
 7950TIP3   OH245264   4.875   1.754  11.302 -0.0209  0.7434  0.0840
 7950TIP3    H145265   4.890   1.756  11.397 -1.3786  2.2705  0.2890
 7950TIP3    H245266   4.959   1.780  11.264  0.1141  1.5985  0.9358
 7951TIP3   OH245267   4.294   6.350  14.190  0.0903 -0.2142  0.2872
 7951TIP3    H145268   4.256   6.340  14.278  2.0972 -0.9298  1.1243
 7951TIP3    H245269   4.329   6.439  14.189  2.5505 -1.1352  1.2716
 7952TIP3   OH245270   4.929   2.391  11.516 -0.0705 -0.2034 -0.1917
 7952TIP3    H145271   4.908   2.482  11.535 -1.1998 -0.7325  1.2542
 7952TIP3    H245272   5.024   2.389  11.506  0.3284  0.6176  2.8775
 7953TIP3   OH245273   4.377   3.076  17.119 -0.7287 -0.3230  0.4437
 7953TIP3    H145274   4.289   3.093  17.085 -1.4728 -0.9118  2.0205
 7953TIP3    H245275   4.391   2.982  17.104 -0.9869 -0.5475  1.5625
 7954TIP3   OH245276   2.612   3.482   0.844  0.5230  0.1767 -0.0807
 7954TIP3    H145277   2.666   3.482   0.922 -0.3122 -0.9878  0.5136
 7954TIP3    H245278   2.606   3.390   0.818  0.4890  0.5130 -1.2963
 7955TIP3   OH245279   3.294   3.957   5.885 -0.4470  0.5060 -0.2010
 7955TIP3    H145280   3.346   3.950   5.965 -0.7082  2.1566  0.1372
 7955TIP3    H245281   3.215   3.906   5.903 -1.1307  1.9960  1.1357
 7956TIP3   OH245282   4.370   1.128  11.841  0.4811  0.0826 -0.6503
 7956TIP3    H145283   4.318   1.206  11.822  1.7525  1.2556  0.5995
 7956TIP3    H245284   4.429   1.119  11.766  1.4076  1.2371 -0.0665
 7957TIP3   OH245285   4.010   5.711  12.422 -0.0376 -0.2469  0.5770
 7957TIP3    H145286   3.923   5.675  12.405 -0.2382 -0.2198  1.4912
 7957TIP3    H245287   4.032   5.761  12.343 -0.3359 -1.2371 -0.1392
 7958TIP3   OH245288   5.647   2.390  14.389  0.1196 -0.5875  1.1750
 7958TIP3    H145289   5.622   2.321  14.328  0.8743 -0.3003  0.5399
 7958TIP3    H245290   5.573   2.450  14.390 -0.5728 -1.4315  1.7805
 7959TIP3   OH245291   0.710   3.923   1.340  0.4715 -0.9536 -0.1172
 7959TIP3    H145292   0.632   3.907   1.393 -0.4808 -3.2943 -2.1454
 7959TIP3    H245293   0.743   4.008   1.371  0.1340 -2.3065  4.3626
 7960TIP3   OH245294   0.897   2.061  15.662 -0.2212  0.1095  0.0021
 7960TIP3    H145295   0.809   2.089  15.685 -0.0199  0.7762 -0.0237
 7960TIP3    H245296   0.888   2.021  15.576 -0.5444 -0.0583  0.1131
 7961TIP3   OH245297   2.771   0.292   5.710 -0.0491  0.1275 -0.0255
 7961TIP3    H145298   2.695   0.350   5.718 -0.0306  0.0207  0.9878
 7961TIP3    H245299   2.760   0.249   5.625 -0.0651  1.6096 -0.7856
 7962TIP3   OH245300   3.010   3.472   3.298 -0.2171  0.5600 -0.6402
 7962TIP3    H145301   2.976   3.538   3.359  0.6157  1.1584 -0.8092
 7962TIP3    H245302   2.991   3.389   3.341 -0.8314  0.9257 -0.1852
 7963TIP3   OH245303   4.015   5.715   2.278  0.8419 -0.0064 -0.2570
 7963TIP3    H145304   4.018   5.752   2.189  3.4413  0.9700  0.1755
 7963TIP3    H245305   3.961   5.776   2.327  0.4385  0.1463 -0.8844
 7964TIP3   OH245306   1.283   6.109   5.769  1.1494 -0.1951  0.6611
 7964TIP3    H145307   1.249   6.150   5.689  2.5427 -1.8031 -0.7973
 7964TIP3    H245308   1.204   6.084   5.818  0.2224 -0.9572 -1.1588
 7965TIP3   OH245309   4.419   2.555   1.905  0.4726 -0.4511  0.0512
 7965TIP3    H145310   4.472   2.634   1.897  1.0415 -0.6597  1.7906
 7965TIP3    H245311   4.477   2.484   1.876  0.5509 -0.4666  0.2516
 7966TIP3   OH245312   1.155   1.389   3.255  0.2102  0.4289  0.4737
 7966TIP3    H145313   1.097   1.381   3.331  1.3547  1.6102  1.5088
 7966TIP3    H245314   1.236   1.425   3.291  0.9182  0.6069 -1.2513
 7967TIP3   OH245315   6.126   1.752   3.882 -0.3367  0.5184  0.0713
 7967TIP3    H145316   6.219   1.735   3.869 -0.0826  1.9417 -0.0194
 7967TIP3    H245317   6.082   1.676   3.844  0.7418  0.4807 -1.1373
 7968TIP3   OH245318   4.124   5.910   0.684  0.1866  0.1661 -0.1306
 7968TIP3    H145319   4.041   5.862   0.682 -0.0056  0.5228 -2.2769
 7968TIP3    H245320   4.172   5.872   0.758 -0.9191 -1.6918 -0.3218
 7969TIP3   OH245321   6.284   4.084  11.714 -0.6354  0.0380 -0.4213
 7969TIP3    H145322   6.348   4.060  11.647 -0.1596  1.2535 -0.4285
 7969TIP3    H245323   6.210   4.118  11.664 -0.9402 -0.5746 -0.3839
 7970TIP3   OH245324   0.565   3.710   2.512 -0.4171 -0.5572  0.3650
 7970TIP3    H145325   0.514   3.638   2.550  0.0069  0.3637  2.8182
 7970TIP3    H245326   0.501   3.765   2.468 -0.8840 -1.8596 -0.6221
 7971TIP3   OH245327   4.808   3.588  17.169 -0.2125 -0.1591  0.2907
 7971TIP3    H145328   4.760   3.668  17.191  0.4685 -0.0832  1.5277
 7971TIP3    H245329   4.744   3.518  17.177 -1.3426  0.4466 -2.7296
 7972TIP3   OH245330   6.182   2.558  16.689  0.4536  0.6547  0.6841
 7972TIP3    H145331   6.139   2.536  16.606  0.8875  3.0016 -0.1924
 7972TIP3    H245332   6.110   2.586  16.746  0.3488  0.5409  0.6076
 7973TIP3   OH245333   0.466   1.300  15.620  0.1789 -0.1216  0.1769
 7973TIP3    H145334   0.455   1.232  15.686 -1.0385  0.8254  0.9653
 7973TIP3    H245335   0.529   1.263  15.558 -1.6796 -2.6584 -0.2891
 7974TIP3   OH245336   5.604   0.421  12.893 -0.1081  0.4434  0.4835
 7974TIP3    H145337   5.652   0.484  12.839  0.3473  0.1994  0.6014
 7974TIP3    H245338   5.635   0.436  12.982  0.6821 -0.5659  0.3846
 7975TIP3   OH245339   2.612   3.286   5.254 -0.5058  0.0096  0.2907
 7975TIP3    H145340   2.588   3.217   5.192  1.1638 -0.6762  0.4008
 7975TIP3    H245341   2.577   3.256   5.338 -0.0687 -0.5438  0.2760
 7976TIP3   OH245342   5.198   5.838   3.918 -0.6448  0.6280 -0.4901
 7976TIP3    H145343   5.107   5.811   3.917 -0.3685 -0.3349  0.4194
 7976TIP3    H245344   5.235   5.799   3.997  0.6600  0.6616 -1.0617
 7977TIP3   OH245345   2.453   6.326  12.454 -0.3560 -0.6248 -0.8807
 7977TIP3    H145346   2.432   6.383  12.528  2.1318  0.7353 -1.1625
 7977TIP3    H245347   2.449   6.237  12.490 -1.2903 -0.1142  0.3168
 7978TIP3   OH245348   4.147   0.073   2.306 -0.2370 -0.2222 -0.1104
 7978TIP3    H145349   4.087   0.041   2.373 -1.8304  3.6052  0.4158
 7978TIP3    H245350   4.228   0.095   2.353 -1.1086  1.7832  0.5178
 7979TIP3   OH245351   4.859   3.684  11.899 -0.0397  0.6866 -0.3439
 7979TIP3    H145352   4.900   3.768  11.882  0.3374  0.2225 -1.8223
 7979TIP3    H245353   4.799   3.671  11.825  0.8164 -0.8947 -0.7929
 7980TIP3   OH245354   1.216   3.864  13.453  0.0891  0.0294  0.7877
 7980TIP3    H145355   1.241   3.788  13.506 -0.0211  0.2455  1.1518
 7980TIP3    H245356   1.145   3.832  13.397 -0.3845  0.0258  1.3828
 7981TIP3   OH245357   6.538   5.584   2.667 -0.3489 -0.5094 -0.1099
 7981TIP3    H145358   6.508   5.529   2.595  0.3844  2.5745 -2.8930
 7981TIP3    H245359   6.631   5.563   2.677  0.2444  1.1026 -2.0423
 7982TIP3   OH245360   2.078   4.403   0.030 -0.1585  0.0384  0.4676
 7982TIP3    H145361   2.035   4.325  -0.004 -1.5885  0.4174  1.3503
 7982TIP3    H245362   2.098   4.456  -0.047 -0.8518 -0.3554  0.0181
 7983TIP3   OH245363   3.320   6.713  13.659 -0.2132 -0.3046 -0.8413
 7983TIP3    H145364   3.282   6.737  13.575  0.4999  0.4745 -0.9470
 7983TIP3    H245365   3.411   6.739  13.652 -0.3905  0.7294  0.5518
 7984TIP3   OH245366   1.069   5.703   4.342  0.0178  0.5964  0.0662
 7984TIP3    H145367   1.143   5.757   4.371  0.5481 -0.4021  0.5837
 7984TIP3    H245368   1.063   5.633   4.406  0.6562 -1.1543 -1.7233
 7985TIP3   OH245369   1.133   1.183   5.863  0.1705  0.5206 -0.3713
 7985TIP3    H145370   1.150   1.199   5.771  0.5028  0.2884 -0.3510
 7985TIP3    H245371   1.206   1.225   5.909  0.5936 -0.3063 -0.2726
 7986TIP3   OH245372   5.039   4.120  12.297 -0.5954  0.4371 -0.4767
 7986TIP3    H145373   4.947   4.106  12.276 -0.6218  1.3099 -0.9605
 7986TIP3    H245374   5.047   4.215  12.306  0.5611  0.4851 -1.8650
 7987TIP3   OH245375   2.662   5.140  12.691  0.5164 -0.0413 -0.2954
 7987TIP3    H145376   2.570   5.149  12.716  0.5635 -0.4434  0.0328
 7987TIP3    H245377   2.689   5.057  12.731  1.1531  0.3183  0.0175
 7988TIP3   OH245378   2.217   5.755  14.889 -0.0082 -0.0310  0.5770
 7988TIP3    H145379   2.297   5.809  14.887 -0.8490  1.2236  0.1702
 7988TIP3    H245380   2.157   5.800  14.830 -1.0881 -0.8745  1.0271
 7989TIP3   OH245381   6.151   0.443  14.974  0.0306 -0.4436  0.0400
 7989TIP3    H145382   6.137   0.388  15.052  0.8905 -0.5252  0.1376
 7989TIP3    H245383   6.219   0.397  14.925 -0.0748 -0.0640 -0.4551
 7990TIP3   OH245384   5.583   0.277  16.910 -0.5338  0.3526  0.4477
 7990TIP3    H145385   5.637   0.355  16.923 -0.5629 -0.1676  4.0573
 7990TIP3    H245386   5.493   0.312  16.904 -0.2589  0.8374 -1.4968
 7991TIP3   OH245387   5.020   5.508   1.180 -0.4224 -0.2890 -0.0526
 7991TIP3    H145388   5.039   5.530   1.089  0.1244 -1.3114 -0.1897
 7991TIP3    H245389   5.101   5.468   1.212 -1.0395 -1.0819  0.5095
 7992TIP3   OH245390   3.613   4.095   6.296  0.3675  0.5910 -0.4869
 7992TIP3    H145391   3.614   4.024   6.360  0.0561  1.6789  0.7288
 7992TIP3    H245392   3.546   4.155   6.327  2.2467  2.5972 -0.1940
 7993TIP3   OH245393   5.226   1.500  13.076 -0.2084  0.1558 -0.4765
 7993TIP3    H145394   5.131   1.497  13.084 -0.1224  0.3431  0.6283
 7993TIP3    H245395   5.251   1.410  13.054 -0.5473 -0.1274  0.2734
 7994TIP3   OH245396   3.351   1.942   4.293  0.2616  0.2508 -0.2606
 7994TIP3    H145397   3.299   2.015   4.327  1.0736 -0.2677  2.1971
 7994TIP3    H245398   3.299   1.864   4.316  0.9640 -0.1221  0.0690
 7995TIP3   OH245399   5.191   5.880  13.662  0.4400 -0.1492 -0.3195
 7995TIP3    H145400   5.257   5.816  13.687 -0.0516 -1.4005 -2.0671
 7995TIP3    H245401   5.240   5.950  13.618  0.7564 -0.4329 -0.4187
 7996TIP3   OH245402   0.158   2.102  12.892 -0.6730  0.0972 -0.0527
 7996TIP3    H145403   0.172   2.138  12.804  0.8772  2.2139  1.0128
 7996TIP3    H245404   0.246   2.097  12.930 -1.2472 -1.5184  1.1297
 7997TIP3   OH245405   6.046   3.053  15.405  0.2697  0.0265 -0.2459
 7997TIP3    H145406   6.132   3.061  15.446  0.1274 -0.5311  0.1590
 7997TIP3    H245407   6.057   2.985  15.338 -0.1869 -0.9958  0.6982
 7998TIP3   OH245408   5.074   6.273   3.734 -0.6584 -0.0468 -0.2604
 7998TIP3    H145409   5.152   6.267   3.789  0.5606  0.9171 -1.8208
 7998TIP3    H245410   5.081   6.199   3.674 -1.1447 -0.1625 -0.1814
 7999TIP3   OH245411   2.607   5.779   4.805 -0.3304 -0.2599  0.2080
 7999TIP3    H145412   2.562   5.698   4.781 -0.0712 -0.3215 -0.0751
 7999TIP3    H245413   2.551   5.848   4.769 -0.0106 -0.3472 -0.4811
 8000TIP3   OH245414   2.154   1.409   2.101 -0.2385 -0.0356  0.6646
 8000TIP3    H145415   2.169   1.502   2.085  1.5825 -0.0596  2.0936
 8000TIP3    H245416   2.191   1.365   2.025 -0.8678  0.3947  0.1092
 8001TIP3   OH245417   2.936   3.361  15.169  0.0026 -0.3307  0.5549
 8001TIP3    H145418   3.021   3.348  15.128  0.2450  0.4777  0.7985
 8001TIP3    H245419   2.873   3.351  15.098  0.3653  0.1639  0.1627
 8002TIP3   OH245420   6.541   5.580   4.035 -0.3163  0.0518  0.1252
 8002TIP3    H145421   6.538   5.488   4.064 -1.6677  0.0148 -0.1078
 8002TIP3    H245422   6.497   5.579   3.950  2.2106  0.4379 -1.2347
 8003TIP3   OH245423   2.763   4.931  15.657  0.3221  0.3199  0.3641
 8003TIP3    H145424   2.840   4.934  15.599  0.3440  1.6681  0.4412
 8003TIP3    H245425   2.795   4.889  15.737  1.2896  1.9272  0.8352
 8004TIP3   OH245426   6.555   6.123   1.020 -0.1407 -0.0246 -0.2461
 8004TIP3    H145427   6.469   6.165   1.028 -0.1751  0.1236 -1.2961
 8004TIP3    H245428   6.539   6.031   1.041 -0.3781  0.1720  0.4624
 8005TIP3   OH245429   3.650   2.658   2.291  0.4552 -0.3371 -0.2262
 8005TIP3    H145430   3.708   2.609   2.232  2.0729  0.2893  0.8083
 8005TIP3    H245431   3.658   2.749   2.261  0.6388 -0.1364  0.4307
 8006TIP3   OH245432   6.354   1.280   4.770  0.0091 -0.1876 -0.3850
 8006TIP3    H145433   6.400   1.263   4.852 -0.2607  0.6721 -0.0531
 8006TIP3    H245434   6.416   1.254   4.702  1.0676  1.1224  0.0524
 8007TIP3   OH245435   4.937   6.427  10.956  0.4398 -0.1757  0.0582
 8007TIP3    H145436   4.961   6.366  10.886  1.4373 -0.4983  0.6756
 8007TIP3    H245437   5.019   6.470  10.980  0.0957 -0.0457  1.0162
 8008TIP3   OH245438   1.313   2.849   2.649 -0.2867 -0.0000 -0.2617
 8008TIP3    H145439   1.341   2.762   2.679 -0.4802 -0.6992 -2.0668
 8008TIP3    H245440   1.230   2.864   2.694 -0.0313 -0.5437  0.4077
 8009TIP3   OH245441   0.464   2.635  11.681 -0.5670  0.6817 -0.6048
 8009TIP3    H145442   0.530   2.574  11.647 -0.9745  0.6395 -1.3281
 8009TIP3    H245443   0.392   2.579  11.707 -0.8981  0.8409 -1.1683
 8010TIP3   OH245444   3.760   5.415   1.732 -0.2916 -0.0243  0.5450
 8010TIP3    H145445   3.710   5.476   1.679 -1.2424 -0.9528  0.3466
 8010TIP3    H245446   3.770   5.337   1.677 -1.7314 -1.1930  1.8798
 8011TIP3   OH245447   0.952   6.600  13.098 -0.5232 -0.7245 -0.1095
 8011TIP3    H145448   0.883   6.605  13.032 -0.2068 -0.3270 -0.4202
 8011TIP3    H245449   0.970   6.692  13.120  2.0700 -0.6427 -2.3380
 8012TIP3   OH245450   1.439   6.527   1.642  0.5838 -0.0005  0.1882
 8012TIP3    H145451   1.513   6.588   1.648  1.3995 -1.0101  0.6956
 8012TIP3    H245452   1.474   6.445   1.678 -1.0224 -0.2706  1.1536
 8013TIP3   OH245453   1.185   2.516  15.768  0.4357 -0.1079 -0.6087
 8013TIP3    H145454   1.165   2.467  15.847  1.1395  1.3782  0.5033
 8013TIP3    H245455   1.100   2.533  15.727  0.0688 -0.7807 -0.1206
 8014TIP3   OH245456   3.864   0.473   6.082  0.4639  0.1824  0.0635
 8014TIP3    H145457   3.921   0.525   6.139  1.8748 -1.2813  0.0352
 8014TIP3    H245458   3.808   0.424   6.142  1.0873 -0.4042  0.1736
 8015TIP3   OH245459   1.611   3.923  15.347  0.1552 -0.0275  0.0071
 8015TIP3    H145460   1.676   3.886  15.407  1.2264  1.2879 -0.3066
 8015TIP3    H245461   1.553   3.850  15.326 -0.5244 -0.4108  3.0005
 8016TIP3   OH245462   0.318   0.977  15.534  0.2056  0.4296  0.2097
 8016TIP3    H145463   0.276   1.051  15.490  0.9037  1.6313  1.5243
 8016TIP3    H245464   0.292   0.987  15.626  0.6195 -0.7472  0.4580
 8017TIP3   OH245465   0.758   4.725   4.903  0.0929  0.3595  0.3094
 8017TIP3    H145466   0.738   4.728   4.809 -1.4971 -1.2708  0.5657
 8017TIP3    H245467   0.682   4.768   4.944 -0.5184 -1.3467  0.9988
 8018TIP3   OH245468   3.772   2.441  15.350  0.2027  0.3736  0.8096
 8018TIP3    H145469   3.728   2.367  15.392  0.0056 -0.1988 -0.3921
 8018TIP3    H245470   3.749   2.517  15.404 -0.5485 -0.2609  1.3803
 8019TIP3   OH245471   1.222   4.415  14.737  0.1507  0.1270 -0.5311
 8019TIP3    H145472   1.211   4.362  14.658 -2.1516 -1.3874  0.7699
 8019TIP3    H245473   1.143   4.470  14.740  0.4340  0.4763  0.5150
 8020TIP3   OH245474   1.827   2.221  12.031  0.3928 -0.4344 -0.2416
 8020TIP3    H145475   1.851   2.308  12.062 -0.9522 -0.3175  0.5153
 8020TIP3    H245476   1.761   2.190  12.093  1.0876 -2.1349 -0.3184
 8021TIP3   OH245477   6.760   1.507  15.922  0.5179  0.0119  0.1390
 8021TIP3    H145478   6.679   1.476  15.881  1.4203 -1.9493 -0.2163
 8021TIP3    H245479   6.733   1.541  16.007 -0.7690  0.0232 -0.2707
 8022TIP3   OH245480   3.019   6.533  10.620 -0.0499 -0.2005  0.0574
 8022TIP3    H145481   2.925   6.525  10.640 -0.2033 -1.7740 -1.1605
 8022TIP3    H245482   3.022   6.552  10.527  0.8749 -1.7285 -0.2365
 8023TIP3   OH245483   4.827   1.963  14.389  0.0309 -0.1064  0.4822
 8023TIP3    H145484   4.799   1.914  14.311 -1.9994  0.3819  0.8651
 8023TIP3    H245485   4.906   2.009  14.361 -0.1212 -0.7064 -0.9943
 8024TIP3   OH245486   0.598   4.397   1.887  0.2567  0.3450 -0.3294
 8024TIP3    H145487   0.517   4.445   1.867 -0.6395 -1.2835 -0.6770
 8024TIP3    H245488   0.662   4.433   1.826 -0.7959  0.0292 -1.6377
 8025TIP3   OH245489   0.950   3.732  16.885 -0.1304 -0.0685 -0.2511
 8025TIP3    H145490   0.900   3.810  16.864 -0.2636 -0.5831 -1.8835
 8025TIP3    H245491   0.980   3.698  16.800  0.6989 -1.2723  0.4978
 8026TIP3   OH245492   5.240   2.348   4.575 -0.3466  0.1043  0.4700
 8026TIP3    H145493   5.276   2.278   4.520 -1.9191 -0.8147  0.5589
 8026TIP3    H245494   5.308   2.415   4.577  0.2360 -0.3889 -1.5794
 8027TIP3   OH245495   3.765   2.387  11.858 -0.6493 -0.3780  0.1171
 8027TIP3    H145496   3.849   2.428  11.837 -1.2807  0.9647  0.1492
 8027TIP3    H245497   3.747   2.329  11.784  0.2203 -0.5535  0.0376
 8028TIP3   OH245498   4.652   5.288   3.726 -0.8943  0.3407  0.2348
 8028TIP3    H145499   4.620   5.315   3.812 -1.1441  0.8299 -0.0087
 8028TIP3    H245500   4.704   5.361   3.695  0.7232 -0.5740  0.7463
 8029TIP3   OH245501   1.743   3.393   6.222 -0.8621 -0.6866 -0.1234
 8029TIP3    H145502   1.804   3.385   6.148  0.1141 -0.8713  0.6894
 8029TIP3    H245503   1.798   3.382   6.299 -1.8445 -0.2564  0.6410
 8030TIP3   OH245504   2.762   1.948   0.570 -0.4060 -0.1954 -0.7694
 8030TIP3    H145505   2.790   1.860   0.548 -2.8386 -1.1324 -0.3247
 8030TIP3    H245506   2.839   2.003   0.556  0.8576 -2.2371 -1.9834
 8031TIP3   OH245507   6.174   4.211   1.103 -0.2533 -0.5028  0.0937
 8031TIP3    H145508   6.189   4.126   1.145  1.3242 -0.0162  0.5822
 8031TIP3    H245509   6.213   4.202   1.016  0.3386 -0.1519  0.3144
 8032TIP3   OH245510   1.452   1.569   0.790  0.3790 -0.5113  0.0911
 8032TIP3    H145511   1.513   1.580   0.863  1.6543 -3.6814 -0.4287
 8032TIP3    H245512   1.507   1.548   0.715 -1.1227  0.2016 -1.2517
 8033TIP3   OH245513   3.669   0.515   0.646 -0.8998  0.2586 -0.2129
 8033TIP3    H145514   3.763   0.508   0.659 -1.0145 -0.3767  0.3048
 8033TIP3    H245515   3.632   0.513   0.735 -1.4303  0.0406 -0.4345
 8034TIP3   OH245516   6.233   2.541   2.363 -0.0128  0.1954  0.2198
 8034TIP3    H145517   6.251   2.597   2.437 -1.6570 -0.0042  0.7945
 8034TIP3    H245518   6.149   2.571   2.329  0.0714 -0.5838 -0.7251
 8035TIP3   OH245519   4.220   2.493   1.216  0.1727  0.5095 -1.0287
 8035TIP3    H145520   4.229   2.549   1.139  0.0261 -1.3904 -2.4637
 8035TIP3    H245521   4.275   2.416   1.196  0.5420  0.2229  0.9792
 8036TIP3   OH245522   2.957   3.091  14.129  0.0348  0.3269 -0.5329
 8036TIP3    H145523   2.895   3.122  14.195  1.5361  0.7983  0.6965
 8036TIP3    H245524   2.961   3.161  14.065  0.5567  1.0426  0.2705
 8037TIP3   OH245525   2.681   0.303   2.072  0.7556  0.3778  0.0072
 8037TIP3    H145526   2.630   0.230   2.106  1.4599 -0.6038 -0.9901
 8037TIP3    H245527   2.619   0.375   2.067 -0.0561 -0.2631  0.6131
 8038TIP3   OH245528   3.390   4.670   2.944  0.1779 -0.2362 -0.1360
 8038TIP3    H145529   3.405   4.746   2.889 -0.6076  0.9945  1.2963
 8038TIP3    H245530   3.464   4.612   2.927  1.1842  1.1979 -0.6630
 8039TIP3   OH245531   3.863   3.063   6.046 -0.0136 -0.3037 -0.1097
 8039TIP3    H145532   3.957   3.070   6.031 -0.4969  1.0691 -2.7227
 8039TIP3    H245533   3.845   3.126   6.116  0.9562 -0.5168  0.3504
 8040TIP3   OH245534   6.767   0.216   6.477 -0.0175 -0.3865  0.3219
 8040TIP3    H145535   6.735   0.195   6.389  0.8872 -0.4356 -0.0095
 8040TIP3    H245536   6.783   0.310   6.475  2.4062 -0.7781 -0.3971
 8041TIP3   OH245537   3.986   0.796  14.955  0.3123  0.2608 -0.2423
 8041TIP3    H145538   3.915   0.798  15.019 -1.6263 -2.3158 -2.1966
 8041TIP3    H245539   4.034   0.716  14.976  0.6363  0.2620 -0.9760
 8042TIP3   OH245540   1.171   3.536  14.553 -0.2335 -0.0798 -0.5450
 8042TIP3    H145541   1.155   3.443  14.536 -0.8908 -0.4339  1.9228
 8042TIP3    H245542   1.266   3.546  14.542  0.4093 -1.8522  2.7502
 8043TIP3   OH245543   0.411   2.816   0.546  0.0274 -0.2060 -0.7389
 8043TIP3    H145544   0.437   2.901   0.582 -1.0167  0.0707 -0.6190
 8043TIP3    H245545   0.413   2.829   0.451  0.4723 -0.2394 -0.7376
 8044TIP3   OH245546   6.643   5.103   3.600  0.0644  0.3736 -0.5434
 8044TIP3    H145547   6.553   5.129   3.582  0.1316  0.0882 -1.2899
 8044TIP3    H245548   6.670   5.160   3.672 -0.8104  0.2505 -0.1060
 8045TIP3   OH245549   6.286   4.457   3.672 -0.0447 -0.7018  0.2088
 8045TIP3    H145550   6.266   4.388   3.609  1.1092 -2.1437  1.3646
 8045TIP3    H245551   6.352   4.511   3.628 -1.5627  0.1979 -1.0285
 8046TIP3   OH245552   1.128   2.713   0.321  0.5512  0.4789 -0.3257
 8046TIP3    H145553   1.075   2.784   0.356  2.5422  1.6556  0.3671
 8046TIP3    H245554   1.172   2.751   0.245  1.0820 -0.2427 -0.3842
 8047TIP3   OH245555   3.945   6.358  13.478  0.0377  0.5063 -0.0300
 8047TIP3    H145556   3.872   6.417  13.458 -0.6296  0.0981  1.1512
 8047TIP3    H245557   3.905   6.287  13.529  1.5215  1.1053  2.0391
 8048TIP3   OH245558   2.179   0.764  15.487  0.0344  0.5121  0.3551
 8048TIP3    H145559   2.227   0.706  15.427  1.6367  1.9357  0.2292
 8048TIP3    H245560   2.176   0.716  15.569  1.0411  0.1073  0.1575
 8049TIP3   OH245561   4.133   2.822  11.875 -0.5695  0.2647  0.3533
 8049TIP3    H145562   4.129   2.727  11.877 -0.1883  0.2072 -0.9782
 8049TIP3    H245563   4.077   2.850  11.947 -1.3770 -0.9525  0.2180
 8050TIP3   OH245564   2.543   3.061   5.132  0.2315  0.6061 -0.0011
 8050TIP3    H145565   2.472   3.040   5.071 -0.1016  2.1391 -0.1605
 8050TIP3    H245566   2.582   2.976   5.153 -1.2425 -0.1924 -0.4026
 8051TIP3   OH245567   6.565   0.412   4.728 -0.0249  0.6369 -0.6411
 8051TIP3    H145568   6.554   0.468   4.805 -0.4958 -0.1122 -0.1467
 8051TIP3    H245569   6.590   0.327   4.765  3.0226  1.1058 -1.4995
 8052TIP3   OH245570   4.429   0.666  15.086  0.5997 -0.1442 -0.1946
 8052TIP3    H145571   4.485   0.740  15.061 -0.3828  0.5614 -0.3586
 8052TIP3    H245572   4.456   0.644  15.175 -0.7465  2.0352  0.8115
 8053TIP3   OH245573   4.023   2.090   4.118 -0.5168  0.2283  0.7536
 8053TIP3    H145574   3.927   2.083   4.122 -0.4854 -0.5418  0.2175
 8053TIP3    H245575   4.047   2.043   4.039  0.3817 -0.4039  1.3935
 8054TIP3   OH245576   6.189   1.297  11.382 -0.0167 -0.1331  0.0087
 8054TIP3    H145577   6.138   1.351  11.443  0.9584  0.7380  0.0588
 8054TIP3    H245578   6.126   1.232  11.350 -1.2907  1.2283 -0.2942
 8055TIP3   OH245579   4.588   0.007  15.530  0.0170  0.1992 -0.0399
 8055TIP3    H145580   4.579  -0.087  15.548 -0.7353  0.3979  0.6572
 8055TIP3    H245581   4.671   0.015  15.484  0.0107 -0.8334 -0.2359
 8056TIP3   OH245582   3.000   4.815   0.409  0.5561 -0.0302  0.3365
 8056TIP3    H145583   3.076   4.782   0.457  1.4677 -1.1674 -1.7781
 8056TIP3    H245584   3.018   4.791   0.318 -1.3358  1.6168 -0.4997
 8057TIP3   OH245585   1.776   0.580   1.869  0.7042 -0.3831 -0.0607
 8057TIP3    H145586   1.781   0.568   1.774  0.9457  0.2071 -0.1275
 8057TIP3    H245587   1.733   0.665   1.880  2.7214  0.6215  0.3072
 8058TIP3   OH245588   3.482   1.616  15.524 -0.3425 -0.5232  0.4170
 8058TIP3    H145589   3.467   1.547  15.588 -0.1710 -0.8346  0.1256
 8058TIP3    H245590   3.395   1.632  15.486 -0.5093 -0.0764  0.9904
 8059TIP3   OH245591   2.013   5.623   3.419  0.1487  0.3580  0.2849
 8059TIP3    H145592   1.967   5.598   3.339  1.0899  0.7390 -0.3816
 8059TIP3    H245593   2.058   5.544   3.447  0.4092  0.4152  0.0316
 8060TIP3   OH245594   0.311   4.331  13.977  0.1064  0.7468  0.3556
 8060TIP3    H145595   0.314   4.329  13.881  0.6999  0.9991  0.3689
 8060TIP3    H245596   0.246   4.399  13.997 -0.5185  0.2167  0.1282
 8061TIP3   OH245597   3.410   3.056   0.940  0.0169 -0.7477 -0.3020
 8061TIP3    H145598   3.475   3.053   0.870  1.6653  1.7794  1.0659
 8061TIP3    H245599   3.436   2.986   0.999  0.2070 -1.1386 -0.8382
 8062TIP3   OH245600   4.573   6.527  12.413 -0.4960 -0.4925  0.6709
 8062TIP3    H145601   4.591   6.595  12.478 -0.9447  1.2171 -0.9458
 8062TIP3    H245602   4.478   6.521  12.410 -0.4905 -0.2298 -0.1545
 8063TIP3   OH245603   6.769   5.684   3.376 -0.2426  0.2479 -0.2272
 8063TIP3    H145604   6.823   5.647   3.305 -0.3816  1.8021 -1.1556
 8063TIP3    H245605   6.720   5.754   3.334 -1.3022  0.3284  1.1402
 8064TIP3   OH245606   6.200   6.352   1.844 -0.2908 -0.0826 -0.2845
 8064TIP3    H145607   6.227   6.384   1.929  1.1102  0.2029 -0.8241
 8064TIP3    H245608   6.282   6.343   1.794 -0.8855 -2.0711 -0.9678
 8065TIP3   OH245609   4.684   3.563  16.773  0.1350 -0.3450 -0.0091
 8065TIP3    H145610   4.632   3.491  16.736  2.1436 -1.1607 -1.3239
 8065TIP3    H245611   4.620   3.632  16.791 -1.2473 -0.9187 -2.5741
 8066TIP3   OH245612   2.874   1.413  10.996 -0.2982 -0.4021 -0.5139
 8066TIP3    H145613   2.783   1.416  10.966 -0.0256 -1.4805 -1.5014
 8066TIP3    H245614   2.887   1.322  11.026  0.2752 -0.0937  0.2088
 8067TIP3   OH245615   2.528   2.091  14.482 -0.0352 -0.3221  0.3867
 8067TIP3    H145616   2.452   2.096  14.423  0.0403 -0.6898  0.2618
 8067TIP3    H245617   2.536   1.999  14.504  2.7811 -0.9256 -2.7792
 8068TIP3   OH245618   3.175   0.867   2.850 -0.4959  0.2857  0.2682
 8068TIP3    H145619   3.157   0.917   2.930 -3.3895 -1.1763  0.6231
 8068TIP3    H245620   3.167   0.776   2.877  0.0560 -0.2575 -1.3487
 8069TIP3   OH245621   5.311   4.057   3.595  0.6075  0.0540  0.0303
 8069TIP3    H145622   5.257   4.058   3.674 -0.3521  1.1714 -0.6216
 8069TIP3    H245623   5.396   4.092   3.624  0.1527  0.7983  0.4975
 8070TIP3   OH245624   5.871   0.843  14.861  0.2135 -0.3099 -0.0302
 8070TIP3    H145625   5.848   0.822  14.771  1.8562  0.6816 -0.7029
 8070TIP3    H245626   5.943   0.783  14.882 -0.7072 -1.1133  0.9285
 8071TIP3   OH245627   3.575   3.990   0.809  0.0242  0.2575 -0.6609
 8071TIP3    H145628   3.592   4.043   0.886  0.2369 -2.1469  0.9967
 8071TIP3    H245629   3.482   3.969   0.814  0.3481 -1.1203 -0.2552
 8072TIP3   OH245630   5.025   5.807  13.891  0.2230 -0.2787 -0.3068
 8072TIP3    H145631   5.068   5.873  13.945  2.3970 -2.4044  0.6598
 8072TIP3    H245632   5.071   5.811  13.807 -2.5079  2.3466 -1.7649
 8073TIP3   OH245633   0.072   5.463  13.526  0.3454  0.2309  0.2007
 8073TIP3    H145634   0.048   5.546  13.568 -0.0244  0.6192 -0.7662
 8073TIP3    H245635   0.038   5.470  13.437  2.9849  0.3117 -0.8613
 8074TIP3   OH245636   5.436   2.594   1.234  0.0194 -0.3343 -0.2656
 8074TIP3    H145637   5.463   2.640   1.155 -1.1249  0.2842 -0.3144
 8074TIP3    H245638   5.357   2.641   1.262  0.0143 -1.0038  0.8286
 8075TIP3   OH245639   2.736   1.103   3.858 -0.8903  0.1099 -0.3710
 8075TIP3    H145640   2.656   1.102   3.806 -0.3828  1.6243 -1.2124
 8075TIP3    H245641   2.803   1.138   3.799  0.3360 -0.8907  0.4017
 8076TIP3   OH245642   4.433   2.873  14.260 -0.8118 -0.8895  0.0398
 8076TIP3    H145643   4.456   2.781  14.260 -0.0465 -0.6982 -0.2181
 8076TIP3    H245644   4.515   2.919  14.243 -0.9535 -0.1007  1.4237
 8077TIP3   OH245645   2.980   6.606  10.971  0.4160  0.7990 -0.2932
 8077TIP3    H145646   2.931   6.681  10.936 -1.5579 -0.8987 -1.3041
 8077TIP3    H245647   2.963   6.608  11.065 -1.6701  0.2146 -0.6380
 8078TIP3   OH245648   1.357   5.013  14.393  0.6679 -0.5661  0.0519
 8078TIP3    H145649   1.415   4.963  14.336 -1.5480 -2.1290 -0.8882
 8078TIP3    H245650   1.279   5.030  14.340  1.0609  3.3852  0.5482
 8079TIP3   OH245651   6.510   1.868  12.760  0.2233  0.0042 -0.2003
 8079TIP3    H145652   6.492   1.913  12.843 -0.4754 -1.0885  0.2531
 8079TIP3    H245653   6.599   1.896  12.736  0.1777  0.8351  0.5836
 8080TIP3   OH245654   6.249   2.754   3.299 -0.0806 -0.4609  0.2508
 8080TIP3    H145655   6.298   2.834   3.283  0.1383 -0.8203 -0.9581
 8080TIP3    H245656   6.306   2.684   3.266 -2.0683 -0.7702 -2.7167
 8081TIP3   OH245657   1.920   0.734  14.621 -0.0002 -0.0284  0.1480
 8081TIP3    H145658   1.954   0.672  14.557  0.8899  0.7355 -0.1398
 8081TIP3    H245659   1.883   0.680  14.690  0.2895 -0.8709 -0.3519
 8082TIP3   OH245660   5.583   2.531   1.459 -0.0424  0.5904 -0.0588
 8082TIP3    H145661   5.569   2.550   1.366 -1.2403 -0.9120 -0.2008
 8082TIP3    H245662   5.500   2.554   1.500 -0.0089 -0.1331  0.4180
 8083TIP3   OH245663   6.654   6.205   2.419 -0.4473 -0.4221 -0.5257
 8083TIP3    H145664   6.581   6.144   2.420 -0.5524 -0.3030 -0.7807
 8083TIP3    H245665   6.732   6.150   2.428 -0.6992 -0.2983  3.1609
 8084TIP3   OH245666   1.599   2.241   6.075 -0.6499 -0.3621 -0.2772
 8084TIP3    H145667   1.638   2.187   6.144  0.4265  0.7357 -0.0029
 8084TIP3    H245668   1.559   2.315   6.121  3.1117  2.2711 -0.9568
 8085TIP3   OH245669   1.322   6.745   4.631 -0.4247  0.0878 -0.0147
 8085TIP3    H145670   1.258   6.721   4.564  0.2439  1.2282 -1.1038
 8085TIP3    H245671   1.403   6.702   4.603  0.4848  2.5720 -1.3527
 8086TIP3   OH245672   2.668   6.106   5.950  0.2964 -0.9456  0.5896
 8086TIP3    H145673   2.664   6.132   5.858  1.5792  0.9097  1.0070
 8086TIP3    H245674   2.605   6.035   5.958 -0.2862 -0.7221 -1.5830
 8087TIP3   OH245675   2.842   2.671   1.576  0.0589  0.0797  0.7069
 8087TIP3    H145676   2.764   2.667   1.631  0.5459 -2.6322  1.2989
 8087TIP3    H245677   2.867   2.579   1.564  1.5122  0.7585 -1.8422
 8088TIP3   OH245678   4.262   4.793  11.468  0.1511  0.1786  0.0922
 8088TIP3    H145679   4.253   4.776  11.374  0.6975  1.7084 -0.2632
 8088TIP3    H245680   4.172   4.797  11.500 -0.1600  2.6600 -0.9658
 8089TIP3   OH245681   2.775   2.747  11.935  0.2668  0.2970 -0.4074
 8089TIP3    H145682   2.854   2.701  11.962 -1.8223 -2.3248  1.5656
 8089TIP3    H245683   2.750   2.707  11.852 -0.0679 -0.2881 -0.0289
 8090TIP3   OH245684   2.845   0.713  16.790  0.5410 -0.0658 -0.0778
 8090TIP3    H145685   2.804   0.682  16.709  1.8512  2.5698 -1.7971
 8090TIP3    H245686   2.896   0.638  16.821  0.1364 -1.0648 -1.7593
 8091TIP3   OH245687   3.980   1.374  13.156 -0.7147  0.3620  0.0962
 8091TIP3    H145688   4.034   1.397  13.080 -1.7207 -0.4449 -0.8871
 8091TIP3    H245689   3.892   1.405  13.133 -1.1899 -0.5931  0.5778
 8092TIP3   OH245690   2.272   6.156   0.827  0.4199 -0.0308  0.3925
 8092TIP3    H145691   2.198   6.120   0.779 -0.0673  0.4076  0.8177
 8092TIP3    H245692   2.296   6.087   0.889  1.0674 -0.6093 -0.4871
 8093TIP3   OH245693   0.259   4.552  12.750 -0.4490  0.1434 -0.4398
 8093TIP3    H145694   0.193   4.597  12.802  1.4753  0.8828  1.4498
 8093TIP3    H245695   0.318   4.621  12.721  1.0037 -0.8110  0.1841
 8094TIP3   OH245696   0.547   1.909  12.392  0.0709  0.0322  0.2235
 8094TIP3    H145697   0.548   2.004  12.394 -0.7720  0.0638 -0.2377
 8094TIP3    H245698   0.479   1.884  12.454 -1.5576 -0.1563 -1.5617
 8095TIP3   OH245699   4.552   5.673  17.219 -0.0310  0.1340 -0.5197
 8095TIP3    H145700   4.610   5.598  17.203  0.0985  0.0777  0.2253
 8095TIP3    H245701   4.502   5.649  17.297  1.0740  1.4661  0.6147
 8096TIP3   OH245702   2.277   0.739  14.378 -0.2872  0.2196 -0.4541
 8096TIP3    H145703   2.225   0.818  14.395 -0.6205 -0.2015  0.5127
 8096TIP3    H245704   2.212   0.673  14.354  0.0890  0.5259 -2.3933
 8097TIP3   OH245705   1.233   2.027   0.523 -0.8877  0.0815  0.3032
 8097TIP3    H145706   1.296   2.025   0.451 -1.0344  0.7745  0.1492
 8097TIP3    H245707   1.251   1.948   0.574  0.4971  0.5618  0.5882
 8098TIP3   OH245708   2.995   6.312  12.029  0.5345 -0.2763 -0.1240
 8098TIP3    H145709   2.903   6.338  12.023  0.6418  0.1210 -0.0634
 8098TIP3    H245710   2.996   6.222  11.999 -0.0884 -0.7385  1.1727
 8099TIP3   OH245711   3.725   5.906  16.225 -0.0679 -0.0203  0.1475
 8099TIP3    H145712   3.757   5.884  16.313  0.1224 -0.8843 -0.1321
 8099TIP3    H245713   3.630   5.913  16.235  0.0893  1.4586  0.7528
 8100TIP3   OH245714   0.314   2.119   1.221  0.3671  0.0518  0.1629
 8100TIP3    H145715   0.298   2.139   1.313 -0.1401 -0.2394  0.1406
 8100TIP3    H245716   0.288   2.027   1.212 -0.4923  0.3592 -0.4907
 8101TIP3   OH245717   6.005   3.653   1.300  0.7738  0.0974  0.0872
 8101TIP3    H145718   6.048   3.572   1.326 -1.6489 -1.5415 -0.7897
 8101TIP3    H245719   5.943   3.672   1.371  1.7794  1.5772  0.6052
 8102TIP3   OH245720   0.530   0.118  15.793  0.5200 -0.2049  0.7607
 8102TIP3    H145721   0.439   0.145  15.782  0.2756 -1.5215 -0.5585
 8102TIP3    H245722   0.546   0.126  15.887 -1.1326 -0.5012  1.0784
 8103TIP3   OH245723   5.065   5.821   4.547  0.0418  0.3010  0.3340
 8103TIP3    H145724   5.008   5.778   4.610 -3.1700  4.9036  0.7870
 8103TIP3    H245725   5.029   5.796   4.462 -0.1425 -0.0165  0.5006
 8104TIP3   OH245726   6.756   5.338   3.723 -0.4047  0.4323 -0.1355
 8104TIP3    H145727   6.682   5.399   3.732 -0.3179  0.5668 -0.3459
 8104TIP3    H245728   6.818   5.383   3.666 -0.8088 -0.2992 -1.1605
 8105TIP3   OH245729   2.832   4.375  13.560 -0.8170  0.1613 -0.1660
 8105TIP3    H145730   2.801   4.461  13.531  0.1412  0.5383 -0.0961
 8105TIP3    H245731   2.927   4.377  13.544 -0.8388 -1.0033 -0.4682
 8106TIP3   OH245732   1.976   2.862   0.221  0.4592  0.3492  0.7473
 8106TIP3    H145733   2.046   2.835   0.161 -0.1677  0.8735 -0.2458
 8106TIP3    H245734   1.896   2.849   0.170 -0.0015  1.9153  1.0604
 8107TIP3   OH245735   3.086   6.172  14.940  0.2487  0.2094 -0.2197
 8107TIP3    H145736   3.017   6.233  14.966  1.9541  1.0349  2.6139
 8107TIP3    H245737   3.083   6.171  14.844 -2.6782  1.3688 -0.1859
 8108TIP3   OH245738   1.807   2.760   3.879  0.7033  0.2224  0.4042
 8108TIP3    H145739   1.736   2.704   3.913  0.2479  1.6679  1.9047
 8108TIP3    H245740   1.780   2.780   3.789  0.2863 -1.0086  0.2438
 8109TIP3   OH245741   2.859   5.794   2.573 -0.4849 -0.1313  0.0063
 8109TIP3    H145742   2.844   5.883   2.542  0.5096  0.1001  0.1755
 8109TIP3    H245743   2.824   5.738   2.504 -3.2733  0.3604  0.9431
 8110TIP3   OH245744   4.016   3.854   3.260  0.0271  0.3486  0.3497
 8110TIP3    H145745   4.041   3.881   3.172  1.3758 -0.0792  0.5745
 8110TIP3    H245746   3.992   3.935   3.304  0.2397  0.6848 -0.1489
 8111TIP3   OH245747   1.660   6.632   3.935  0.2119  0.4691  0.1197
 8111TIP3    H145748   1.688   6.716   3.971 -0.9146  0.3126  1.4137
 8111TIP3    H245749   1.641   6.578   4.012  0.4379 -0.8057 -0.7033
 8112TIP3   OH245750   0.682   2.704   0.647  0.0892 -0.1810 -0.0193
 8112TIP3    H145751   0.748   2.685   0.713 -0.4018  0.4646  0.6722
 8112TIP3    H245752   0.613   2.750   0.695 -1.2235 -1.5549 -0.5689
 8113TIP3   OH245753   3.418   6.422   6.240 -0.2447 -0.1608 -0.2535
 8113TIP3    H145754   3.512   6.421   6.255 -0.5278 -1.8205  1.7678
 8113TIP3    H245755   3.381   6.446   6.325 -1.6962 -1.5600 -0.4655
 8114TIP3   OH245756   3.273   0.955   1.411  0.0244  0.2853 -0.2666
 8114TIP3    H145757   3.272   1.049   1.392  3.2192  0.5613  0.7210
 8114TIP3    H245758   3.281   0.949   1.506 -1.9294 -1.0398 -0.1478
 8115TIP3   OH245759   5.599   0.924  14.667 -0.1705 -0.1770  0.4559
 8115TIP3    H145760   5.623   0.831  14.671  0.3534  0.0160  2.3623
 8115TIP3    H245761   5.517   0.929  14.717 -1.2558  0.0832 -1.3087
 8116TIP3   OH245762   0.727   1.904  10.208  0.0121  0.0527  0.1485
 8116TIP3    H145763   0.712   1.844  10.281  1.0423 -0.0233  0.2979
 8116TIP3    H245764   0.644   1.902  10.159 -1.1615  1.0968  2.0071
 8117TIP3   OH245765   3.702   2.521   3.854 -0.0656  0.1351  0.1246
 8117TIP3    H145766   3.680   2.558   3.769  1.0655  0.8834  0.1572
 8117TIP3    H245767   3.670   2.585   3.918  2.0326  1.1827  0.1764
 8118TIP3   OH245768   4.355   1.218  13.192 -0.6137 -0.0089 -0.2723
 8118TIP3    H145769   4.344   1.312  13.203 -0.2973  0.1663 -1.3636
 8118TIP3    H245770   4.402   1.190  13.270 -0.5203  0.7797 -0.0382
 8119TIP3   OH245771   3.957   1.814  15.156 -0.2434  0.8072 -0.1869
 8119TIP3    H145772   3.893   1.744  15.164  0.9437 -0.3126 -0.3221
 8119TIP3    H245773   4.011   1.790  15.081  0.7692  1.3596  0.3377
 8120TIP3   OH245774   3.123   1.744  13.457 -0.2603 -0.3190  0.2249
 8120TIP3    H145775   3.037   1.708  13.436 -0.2334  0.9687 -2.1374
 8120TIP3    H245776   3.185   1.675  13.431 -0.3342  0.5532 -2.3955
 8121TIP3   OH245777   1.106   4.071   0.765 -0.3510 -0.6157  0.3736
 8121TIP3    H145778   1.049   4.059   0.841 -1.0642 -0.3284 -0.1160
 8121TIP3    H245779   1.170   4.000   0.772 -0.4252 -0.6042  1.2328
 8122TIP3   OH245780   4.870   4.994   5.445  0.3267 -0.3393  0.6931
 8122TIP3    H145781   4.853   4.948   5.528 -1.6847 -1.4012 -0.2648
 8122TIP3    H245782   4.787   5.038   5.425  0.8854  0.1356 -0.6023
 8123TIP3   OH245783   4.330   3.866   0.919  0.3155  0.1820 -0.1213
 8123TIP3    H145784   4.244   3.905   0.899 -0.3400 -0.6712  0.9725
 8123TIP3    H245785   4.327   3.851   1.013  1.5023 -0.2858 -0.1589
 8124TIP3   OH245786   3.499   1.991  11.895  0.0868 -0.1012 -0.6301
 8124TIP3    H145787   3.579   1.982  11.844  0.2319 -1.0254 -0.2388
 8124TIP3    H245788   3.530   2.011  11.984 -0.1382  0.3844 -0.6593
 8125TIP3   OH245789   3.769   5.492   2.961  0.1050  0.0466 -0.1020
 8125TIP3    H145790   3.700   5.454   2.907 -1.4302  1.3612  0.8872
 8125TIP3    H245791   3.842   5.430   2.954 -1.0035 -1.1221 -1.5405
 8126TIP3   OH245792   2.081   1.992  12.804  0.3982 -0.6040  0.3045
 8126TIP3    H145793   2.017   2.047  12.759 -0.1277 -0.8042  0.7961
 8126TIP3    H245794   2.159   1.995  12.749  0.3000  0.4638  0.2252
 8127TIP3   OH245795   1.023   1.566   3.091  0.3853 -0.1701 -0.0296
 8127TIP3    H145796   1.061   1.497   3.146  2.3392 -0.5260 -1.7638
 8127TIP3    H245797   0.973   1.518   3.025 -0.0105  0.1550  0.0341
 8128TIP3   OH245798   5.949   4.245   1.440 -0.0913  0.3731  0.5245
 8128TIP3    H145799   5.995   4.329   1.439  2.3360 -0.8944 -1.3671
 8128TIP3    H245800   5.920   4.233   1.349  0.4993 -1.2867  0.5475
 8129TIP3   OH245801   4.123   1.157  11.503 -0.7389  0.4004  0.3811
 8129TIP3    H145802   4.195   1.099  11.526 -0.9683  0.0509  0.2274
 8129TIP3    H245803   4.150   1.201  11.423  0.3489  2.1168  1.6444
 8130TIP3   OH245804   6.132   6.704  12.584  0.1513  0.7042  0.2651
 8130TIP3    H145805   6.169   6.667  12.664 -0.3608  0.8608  0.5751
 8130TIP3    H245806   6.042   6.671  12.581  0.9444 -1.4223 -1.5964
 8131TIP3   OH245807   4.586   1.420   1.577 -0.0803 -0.3462 -0.0364
 8131TIP3    H145808   4.641   1.348   1.608  1.6925  0.7238 -0.6323
 8131TIP3    H245809   4.573   1.476   1.653  1.3422  0.4411 -0.3584
 8132TIP3   OH245810   0.302   2.549  13.599 -0.0649 -0.1110 -0.5354
 8132TIP3    H145811   0.394   2.554  13.626  0.3340  0.3532 -1.9087
 8132TIP3    H245812   0.300   2.595  13.515 -1.9713  1.8237  0.5088
 8133TIP3   OH245813   4.528   1.217   5.395 -0.0959 -0.1340  0.7286
 8133TIP3    H145814   4.619   1.237   5.416  0.5486 -1.0921 -0.9897
 8133TIP3    H245815   4.531   1.185   5.304 -2.1926  0.2157  0.5067
 8134TIP3   OH245816   2.639   4.443   4.684  0.0234 -0.0903 -0.0835
 8134TIP3    H145817   2.680   4.529   4.682 -0.0831 -0.0402 -0.1540
 8134TIP3    H245818   2.549   4.460   4.712  0.2028 -0.2606  0.5943
 8135TIP3   OH245819   3.821   4.928   5.745  0.3136  0.6392 -0.5658
 8135TIP3    H145820   3.883   4.912   5.817  1.3998 -1.4979 -1.9258
 8135TIP3    H245821   3.777   5.009   5.770  2.4212  1.2836  1.3030
 8136TIP3   OH245822   5.518   3.826  15.045  0.0706 -0.4176 -0.0808
 8136TIP3    H145823   5.502   3.796  15.135  1.3600 -0.7647  0.0388
 8136TIP3    H245824   5.577   3.900  15.054 -3.5552  2.6800 -0.3397
 8137TIP3   OH245825   6.025   4.973  12.595  0.4983 -0.2314 -0.2961
 8137TIP3    H145826   6.094   5.039  12.599  0.9337 -0.6945 -0.1719
 8137TIP3    H245827   5.966   4.997  12.666 -1.5631  2.4666 -2.7809
 8138TIP3   OH245828   6.662   0.038   2.455  0.4817 -0.0522  0.2092
 8138TIP3    H145829   6.571   0.062   2.435  0.5439  0.2762  0.3250
 8138TIP3    H245830   6.657  -0.002   2.542  0.2093 -1.4878 -0.4616
 8139TIP3   OH245831   5.218   0.770  15.907  0.1401 -0.5478 -0.5731
 8139TIP3    H145832   5.218   0.855  15.951  0.7388 -0.5561 -0.5454
 8139TIP3    H245833   5.127   0.743  15.905 -0.0573  0.1158 -0.6124
 8140TIP3   OH245834   4.251   6.746  16.697 -0.9045 -0.2409 -0.2249
 8140TIP3    H145835   4.327   6.789  16.657  0.4051 -1.4214  0.9373
 8140TIP3    H245836   4.176   6.799  16.670  0.5756  2.2794  0.4892
 8141TIP3   OH245837   0.344   4.564  14.297 -0.5792  0.3351  0.7069
 8141TIP3    H145838   0.343   4.659  14.280 -1.5105  0.2673  0.3724
 8141TIP3    H245839   0.267   4.531  14.251  0.4440 -0.7755 -0.2411
 8142TIP3   OH245840   4.969   4.977   2.043  0.5095 -0.1312  0.6959
 8142TIP3    H145841   4.957   5.039   1.971 -0.4422 -0.8015  0.2538
 8142TIP3    H245842   5.031   5.019   2.102  1.3811  0.4031 -0.5671
 8143TIP3   OH245843   1.068   3.979  15.505  0.3855 -0.7652 -0.3944
 8143TIP3    H145844   1.066   3.908  15.569 -0.0817  1.5205  2.2341
 8143TIP3    H245845   1.149   4.026  15.524  0.1713  0.0344 -1.4028
 8144TIP3   OH245846   3.613   4.958   6.864 -0.3291  0.1628 -0.4261
 8144TIP3    H145847   3.641   5.049   6.866 -0.2735  0.1191  1.2136
 8144TIP3    H245848   3.665   4.915   6.932 -2.5283 -0.4391  0.9258
 8145TIP3   OH245849   6.665   1.409  16.862  0.2462  0.0137  0.4110
 8145TIP3    H145850   6.668   1.323  16.820 -1.1435 -0.2294  0.7537
 8145TIP3    H245851   6.704   1.468  16.798 -0.4545 -0.5924 -0.6103
 8146TIP3   OH245852   3.224   1.205   0.001  0.1447 -0.1231 -0.1407
 8146TIP3    H145853   3.235   1.298   0.018 -0.6010 -0.0174 -0.2259
 8146TIP3    H245854   3.135   1.197  -0.031 -0.2528 -1.0471  1.1533
 8147TIP3   OH245855   2.208   0.319   4.079  0.0917  0.7971 -0.6392
 8147TIP3    H145856   2.115   0.338   4.086  0.5533  2.1976  3.1026
 8147TIP3    H245857   2.230   0.339   3.988 -3.5615 -1.2662 -2.0489
 8148TIP3   OH245858   4.319   4.095   4.018  0.1361 -0.0999 -0.2053
 8148TIP3    H145859   4.260   4.170   4.028 -0.1775 -0.1803 -1.4404
 8148TIP3    H245860   4.393   4.130   3.968  0.1605 -0.5235 -0.4646
 8149TIP3   OH245861   6.449   1.012   1.886  0.4609  0.2265  0.0014
 8149TIP3    H145862   6.419   1.084   1.830  0.4298 -0.0332 -0.3121
 8149TIP3    H245863   6.369   0.963   1.907  0.4522  0.3932  0.3765
 8150TIP3   OH245864   1.740   2.606   5.541  0.3654  0.2256  0.1359
 8150TIP3    H145865   1.711   2.695   5.522 -0.2676 -0.4522 -2.2604
 8150TIP3    H245866   1.832   2.605   5.514 -0.3621 -0.5584 -2.5031
 8151TIP3   OH245867   1.271   6.483  17.150  0.9012  0.7551 -0.0407
 8151TIP3    H145868   1.275   6.486  17.246  1.5100 -0.3063 -0.0304
 8151TIP3    H245869   1.201   6.544  17.127 -0.5372 -0.4060  1.1744
 8152TIP3   OH245870   4.917   5.855  15.910  0.0971 -0.2205 -0.0445
 8152TIP3    H145871   4.911   5.821  15.999  0.4341 -2.8115 -0.9586
 8152TIP3    H245872   4.994   5.810  15.873 -1.8966 -1.6340 -2.6143
 8153TIP3   OH245873   1.336   1.807   0.690  0.2176 -0.4719 -0.2304
 8153TIP3    H145874   1.254   1.760   0.673 -1.0519  0.7958  2.1897
 8153TIP3    H245875   1.387   1.746   0.742  0.1339 -0.6431 -0.3478
 8154TIP3   OH245876   2.052   2.621   3.974  0.4401  0.4002  0.2721
 8154TIP3    H145877   2.107   2.612   3.896  0.0346 -1.9427  0.2218
 8154TIP3    H245878   1.997   2.698   3.956  0.0069 -0.3977 -1.9929
 8155TIP3   OH245879   3.313   0.155  10.957 -0.1095 -0.4094  0.0556
 8155TIP3    H145880   3.253   0.229  10.969  0.3820  0.1894 -1.0880
 8155TIP3    H245881   3.384   0.172  11.019 -0.0570  0.0173 -0.1193
 8156TIP3   OH245882   4.649   3.866   0.239  0.2175 -0.1606 -0.1830
 8156TIP3    H145883   4.620   3.928   0.171  1.5714 -1.1807 -1.7202
 8156TIP3    H245884   4.575   3.805   0.248 -0.2701  0.4205 -0.1781
 8157TIP3   OH245885   6.226   6.467  14.137 -0.3285 -0.0015 -0.0681
 8157TIP3    H145886   6.156   6.439  14.195  0.4098 -0.3897  0.6375
 8157TIP3    H245887   6.292   6.505  14.195  0.2447 -0.0426 -0.6831
 8158TIP3   OH245888   0.605   3.872  17.015  0.1788  0.4935  0.1769
 8158TIP3    H145889   0.670   3.840  17.078  0.3301  2.3159  0.9602
 8158TIP3    H245890   0.649   3.865  16.930  0.1663 -1.4665  0.3135
 8159TIP3   OH245891   2.434   5.009   1.529  0.4615  0.2878  0.3075
 8159TIP3    H145892   2.441   5.097   1.564 -1.0930  0.2331  0.8009
 8159TIP3    H245893   2.342   5.000   1.505  0.2486 -1.7395  1.7396
 8160TIP3   OH245894   6.237   4.100   3.030 -0.3799 -0.2633 -0.0613
 8160TIP3    H145895   6.223   4.129   2.940 -2.7615 -0.9682  0.0574
 8160TIP3    H245896   6.303   4.031   3.023 -0.1444  0.0698 -1.1941
 8161TIP3   OH245897   4.188   1.536  11.669  0.2801 -0.2241 -0.1327
 8161TIP3    H145898   4.278   1.532  11.701  0.2626  0.0099 -0.0502
 8161TIP3    H245899   4.178   1.626  11.637 -0.4942  0.3203  1.5694
 8162TIP3   OH245900   3.932   0.326   0.842  0.0704  0.8377 -0.3144
 8162TIP3    H145901   4.017   0.313   0.884 -0.9029 -2.8177  0.7039
 8162TIP3    H245902   3.874   0.351   0.914  0.1487  2.7480 -0.9078
 8163TIP3   OH245903   5.491   0.066   0.092  0.7651  0.3326 -0.3221
 8163TIP3    H145904   5.395   0.065   0.094  0.7440  1.8856  0.6952
 8163TIP3    H245905   5.514   0.044   0.002 -0.5707  0.3502 -0.6773
 8164TIP3   OH245906   0.339   3.722  14.639 -0.2818  0.4232  0.3787
 8164TIP3    H145907   0.275   3.670  14.590  0.3729  0.0125 -0.0489
 8164TIP3    H245908   0.408   3.741  14.576  1.2664 -1.3172  1.4758
 8165TIP3   OH245909   1.610   1.666  15.823 -0.1628 -0.1241  0.6162
 8165TIP3    H145910   1.552   1.600  15.786  0.0117 -0.0002  0.1136
 8165TIP3    H245911   1.552   1.739  15.845 -0.3478 -0.4127  1.1218
 8166TIP3   OH245912   3.818   5.873  10.909 -0.5350  0.3093  0.6280
 8166TIP3    H145913   3.813   5.956  10.862 -0.7696  0.7360  1.4016
 8166TIP3    H245914   3.897   5.881  10.963 -0.0998 -0.2950  0.0827
 8167TIP3   OH245915   2.174   0.672  13.767 -0.2928 -0.0386 -0.1998
 8167TIP3    H145916   2.244   0.736  13.756  0.6007 -0.8858  0.4560
 8167TIP3    H245917   2.195   0.627  13.849 -1.5705 -0.3458 -0.0203
 8168TIP3   OH245918   0.426   1.847   4.086 -0.7251  0.2036 -0.6628
 8168TIP3    H145919   0.420   1.811   3.998  0.9970 -1.5732 -0.0915
 8168TIP3    H245920   0.438   1.771   4.143 -0.3496  1.4216  0.9472
 8169TIP3   OH245921   4.519   1.378  11.015 -0.1718  0.4779  0.3184
 8169TIP3    H145922   4.521   1.282  11.021 -0.0869  0.4237 -0.5522
 8169TIP3    H245923   4.565   1.398  10.934 -1.4148  1.1912 -0.2258
 8170TIP3   OH245924   1.459   1.273   4.193 -0.6186 -0.2208 -0.0810
 8170TIP3    H145925   1.550   1.294   4.171 -0.7576  1.8824  1.2039
 8170TIP3    H245926   1.464   1.191   4.242  0.3827 -1.1647 -1.7559
 8171TIP3   OH245927   2.095   6.595   5.654 -0.0329  0.4202 -0.6087
 8171TIP3    H145928   2.095   6.597   5.558 -0.5917  0.6538 -0.6018
 8171TIP3    H245929   2.056   6.510   5.676  0.6592  0.1024 -0.5932
 8172TIP3   OH245930   2.838   2.340  17.122  0.5992 -0.2985  0.0212
 8172TIP3    H145931   2.894   2.414  17.098  0.5415 -0.5589 -0.9442
 8172TIP3    H245932   2.879   2.265  17.080 -1.5159 -0.2133 -2.3491
 8173TIP3   OH245933   6.270   5.164   2.230 -0.4190 -0.2963  0.2519
 8173TIP3    H145934   6.185   5.120   2.229 -0.1406 -0.8432 -0.3643
 8173TIP3    H245935   6.251   5.254   2.254 -1.0258 -0.7139  1.3873
 8174TIP3   OH245936   3.802   1.526  16.082 -0.2769 -0.6585  0.4125
 8174TIP3    H145937   3.841   1.509  15.996 -0.5611 -1.7334  0.4943
 8174TIP3    H245938   3.863   1.588  16.124  0.3268 -0.8207 -0.2192
 8175TIP3   OH245939   0.090   6.427  13.527 -0.2429 -0.2275  0.1553
 8175TIP3    H145940   0.182   6.404  13.514 -0.1022  0.6779 -0.5123
 8175TIP3    H245941   0.052   6.351  13.571  0.9557 -0.3654  0.9742
 8176TIP3   OH245942   0.390   3.271   5.816 -0.2044 -0.4733 -0.3094
 8176TIP3    H145943   0.385   3.334   5.744 -1.0971 -0.0348  0.1344
 8176TIP3    H245944   0.383   3.324   5.895 -0.1405 -1.0496  0.0865
 8177TIP3   OH245945   0.690   1.823  11.177  0.0528  0.4581 -0.7117
 8177TIP3    H145946   0.693   1.741  11.225 -0.7692  0.0962 -1.2501
 8177TIP3    H245947   0.607   1.863  11.203  0.3071  0.9643 -0.6817
 8178TIP3   OH245948   0.473   0.180   0.581  0.0022 -0.5400  0.0998
 8178TIP3    H145949   0.443   0.176   0.491  0.0672 -2.1609  0.1444
 8178TIP3    H245950   0.400   0.146   0.633  0.6276 -1.3084  0.4915
 8179TIP3   OH245951   2.557   5.068  11.111  0.1271 -0.1289 -1.0817
 8179TIP3    H145952   2.500   5.007  11.065 -1.2699  1.3112 -1.3021
 8179TIP3    H245953   2.499   5.138  11.140  1.1463 -0.5098  2.0293
 8180TIP3   OH245954   4.569   5.018  12.425 -0.1768 -0.3844  0.2003
 8180TIP3    H145955   4.490   4.973  12.394 -0.5357  0.3232  0.0766
 8180TIP3    H245956   4.542   5.061  12.506 -0.7602  2.3086 -1.3422
 8181TIP3   OH245957   5.556   1.430  11.222 -0.0296  0.2338  1.1917
 8181TIP3    H145958   5.514   1.492  11.163  1.3742  0.8162  0.7880
 8181TIP3    H245959   5.590   1.361  11.165 -0.3763 -0.2040  1.5057
 8182TIP3   OH245960   1.886   0.206  13.974  0.1058  0.5828 -0.1693
 8182TIP3    H145961   1.912   0.197  14.066  1.0914 -1.8224 -0.6415
 8182TIP3    H245962   1.967   0.233  13.929 -0.3094  1.4933 -0.3841
 8183TIP3   OH245963   5.876   0.740   4.990 -0.1667  0.3026  0.4321
 8183TIP3    H145964   5.844   0.655   5.019  0.3089 -0.5758 -1.5783
 8183TIP3    H245965   5.822   0.763   4.915  0.5697  1.1604  0.1439
 8184TIP3   OH245966   3.294   5.619   2.613 -0.0930 -0.2222 -0.3514
 8184TIP3    H145967   3.238   5.543   2.628 -2.7530  2.0434  1.7337
 8184TIP3    H245968   3.296   5.665   2.698  2.7314  1.2154 -1.1161
 8185TIP3   OH245969   5.065   2.859  11.603  0.2469 -0.1748  0.1274
 8185TIP3    H145970   5.137   2.809  11.640 -0.4031 -0.7659  0.6126
 8185TIP3    H245971   5.076   2.851  11.508  2.1922  1.7465  0.1625
 8186TIP3   OH245972   4.664   0.041  14.647  0.1431  0.1219 -0.0459
 8186TIP3    H145973   4.678  -0.012  14.725  1.1671  0.1171 -0.2274
 8186TIP3    H245974   4.660   0.131  14.679  0.1196  0.0840  0.0546
 8187TIP3   OH245975   2.021   4.010  13.929  0.2454  0.1674  0.7725
 8187TIP3    H145976   1.962   4.035  13.857 -0.3613  0.0063  1.2055
 8187TIP3    H245977   2.044   3.919  13.909 -1.8205 -0.6628  2.0254
 8188TIP3   OH245978   6.268   1.346   3.621  0.2444  0.4657  0.1486
 8188TIP3    H145979   6.225   1.328   3.704  1.8781 -0.0237  0.8970
 8188TIP3    H245980   6.210   1.307   3.555 -0.0500 -0.8839  1.1916
 8189TIP3   OH245981   4.912   5.887   1.907  0.5493  0.3097 -0.0967
 8189TIP3    H145982   4.911   5.824   1.835 -0.2454 -1.2680  1.2666
 8189TIP3    H245983   4.987   5.943   1.889  0.1824  0.1134 -2.2999
 8190TIP3   OH245984   0.226   4.378   3.944  0.0496 -0.1049 -0.0481
 8190TIP3    H145985   0.143   4.346   3.909 -0.4337  1.5658 -0.4512
 8190TIP3    H245986   0.282   4.300   3.945 -0.9127 -0.8489 -1.5321
 8191TIP3   OH245987   5.789   6.099  16.551 -0.1617  0.1266 -0.2327
 8191TIP3    H145988   5.810   6.156  16.477  1.1631  0.6241  0.4966
 8191TIP3    H245989   5.725   6.037  16.517 -0.2020  0.8824 -1.5539
 8192TIP3   OH245990   5.642   1.966   4.060  0.0103  0.4512 -0.0298
 8192TIP3    H145991   5.635   1.970   4.156  1.3091  3.0513  0.0082
 8192TIP3    H245992   5.636   1.873   4.039  0.5510 -0.2216  2.6450
 8193TIP3   OH245993   4.410   6.671   3.837 -0.0547  0.3398 -0.2254
 8193TIP3    H145994   4.471   6.619   3.784 -0.2824 -0.5238  0.3450
 8193TIP3    H245995   4.334   6.682   3.780 -1.2159 -2.5093  0.6674
 8194TIP3   OH245996   1.329   3.930   4.569 -0.0077 -0.4537  0.4797
 8194TIP3    H145997   1.402   3.899   4.622  0.6356 -2.0620 -1.2723
 8194TIP3    H245998   1.252   3.914   4.622  0.7345 -0.7080  1.5028
 8195TIP3   OH245999   0.249   4.694   4.488 -0.1775  0.0099  0.2117
 8195TIP3    H146000   0.297   4.639   4.550 -0.0533 -0.8520 -0.6315
 8195TIP3    H246001   0.169   4.644   4.470 -0.8142  0.8616  0.6681
 8196TIP3   OH246002   5.434   4.403  11.381  0.1921  0.6930 -0.5384
 8196TIP3    H146003   5.432   4.308  11.374  0.5609  0.6279  0.2346
 8196TIP3    H246004   5.408   4.421  11.471  0.0370  1.3303 -0.7088
 8197TIP3   OH246005   5.966   0.468  12.905 -0.5368 -0.0074  0.0241
 8197TIP3    H146006   6.006   0.389  12.939 -2.1382 -0.9536 -0.2386
 8197TIP3    H246007   5.974   0.532  12.976 -1.1715 -1.0612  1.0563
 8198TIP3   OH246008   3.871   5.285   2.208  0.1622 -0.1460 -0.5200
 8198TIP3    H146009   3.898   5.302   2.117 -1.3636 -3.2644 -1.6438
 8198TIP3    H246010   3.779   5.308   2.210  0.1046 -0.4286  0.1403
 8199TIP3   OH246011   4.408   3.449  11.816  0.0932 -0.2274  0.2987
 8199TIP3    H146012   4.448   3.401  11.744 -0.9854 -0.4704 -0.1427
 8199TIP3    H246013   4.474   3.514  11.841  0.3187  0.1305 -1.1708
 8200TIP3   OH246014   2.471   0.865   6.355  0.0246  0.0561 -0.3525
 8200TIP3    H146015   2.387   0.909   6.343 -0.5999 -0.6570  1.2466
 8200TIP3    H246016   2.535   0.935   6.360 -0.5653  0.6346 -0.8980
 8201TIP3   OH246017   6.217   3.788   0.352  0.1839  0.5012  0.4237
 8201TIP3    H146018   6.234   3.796   0.258  0.5203  4.6047  0.7057
 8201TIP3    H246019   6.300   3.758   0.389  1.1021  2.1079 -0.2756
 8202TIP3   OH246020   4.866   6.026   4.394 -0.0554 -0.1836 -0.2549
 8202TIP3    H146021   4.793   6.083   4.367  0.1274  0.8226  1.2819
 8202TIP3    H246022   4.824   5.950   4.434 -0.2804  0.5503  0.9337
 8203TIP3   OH246023   6.660   5.622  12.193  0.0301  0.8472  0.3343
 8203TIP3    H146024   6.703   5.690  12.245  0.4310  0.1008  0.9852
 8203TIP3    H246025   6.599   5.670  12.136 -0.3477  1.6623  1.4187
 8204TIP3   OH246026   2.617   0.568  13.868  0.7594 -0.0386  0.4358
 8204TIP3    H146027   2.569   0.485  13.870 -1.4857  1.2328  2.2489
 8204TIP3    H246028   2.581   0.615  13.793  2.7234 -1.0617 -1.1828
 8205TIP3   OH246029   2.730   3.411   2.506  0.8817  0.3860  0.2396
 8205TIP3    H146030   2.724   3.474   2.578 -0.7021  1.2085 -0.5784
 8205TIP3    H246031   2.822   3.386   2.504  0.6893 -0.9325  3.6066
 8206TIP3   OH246032   2.832   3.839  14.072 -0.0128 -0.5889 -0.4286
 8206TIP3    H146033   2.870   3.849  14.159  0.8728  0.7770 -0.9413
 8206TIP3    H246034   2.748   3.796  14.086  0.6179 -1.3744  0.9891
 8207TIP3   OH246035   4.036   1.038  12.608  0.2505 -0.2060 -0.0170
 8207TIP3    H146036   4.130   1.024  12.604  0.1427 -1.6747  2.0535
 8207TIP3    H246037   4.001   0.961  12.652 -1.8040  0.8216  0.2408
 8208TIP3   OH246038   6.503   2.606  13.345  0.0640  0.2637 -0.1226
 8208TIP3    H146039   6.527   2.523  13.304  0.3272  0.9771 -1.4173
 8208TIP3    H246040   6.585   2.655  13.351 -0.2554  0.8270 -0.2785
 8209TIP3   OH246041   1.248   2.657   1.813  0.5071  0.0868  0.1528
 8209TIP3    H146042   1.172   2.712   1.792  0.5882  0.4159  0.7177
 8209TIP3    H246043   1.225   2.614   1.895  0.4351 -0.7536 -0.2968
 8210TIP3   OH246044   0.333   2.743  14.744  0.3565  0.2093 -0.3535
 8210TIP3    H146045   0.285   2.825  14.734  1.6095  0.8859 -0.8796
 8210TIP3    H246046   0.289   2.699  14.817  1.1539  2.4225  1.5198
 8211TIP3   OH246047   2.373   4.651   1.510  0.7365 -0.3867  0.0813
 8211TIP3    H146048   2.432   4.710   1.556  0.5141 -0.1081  0.0119
 8211TIP3    H246049   2.391   4.564   1.547  0.9726 -0.2542  0.2724
 8212TIP3   OH246050   2.979   6.732   0.768  0.3263  0.2853  0.1531
 8212TIP3    H146051   3.035   6.738   0.846 -0.4866  0.6991  0.7159
 8212TIP3    H246052   2.891   6.718   0.804 -0.4744  3.2046 -0.5970
 8213TIP3   OH246053   1.574   1.165   2.739  0.0972  0.1834  0.2547
 8213TIP3    H146054   1.552   1.100   2.672 -0.6220 -0.7613  1.4158
 8213TIP3    H246055   1.546   1.249   2.701 -1.2872 -0.4727 -0.1763
 8214TIP3   OH246056   1.686   2.463  15.498  0.6755 -0.0624 -0.0884
 8214TIP3    H146057   1.769   2.510  15.498  0.7137 -0.1179 -1.2242
 8214TIP3    H246058   1.638   2.500  15.572  2.3684 -1.2211  1.6379
 8215TIP3   OH246059   3.832   1.279  16.250 -0.4071 -0.6839 -0.2075
 8215TIP3    H146060   3.786   1.294  16.333 -0.7586 -4.1016  0.2844
 8215TIP3    H246061   3.818   1.360  16.200 -0.5705  1.2449  2.8654
 8216TIP3   OH246062   4.424   5.161  14.395  0.1725 -0.1417 -0.3400
 8216TIP3    H146063   4.350   5.101  14.406  0.2072  0.1111  1.4666
 8216TIP3    H246064   4.385   5.240  14.359 -0.2920 -0.3296 -0.2584
 8217TIP3   OH246065   6.381   3.865  13.480  0.4334  0.0482  0.3289
 8217TIP3    H146066   6.308   3.874  13.418  1.4002 -2.0528 -1.1371
 8217TIP3    H246067   6.346   3.809  13.550  0.1004  0.5086  0.5429
 8218TIP3   OH246068   5.216   2.520   5.994 -0.5001  0.4222  0.0330
 8218TIP3    H146069   5.249   2.565   6.072  1.8064  0.6142 -1.0117
 8218TIP3    H246070   5.220   2.428   6.017 -1.8815  0.5743  0.9148
 8219TIP3   OH246071   2.411   4.160  11.982 -0.7308 -0.6676 -0.3268
 8219TIP3    H146072   2.495   4.161  11.936 -0.7182  1.8241 -0.3404
 8219TIP3    H246073   2.349   4.195  11.918 -1.4037 -0.6722  0.3198
 8220TIP3   OH246074   4.146   1.495  13.427 -0.4742  0.3723  0.0833
 8220TIP3    H146075   4.217   1.519  13.486 -1.2921 -0.2511  1.3414
 8220TIP3    H246076   4.190   1.452  13.353  0.6334  2.0825 -0.2734
 8221TIP3   OH246077   0.707   0.331   0.391  0.2401  0.2169 -0.8845
 8221TIP3    H146078   0.677   0.256   0.441 -0.0177  0.3512 -0.8339
 8221TIP3    H246079   0.740   0.392   0.456 -1.5562  1.0592 -0.7229
 8222TIP3   OH246080   5.049   1.826   3.274 -0.2319 -0.1068  0.2986
 8222TIP3    H146081   5.108   1.751   3.278  1.1118  0.9782  1.3402
 8222TIP3    H246082   5.105   1.899   3.250 -1.2114  0.8975  1.0058
 8223TIP3   OH246083   2.077   3.882  15.295  0.2829 -0.1539  0.9600
 8223TIP3    H146084   2.088   3.846  15.383 -1.1459  2.1005  2.1040
 8223TIP3    H246085   2.150   3.942  15.283  0.0413  0.1305  0.9090
 8224TIP3   OH246086   5.118   5.029   5.812 -0.5553  0.0272  0.0351
 8224TIP3    H146087   5.106   5.013   5.718  1.8557 -1.1523 -0.1041
 8224TIP3    H246088   5.203   5.072   5.819 -0.0763 -1.1311  1.7777
 8225TIP3   OH246089   4.975   4.205   4.691 -0.1827  0.4415 -0.2040
 8225TIP3    H146090   4.933   4.133   4.738 -0.3550  0.5517 -0.1907
 8225TIP3    H246091   5.069   4.188   4.701 -0.2093 -0.6192 -1.4674
 8226TIP3   OH246092   4.399   3.736  10.495  0.1751 -0.4568  0.5192
 8226TIP3    H146093   4.327   3.695  10.448  0.4776 -0.9924  0.5117
 8226TIP3    H246094   4.357   3.790  10.562 -0.2720  0.7124 -0.6708
 8227TIP3   OH246095   4.369   5.302  12.534 -0.4401 -0.1774 -0.0033
 8227TIP3    H146096   4.339   5.280  12.623  0.0918 -1.1473 -0.0546
 8227TIP3    H246097   4.290   5.326  12.487 -0.8471 -0.5272  0.4934
 8228TIP3   OH246098   3.773   1.023   2.864  0.0136 -0.2135 -0.4539
 8228TIP3    H146099   3.781   1.055   2.954 -1.6369  0.4704 -0.5185
 8228TIP3    H246100   3.846   1.064   2.817  0.4589  0.0039  0.4181
 8229TIP3   OH246101   2.194   2.968   0.001  0.2350 -0.4120 -0.4037
 8229TIP3    H146102   2.274   3.014   0.028  0.5346 -0.9690 -0.3452
 8229TIP3    H246103   2.219   2.876  -0.004 -0.3793 -0.5784 -0.4850
 8230TIP3   OH246104   3.500   5.972   5.420 -0.0784  0.2411 -0.4534
 8230TIP3    H146105   3.554   5.954   5.343 -0.0430  1.1140 -0.6419
 8230TIP3    H246106   3.454   5.890   5.437 -1.1716  0.4330 -2.2865
 8231TIP3   OH246107   2.819   0.376  14.655  0.4184  0.4761 -0.1282
 8231TIP3    H146108   2.873   0.453  14.671 -0.5000  1.1439 -0.1755
 8231TIP3    H246109   2.863   0.306  14.702  1.5040  0.9341 -0.4524
 8232TIP3   OH246110   5.759   0.476   0.796  0.1338  0.3311 -0.2134
 8232TIP3    H146111   5.746   0.381   0.801  2.0912  0.0431 -0.0337
 8232TIP3    H246112   5.695   0.513   0.856 -0.1474 -0.9257  0.2711
 8233TIP3   OH246113   6.306   2.100   0.832  0.2927 -0.4347 -0.5184
 8233TIP3    H146114   6.254   2.080   0.909 -0.9987  0.4078 -1.1603
 8233TIP3    H246115   6.351   2.018   0.811  0.2058 -0.8166  0.7770
 8234TIP3   OH246116   1.801   2.401  14.322  0.5411 -0.5366 -0.3289
 8234TIP3    H146117   1.845   2.428  14.241  0.0017  2.0226  0.1826
 8234TIP3    H246118   1.738   2.334  14.294  0.1079  0.5645 -2.1028
 8235TIP3   OH246119   3.279   5.424   5.317  0.5253  0.7659 -0.1995
 8235TIP3    H146120   3.300   5.424   5.224  1.5408 -0.1703  0.0138
 8235TIP3    H246121   3.358   5.457   5.360  0.7311 -0.5196  0.4452
 8236TIP3   OH246122   1.831   3.305  14.487  0.2548 -0.4969  0.5840
 8236TIP3    H146123   1.872   3.337  14.568  2.7699 -2.3444  0.0996
 8236TIP3    H246124   1.891   3.237  14.456 -1.5776 -0.9924 -1.9255
 8237TIP3   OH246125   6.090   2.472  16.446  0.6711 -0.4160  0.2129
 8237TIP3    H146126   6.041   2.552  16.469  0.7416 -0.3086 -0.0067
 8237TIP3    H246127   6.082   2.467  16.350  0.0402 -1.0757  0.2994
 8238TIP3   OH246128   3.364   4.853  14.320  0.0894 -0.4369 -0.4795
 8238TIP3    H146129   3.362   4.906  14.240 -1.1824  0.0590 -0.1315
 8238TIP3    H246130   3.454   4.859  14.351  0.0450  1.2531 -0.6384
 8239TIP3   OH246131   4.138   1.043   4.550 -0.6617  0.1779  0.3538
 8239TIP3    H146132   4.048   1.077   4.548 -0.8013 -0.2434 -1.8353
 8239TIP3    H246133   4.194   1.120   4.551 -1.0429  0.4512  0.5174
 8240TIP3   OH246134   3.191   0.477   1.354 -0.7441 -0.4286 -0.0533
 8240TIP3    H146135   3.270   0.464   1.406  0.7780  0.3084 -2.0793
 8240TIP3    H246136   3.147   0.551   1.395 -0.0142 -0.3937  0.6752
 8241TIP3   OH246137   0.017   5.964   1.315  0.2297  0.5519 -0.2643
 8241TIP3    H146138   0.029   5.880   1.273  1.2546  0.3559  0.3736
 8241TIP3    H246139  -0.077   5.979   1.315  0.1342 -0.0591 -1.4037
 8242TIP3   OH246140   4.274   0.976   5.404 -0.3627  0.7370  0.1422
 8242TIP3    H146141   4.267   0.888   5.440 -1.5732  0.4338 -0.7998
 8242TIP3    H246142   4.198   1.023   5.441 -0.0222  1.2327  0.2215
 8243TIP3   OH246143   6.557   1.824  16.017  0.4060 -0.2809  0.3582
 8243TIP3    H146144   6.489   1.866  16.069  0.9092 -1.7339  2.2879
 8243TIP3    H246145   6.517   1.743  15.985  0.4903  0.0039 -0.4718
 8244TIP3   OH246146   3.630   1.693   4.412 -0.5049  0.2760  0.4594
 8244TIP3    H146147   3.667   1.612   4.445  2.6612  0.4301 -2.4700
 8244TIP3    H246148   3.586   1.669   4.330 -3.3601  0.8363  1.7503
 8245TIP3   OH246149   5.794   5.901   1.681 -0.1146  0.3194  0.2992
 8245TIP3    H146150   5.772   5.815   1.714  0.0580  0.5659  1.0650
 8245TIP3    H246151   5.800   5.890   1.586  1.4779 -0.8738  0.5146
 8246TIP3   OH246152   5.472   4.435  16.774  0.3722 -0.2121  0.5304
 8246TIP3    H146153   5.488   4.526  16.749  0.0486  0.2902  2.1093
 8246TIP3    H246154   5.559   4.397  16.783  0.5573  0.5094  1.8791
 8247TIP3   OH246155   3.757   0.106   4.958 -0.3803 -0.0867  0.4741
 8247TIP3    H146156   3.837   0.080   5.004 -0.8125 -1.7806  0.2896
 8247TIP3    H246157   3.688   0.051   4.995 -1.3462  0.8777  0.1518
 8248TIP3   OH246158   2.561   5.883  16.696  0.4947 -0.3044 -0.0690
 8248TIP3    H146159   2.653   5.901  16.716  0.7090 -1.3258 -0.0937
 8248TIP3    H246160   2.563   5.849  16.606  0.1563 -0.8157  0.1168
 8249TIP3   OH246161   2.099   0.605  12.451  0.0820  0.0113  0.2868
 8249TIP3    H146162   2.065   0.516  12.439 -1.0961  0.2255  1.9077
 8249TIP3    H246163   2.037   0.661  12.404 -0.0707  0.1193  0.6157
 8250TIP3   OH246164   4.309   4.806  13.645 -0.0607  0.5685 -0.1779
 8250TIP3    H146165   4.296   4.712  13.644  2.4981  0.1667  0.5013
 8250TIP3    H246166   4.367   4.824  13.571  0.2825  1.4428  0.2813
 8251TIP3   OH246167   2.080   3.717  15.527 -0.2313  0.1519 -0.3405
 8251TIP3    H146168   2.076   3.638  15.581 -1.5630 -0.1904 -0.9201
 8251TIP3    H246169   2.146   3.697  15.461 -1.4545 -0.9632 -1.2399
 8252TIP3   OH246170   0.392   3.779  12.010 -0.2213  0.3538  0.3992
 8252TIP3    H146171   0.479   3.797  12.044 -0.0837  0.1658  0.1442
 8252TIP3    H246172   0.335   3.779  12.088 -0.1948  1.7277  0.4281
 8253TIP3   OH246173   2.937   3.180  16.529 -0.7568 -0.1483 -0.5791
 8253TIP3    H146174   3.003   3.112  16.513  0.0495  0.4449  0.1517
 8253TIP3    H246175   2.983   3.246  16.581 -2.0569  0.0656  0.3164
 8254TIP3   OH246176   6.564   0.754  16.957  0.2017 -0.3434 -0.8412
 8254TIP3    H146177   6.602   0.836  16.923 -2.2969  0.2138 -2.4465
 8254TIP3    H246178   6.475   0.778  16.983  0.7579 -1.6899  2.4937
 8255TIP3   OH246179   3.933   0.723   3.211  0.6056  0.6744  0.1627
 8255TIP3    H146180   3.955   0.650   3.153  1.7229  0.9882  0.1750
 8255TIP3    H246181   3.838   0.729   3.207  0.5312 -0.5337 -0.1441
 8256TIP3   OH246182   5.942   2.787  13.475  0.1419  0.2506  0.4466
 8256TIP3    H146183   6.020   2.793  13.529 -0.4191  1.1315  1.1590
 8256TIP3    H246184   5.874   2.833  13.524 -0.0341  2.3028 -1.6217
 8257TIP3   OH246185   1.977   1.458   0.829 -0.9009 -0.3034 -0.1625
 8257TIP3    H146186   1.948   1.395   0.763  0.8603 -1.8136  0.4214
 8257TIP3    H246187   1.958   1.415   0.913  0.8846 -0.3883  0.2379
 8258TIP3   OH246188   6.719   6.483  15.386  0.2686  0.2778 -0.6394
 8258TIP3    H146189   6.775   6.554  15.354 -1.3267  0.5849 -2.8805
 8258TIP3    H246190   6.699   6.507  15.477 -0.9656  3.2128 -1.6266
 8259TIP3   OH246191   6.682   1.015   4.596  0.1647  0.3890  0.0139
 8259TIP3    H146192   6.642   0.996   4.680 -0.0210 -0.4083 -0.2491
 8259TIP3    H246193   6.754   0.952   4.589  1.5287  1.8483  0.5175
 8260TIP3   OH246194   1.182   5.139  14.187 -0.0190 -0.5025 -0.1021
 8260TIP3    H146195   1.254   5.158  14.128 -0.3546 -2.1532 -1.1044
 8260TIP3    H246196   1.177   5.214  14.246  1.9205  0.0241 -0.5979
 8261TIP3   OH246197   4.607   1.366   2.732  0.2484  0.4651 -0.4538
 8261TIP3    H146198   4.554   1.302   2.778  0.2254  1.5675  1.0847
 8261TIP3    H246199   4.544   1.420   2.685  0.2903 -0.8554 -2.0760
 8262TIP3   OH246200   4.204   4.439   1.553 -0.4280  0.0020  0.2348
 8262TIP3    H146201   4.216   4.526   1.515  0.5397 -0.3121 -0.1984
 8262TIP3    H246202   4.232   4.378   1.484 -0.2965 -0.6197  0.8277
 8263TIP3   OH246203   4.144   6.284   6.324 -0.5252 -0.1315 -0.3169
 8263TIP3    H146204   4.154   6.193   6.351 -2.1769 -1.0036 -2.5216
 8263TIP3    H246205   4.229   6.309   6.288 -0.1467 -0.8631  0.0563
 8264TIP3   OH246206   1.741   4.249  11.047  0.0818 -0.0361 -0.0451
 8264TIP3    H146207   1.765   4.319  11.108  0.4141  0.0910 -0.3230
 8264TIP3    H246208   1.732   4.292  10.963  1.7996 -0.5630 -0.5305
 8265TIP3   OH246209   3.624   3.903  12.979  0.4898 -0.2853  0.7060
 8265TIP3    H146210   3.709   3.866  13.003  0.5071 -0.6884  0.0236
 8265TIP3    H246211   3.633   3.926  12.886 -0.1673 -0.3840  0.6153
 8266TIP3   OH246212   3.020   6.551  16.146  0.1306  0.2015  0.6515
 8266TIP3    H146213   3.011   6.459  16.170  0.1752 -0.2999 -1.2130
 8266TIP3    H246214   2.931   6.578  16.120  0.6568 -0.1409 -1.6107
 8267TIP3   OH246215   1.099   5.314   1.572  0.1256  0.6480 -0.0053
 8267TIP3    H146216   1.125   5.294   1.662  0.4319  0.6104 -0.1031
 8267TIP3    H246217   1.106   5.231   1.526  0.1275  0.7034 -0.1043
 8268TIP3   OH246218   0.361   4.585  11.441 -0.1357 -0.0771 -0.1227
 8268TIP3    H146219   0.403   4.619  11.521 -0.1148  0.4561 -0.3558
 8268TIP3    H246220   0.400   4.636  11.370  0.9412 -1.5897 -0.6307
 8269TIP3   OH246221   0.951   0.109  16.015  0.4786 -0.1286  0.7496
 8269TIP3    H146222   1.020   0.065  15.964 -1.4301 -1.2739 -0.9301
 8269TIP3    H246223   0.885   0.042  16.029 -1.1810  1.4312  0.6397
 8270TIP3   OH246224   2.072   2.619   2.363  0.4098  0.5357 -0.7682
 8270TIP3    H146225   2.062   2.713   2.373 -1.0788  0.4177 -1.0593
 8270TIP3    H246226   2.163   2.602   2.387  0.0043  1.6923  1.7078
 8271TIP3   OH246227   6.056   1.963  14.252 -0.1055 -0.6062  0.2892
 8271TIP3    H146228   6.036   1.875  14.220  1.7048 -1.1600  0.5896
 8271TIP3    H246229   5.981   1.986  14.307 -2.9380  0.0782 -3.6684
 8272TIP3   OH246230   3.356   4.219   1.662  0.0395 -0.0053  0.3178
 8272TIP3    H146231   3.399   4.236   1.578 -0.4899  2.9375  0.5925
 8272TIP3    H246232   3.347   4.124   1.666  1.0333 -0.2483 -2.4724
 8273TIP3   OH246233   1.639   1.851  14.072 -0.0298 -0.3744  0.6620
 8273TIP3    H146234   1.684   1.795  14.136  0.0829 -0.8290  0.1868
 8273TIP3    H246235   1.626   1.934  14.118 -0.6438 -0.9456  1.5530
 8274TIP3   OH246236   1.238   3.749   3.236 -0.3847  0.4140  0.1708
 8274TIP3    H146237   1.267   3.821   3.180 -1.1012 -0.1667 -0.9636
 8274TIP3    H246238   1.310   3.685   3.231 -0.6469  0.1662 -0.4495
 8275TIP3   OH246239   4.276   1.283   4.564  0.0331  0.1388 -0.7111
 8275TIP3    H146240   4.279   1.373   4.530 -2.3315  0.2161 -0.8101
 8275TIP3    H246241   4.277   1.294   4.659 -2.1568  0.4094 -0.6889
 8276TIP3   OH246242   3.946   0.208   2.612  0.2084  0.3265  0.4161
 8276TIP3    H146243   4.020   0.225   2.671  0.9797  0.2667 -0.5210
 8276TIP3    H246244   3.894   0.141   2.657  1.5343 -0.7302  0.3925
 8277TIP3   OH246245   5.002   6.165  16.299 -0.3447 -0.0692  0.6175
 8277TIP3    H146246   4.921   6.169  16.248 -0.0997  1.0046  0.2937
 8277TIP3    H246247   5.069   6.197  16.239  0.2852 -0.7237  0.9656
 8278TIP3   OH246248   3.744   3.513   2.110 -0.3998  0.4090  0.0579
 8278TIP3    H146249   3.805   3.449   2.072 -1.4382  0.2703 -1.4305
 8278TIP3    H246250   3.740   3.584   2.046 -0.5447  1.1870  0.9173
 8279TIP3   OH246251   0.727   1.554   5.237  0.0307 -0.3356  0.3220
 8279TIP3    H146252   0.740   1.471   5.192  2.1553 -0.3229  0.8364
 8279TIP3    H246253   0.761   1.539   5.326 -0.2150  0.8560  0.6288
 8280TIP3   OH246254   2.440   6.715  14.460 -0.1404 -0.7613  0.0961
 8280TIP3    H146255   2.406   6.652  14.396  1.8060 -0.7859 -0.9425
 8280TIP3    H246256   2.444   6.666  14.542  1.4822 -2.0678 -0.7282
 8281TIP3   OH246257   0.031   1.559  15.502  0.1525 -0.3429  0.4938
 8281TIP3    H146258   0.092   1.587  15.433  0.3169  2.1280  1.5939
 8281TIP3    H246259   0.084   1.502  15.559  0.6487 -0.4936 -0.1071
 8282TIP3   OH246260   5.810   3.856   1.376  0.2948  0.5870  0.6534
 8282TIP3    H146261   5.735   3.817   1.332  0.0682 -0.3324  1.8134
 8282TIP3    H246262   5.869   3.882   1.305 -0.4733 -0.0033 -0.2154
 8283TIP3   OH246263   1.388   5.455  15.206  0.2148  0.3107  0.1070
 8283TIP3    H146264   1.317   5.499  15.158 -0.7593  0.3777  1.5572
 8283TIP3    H246265   1.446   5.526  15.233  1.7384  0.1044 -2.4561
 8284TIP3   OH246266   3.402   0.747   3.505  0.2735  0.2978  0.1772
 8284TIP3    H146267   3.465   0.816   3.527 -0.1948  0.8991 -0.3501
 8284TIP3    H246268   3.392   0.753   3.410 -1.8540  1.3115  0.4404
 8285TIP3   OH246269   2.426   6.379   1.239  0.1871  0.0430 -0.3749
 8285TIP3    H146270   2.397   6.292   1.212 -2.3643  0.5853  0.4569
 8285TIP3    H246271   2.383   6.393   1.323  1.3766  1.7245 -0.0249
 8286TIP3   OH246272   2.949   4.176   5.402 -0.4304 -0.0492 -0.2423
 8286TIP3    H146273   2.940   4.081   5.407 -1.2394 -0.0638 -1.6384
 8286TIP3    H246274   2.858   4.208   5.400 -0.1605  0.7267 -0.2385
 8287TIP3   OH246275   3.649   4.804  15.155 -0.2049 -0.3637 -0.4133
 8287TIP3    H146276   3.655   4.773  15.065  0.2972 -0.3124 -0.3972
 8287TIP3    H246277   3.687   4.733  15.207 -1.5586 -0.8965 -0.1380
 8288TIP3   OH246278   6.307   3.704   3.849 -0.2911  0.0870  0.0487
 8288TIP3    H146279   6.338   3.688   3.760  0.5166  0.9690  0.1682
 8288TIP3    H246280   6.244   3.633   3.865  0.6042 -0.8947 -0.7034
 8289TIP3   OH246281   2.117   6.729  13.391 -0.0533 -0.2950 -0.0296
 8289TIP3    H146282   2.039   6.673  13.379 -1.1671  0.9079  1.4139
 8289TIP3    H246283   2.098   6.807  13.340  1.9240 -1.5764 -2.8263
 8290TIP3   OH246284   5.156   6.520  11.099 -0.2653 -0.2773 -0.4501
 8290TIP3    H146285   5.118   6.534  11.186  0.5251  0.0537 -0.1573
 8290TIP3    H246286   5.182   6.607  11.070  2.0080 -0.7304  0.1484
 8291TIP3   OH246287   5.294   2.181  15.870  0.6075 -0.0880 -0.2676
 8291TIP3    H146288   5.305   2.260  15.923 -1.6577  0.5731 -0.7019
 8291TIP3    H246289   5.346   2.114  15.914  0.2910  0.9416  1.6917
 8292TIP3   OH246290   5.626   1.184   3.067  0.0336 -0.1054 -0.4133
 8292TIP3    H146291   5.572   1.115   3.105  2.3763 -0.6531  2.0923
 8292TIP3    H246292   5.676   1.141   2.998  1.8289 -1.1335  1.4423
 8293TIP3   OH246293   6.026   3.134   0.907  0.1827 -0.0593  0.5653
 8293TIP3    H146294   5.938   3.155   0.875  0.4700  0.6029  0.1996
 8293TIP3    H246295   6.042   3.046   0.874 -0.4231 -0.2672  0.8074
 8294TIP3   OH246296   6.033   2.436   3.903  0.4738  0.6720  0.7693
 8294TIP3    H146297   6.016   2.360   3.847 -1.5194  1.7166 -0.0710
 8294TIP3    H246298   6.112   2.476   3.865  0.0787  0.4452 -0.3191
 8295TIP3   OH246299   0.009   4.935   1.831  0.0780 -0.7135  0.3461
 8295TIP3    H146300   0.082   4.966   1.885  1.8068 -0.7439 -1.8384
 8295TIP3    H246301  -0.068   4.945   1.886  1.8020 -1.2707  2.9729
 8296TIP3   OH246302   3.190   5.329   5.587 -0.3717 -0.1902 -0.2108
 8296TIP3    H146303   3.213   5.358   5.499 -1.6294 -1.0568 -0.8344
 8296TIP3    H246304   3.166   5.237   5.577  0.7014 -0.6512  1.2508
 8297TIP3   OH246305   5.075   3.901   5.186 -1.2087  0.2529  0.3752
 8297TIP3    H146306   5.126   3.829   5.224  1.5690  0.4966 -2.6296
 8297TIP3    H246307   4.984   3.878   5.202 -0.3127 -3.1009  0.9763
 8298TIP3   OH246308   5.606   6.740  15.965 -0.0878 -0.5040  0.0230
 8298TIP3    H146309   5.662   6.671  16.000  1.1977  0.2668 -0.4623
 8298TIP3    H246310   5.571   6.784  16.042  0.0224 -0.9488  0.3316
 8299TIP3   OH246311   4.974   3.854   4.453 -0.6662  0.1993  0.6978
 8299TIP3    H146312   4.959   3.947   4.438 -1.3846 -0.2488 -1.6133
 8299TIP3    H246313   4.889   3.820   4.480  0.0543  0.5299  3.6361
 8300TIP3   OH246314   4.020   6.149   2.511 -0.5117  0.2413  0.1575
 8300TIP3    H146315   4.030   6.155   2.606 -4.0822 -1.2130  0.7097
 8300TIP3    H246316   4.109   6.163   2.476  1.0212 -0.0902  3.7215
 8301TIP3   OH246317   3.654   4.196   3.711  0.1862 -0.0494  0.2965
 8301TIP3    H146318   3.721   4.131   3.695  0.0352  0.5961 -3.4515
 8301TIP3    H246319   3.572   4.152   3.690 -0.2303  0.2352  1.3177
 8302TIP3   OH246320   2.026   5.072   1.230 -0.5899 -0.2738  0.4775
 8302TIP3    H146321   2.059   5.043   1.315  2.4341  1.5107 -0.0291
 8302TIP3    H246322   1.976   5.151   1.250  0.8193  0.6249  0.5494
 8303TIP3   OH246323   0.616   2.007   6.428 -0.5298  0.3728  0.1363
 8303TIP3    H146324   0.561   1.962   6.364 -1.0859  0.0313  0.8413
 8303TIP3    H246325   0.574   1.989   6.512 -0.6669  2.0875  0.4506
 8304TIP3   OH246326   4.487   4.479   4.487  0.5146 -0.3503  1.0395
 8304TIP3    H146327   4.433   4.512   4.415  2.5991  0.4683 -0.1943
 8304TIP3    H246328   4.502   4.387   4.466 -0.5106 -0.6197  1.4670
 8305TIP3   OH246329   0.664   0.065   3.369  0.2842  0.0577  0.5061
 8305TIP3    H146330   0.601   0.043   3.300  0.4202 -0.8639  0.6762
 8305TIP3    H246331   0.612   0.111   3.435 -0.2154 -0.7313  0.6615
 8306TIP3   OH246332   0.087   1.261   3.950 -0.0229  0.2837  0.1197
 8306TIP3    H146333   0.171   1.215   3.957  1.7209  3.0852 -1.3696
 8306TIP3    H246334   0.049   1.230   3.868  0.6169  0.6479 -0.3180
 8307TIP3   OH246335   1.048   5.545  12.603 -0.4388 -0.4085  0.2052
 8307TIP3    H146336   1.120   5.499  12.644 -1.4372  0.3066  2.8198
 8307TIP3    H246337   1.078   5.636  12.596 -0.7066 -0.3007  0.4242
 8308TIP3   OH246338   2.997   6.024   4.641  0.5491 -0.1920 -0.5396
 8308TIP3    H146339   3.075   6.078   4.653 -0.4186  1.1342 -0.0845
 8308TIP3    H246340   3.030   5.940   4.610  2.4159 -0.6478  2.4469
 8309TIP3   OH246341   2.362   1.318   6.046  0.0635 -0.1602  0.4592
 8309TIP3    H146342   2.376   1.233   6.088  0.4943 -0.6779 -0.7077
 8309TIP3    H246343   2.324   1.373   6.114 -0.0827 -1.2527  1.2644
 8310TIP3   OH246344   4.637   3.822  16.860 -0.1383 -0.3389  0.1961
 8310TIP3    H146345   4.703   3.882  16.827  2.3388 -2.5594  0.9383
 8310TIP3    H246346   4.649   3.823  16.955  0.7692 -2.8594  0.1402
 8311TIP3   OH246347   5.204   0.450  14.143  0.1457  0.4490  0.2650
 8311TIP3    H146348   5.127   0.397  14.122 -0.7063  1.3822  0.9870
 8311TIP3    H246349   5.259   0.444  14.065 -0.3087 -0.8291  0.0213
 8312TIP3   OH246350   5.132   3.946   4.725 -0.3692 -0.3977  0.0340
 8312TIP3    H146351   5.184   4.010   4.676 -0.6322  0.8719  1.3759
 8312TIP3    H246352   5.061   3.922   4.665 -0.6842  1.1242 -0.2328
 8313TIP3   OH246353   5.801   1.700   0.907  0.2680  0.0162  0.4687
 8313TIP3    H146354   5.737   1.770   0.919  0.7007  0.5241 -0.1214
 8313TIP3    H246355   5.767   1.627   0.958 -1.1397  0.0471 -0.3972
 8314TIP3   OH246356   0.709   0.804  12.402  1.0456 -0.7645 -0.4763
 8314TIP3    H146357   0.688   0.730  12.460  0.7150 -0.1132  0.2484
 8314TIP3    H246358   0.633   0.810  12.344  0.7660 -0.5877 -0.1026
 8315TIP3   OH246359   0.304   4.894   3.663  0.5661  0.1116 -0.2805
 8315TIP3    H146360   0.295   4.930   3.575 -0.5283  1.4660  0.3550
 8315TIP3    H246361   0.346   4.965   3.713 -0.4471  0.0330  0.6906
 8316TIP3   OH246362   1.644   0.887  15.972 -0.4893 -0.0943 -0.3342
 8316TIP3    H146363   1.671   0.925  16.056  0.7435 -0.4038 -0.5896
 8316TIP3    H246364   1.718   0.903  15.913 -1.2308 -0.1313 -1.2958
 8317TIP3   OH246365   4.894   2.766   1.683  0.3471 -0.2509  0.3121
 8317TIP3    H146366   4.837   2.704   1.637  1.5729 -1.7844  0.7972
 8317TIP3    H246367   4.911   2.835   1.619 -1.2046 -0.2947 -0.1799
 8318TIP3   OH246368   0.063   3.822  13.471  0.5437 -0.1356  0.2479
 8318TIP3    H146369   0.051   3.759  13.542  1.4772 -0.5703  0.0341
 8318TIP3    H246370  -0.021   3.867  13.464 -0.2425 -1.5913  0.1757
 8319TIP3   OH246371   3.941   5.823   5.890 -0.2682  0.2390 -0.1819
 8319TIP3    H146372   3.846   5.810   5.892 -0.3067  0.4036 -0.8209
 8319TIP3    H246373   3.966   5.803   5.800  0.0480  1.9345 -0.4889
 8320TIP3   OH246374   2.890   0.578   3.994 -0.0621 -0.2291 -0.2653
 8320TIP3    H146375   2.815   0.523   3.974 -0.8728  0.8081 -0.1479
 8320TIP3    H246376   2.920   0.610   3.909  1.2001 -1.8432 -0.4489
 8321TIP3   OH246377   0.188   1.366   2.359  0.1364 -0.0251 -0.2604
 8321TIP3    H146378   0.261   1.349   2.418 -0.5309 -3.1212 -0.2740
 8321TIP3    H246379   0.230   1.387   2.275  1.0167  0.5573  0.3183
 8322TIP3   OH246380   3.947   2.819  15.354  0.1643  0.2977  0.5979
 8322TIP3    H146381   3.896   2.896  15.379  3.0075  1.7223  2.1969
 8322TIP3    H246382   3.988   2.844  15.271  2.3168  1.1388  1.8867
 8323TIP3   OH246383   6.474   6.377  10.535  0.5457  0.5357  0.2624
 8323TIP3    H146384   6.448   6.350  10.447  2.2843 -0.2792 -0.0272
 8323TIP3    H246385   6.400   6.355  10.590 -0.0963 -0.0351 -0.8209
 8324TIP3   OH246386   6.075   4.624   2.265 -0.5894 -0.3249  0.1434
 8324TIP3    H146387   5.997   4.640   2.318 -0.5465 -1.2079  0.4802
 8324TIP3    H246388   6.144   4.608   2.330  0.1353  1.5472 -0.1143
 8325TIP3   OH246389   0.915   2.857   0.413 -0.2766  0.1353 -0.6987
 8325TIP3    H146390   0.858   2.862   0.490  1.5634  1.2472  0.6355
 8325TIP3    H246391   0.858   2.881   0.340 -2.2294 -1.5856  0.1979
 8326TIP3   OH246392   3.653   0.834  14.680 -0.5254  0.6567  0.0022
 8326TIP3    H146393   3.700   0.910  14.715 -0.0673  0.7204 -0.7534
 8326TIP3    H246394   3.690   0.759  14.727  2.2430  0.4064 -2.4951
 8327TIP3   OH246395   4.949   4.913   4.186 -0.2357 -0.1881 -0.3645
 8327TIP3    H146396   4.948   4.818   4.193 -1.4395 -0.0397  2.3837
 8327TIP3    H246397   4.859   4.937   4.163 -0.2797  0.3446  0.3254
 8328TIP3   OH246398   3.402   5.538   2.024  0.4942  0.1843 -1.0453
 8328TIP3    H146399   3.385   5.454   2.068  2.3211 -0.4175 -1.4567
 8328TIP3    H246400   3.341   5.599   2.066 -1.1361 -1.4175 -1.0069
 8329TIP3   OH246401   0.285   6.498  14.098  0.0288 -0.4763 -0.2889
 8329TIP3    H146402   0.348   6.463  14.161  1.3433  0.4941 -1.0422
 8329TIP3    H246403   0.232   6.560  14.150 -0.5032 -1.5028  0.4081
 8330TIP3   OH246404   5.561   4.108   3.493  0.0656  0.4192 -0.1737
 8330TIP3    H146405   5.520   4.030   3.456  0.6021  0.4242 -0.7984
 8330TIP3    H246406   5.649   4.079   3.518  0.3316  0.8606 -0.5787
 8331TIP3   OH246407   1.353   0.928   0.170 -0.1947  0.0044 -0.2591
 8331TIP3    H146408   1.355   0.835   0.192  0.2267 -0.0357 -0.4718
 8331TIP3    H246409   1.319   0.971   0.249  1.3857 -0.1315  0.4968
 8332TIP3   OH246410   1.920   1.767   3.011 -0.0814 -0.0864  0.1439
 8332TIP3    H146411   1.938   1.686   3.060  1.8343  0.0393 -0.3053
 8332TIP3    H246412   1.982   1.831   3.046  2.0219 -0.2492 -3.0274
 8333TIP3   OH246413   0.129   3.462   0.099  0.4710  0.0371 -0.3060
 8333TIP3    H146414   0.046   3.442   0.144  1.7068  1.0504  2.5544
 8333TIP3    H246415   0.177   3.379   0.099  0.5905  0.0954  0.5930
 8334TIP3   OH246416   4.642   5.737   2.768 -0.3241  0.1662 -0.4125
 8334TIP3    H146417   4.713   5.732   2.705 -0.5873 -0.3382 -0.6718
 8334TIP3    H246418   4.588   5.811   2.739 -0.5195 -0.1516 -0.8538
 8335TIP3   OH246419   5.619   4.026  11.255  0.2628  0.1541  0.0958
 8335TIP3    H146420   5.584   3.975  11.183  0.8186 -2.0673  1.3578
 8335TIP3    H246421   5.712   4.038  11.233  0.2281  0.2767  0.0121
 8336TIP3   OH246422   6.086   3.915  15.648  0.2068  0.2289  0.0795
 8336TIP3    H146423   6.104   3.918  15.742 -2.4467 -0.4953  0.6479
 8336TIP3    H246424   6.006   3.966  15.638 -0.3511 -0.9402 -1.5841
 8337TIP3   OH246425   2.332   5.751   3.064 -0.9418  0.4155  0.0235
 8337TIP3    H146426   2.311   5.751   2.971  0.9041 -1.0655 -0.4329
 8337TIP3    H246427   2.381   5.832   3.078  1.7345 -0.9664 -1.0490
 8338TIP3   OH246428   0.530   5.407   0.048  0.4970  0.3244 -0.2730
 8338TIP3    H146429   0.501   5.485   0.000  0.4883  0.3515 -0.2242
 8338TIP3    H246430   0.479   5.409   0.129  0.6530  0.3856 -0.1751
 8339TIP3   OH246431   3.880   1.128   0.111  0.0718 -0.2154  0.3143
 8339TIP3    H146432   3.916   1.042   0.095 -0.2778 -0.3173  0.0735
 8339TIP3    H246433   3.822   1.116   0.187 -0.9359 -0.4551 -0.4838
 8340TIP3   OH246434   0.190   2.693  13.857 -0.5945  0.2820 -0.1640
 8340TIP3    H146435   0.245   2.756  13.904  0.9656 -1.8802  0.9775
 8340TIP3    H246436   0.103   2.707  13.893  0.1897  0.1168  1.8772
 8341TIP3   OH246437   3.323   6.592  11.913  0.4628  0.3718 -0.4875
 8341TIP3    H146438   3.373   6.652  11.857 -0.1267  0.6222 -0.7528
 8341TIP3    H246439   3.239   6.582  11.868  0.2630 -0.0144 -0.0275
 8342TIP3   OH246440   5.825   3.132  16.704 -0.3014 -0.0168  0.2254
 8342TIP3    H146441   5.805   3.126  16.611 -1.6032 -1.3647  0.5643
 8342TIP3    H246442   5.809   3.043  16.737  0.9921  0.2449  1.5616
 8343TIP3   OH246443   4.943   6.642  13.701  0.0841 -0.3215 -0.0802
 8343TIP3    H146444   5.023   6.694  13.705 -0.6143  0.8447 -0.9571
 8343TIP3    H246445   4.888   6.688  13.638 -1.1550 -1.2798  0.2877
 8344TIP3   OH246446   0.058   5.384  12.233 -0.6401 -0.6274  0.5959
 8344TIP3    H146447   0.133   5.416  12.283 -1.5458  1.2588  0.7971
 8344TIP3    H246448   0.002   5.461  12.221 -1.4146 -1.4729 -1.5830
 8345TIP3   OH246449   2.266   2.678   4.256 -0.0111  0.4350  0.2413
 8345TIP3    H146450   2.351   2.721   4.247  0.8107 -1.0908  0.6309
 8345TIP3    H246451   2.203   2.744   4.226  1.1338  2.2276  1.6774
 8346TIP3   OH246452   0.740   5.741  14.803 -0.5649  0.0108 -0.0663
 8346TIP3    H146453   0.674   5.774  14.742 -1.7532  0.4257  1.3956
 8346TIP3    H246454   0.818   5.728  14.750 -1.5077  0.5541 -1.6227
 8347TIP3   OH246455   5.128   5.575  15.513  0.1703  0.2598 -0.2057
 8347TIP3    H146456   5.124   5.602  15.421 -0.4016 -1.0659 -0.5743
 8347TIP3    H246457   5.190   5.502  15.514 -0.5589 -0.3635  0.2942
 8348TIP3   OH246458   3.051   1.030   1.637 -0.0710 -0.3361 -0.5277
 8348TIP3    H146459   3.030   1.104   1.580  0.4999 -2.7013 -3.9919
 8348TIP3    H246460   3.146   1.023   1.634 -0.1666 -1.7450 -1.0440
 8349TIP3   OH246461   2.688   0.659   3.757  0.7231 -0.2140 -0.9177
 8349TIP3    H146462   2.607   0.688   3.800  0.5818  0.0261 -1.3504
 8349TIP3    H246463   2.752   0.728   3.777  1.3132 -1.2385  0.9108
 8350TIP3   OH246464   2.593   0.912   1.239 -0.1701 -0.2840 -0.5232
 8350TIP3    H146465   2.656   0.879   1.303 -1.2889  0.8851  1.2556
 8350TIP3    H246466   2.615   0.868   1.157  1.5803 -1.4904  0.5730
 8351TIP3   OH246467   1.468   0.764  14.740  0.0423 -0.8481  0.1713
 8351TIP3    H146468   1.388   0.733  14.784  0.5859 -1.5520  0.6815
 8351TIP3    H246469   1.532   0.695  14.758  1.1812  0.4200  1.0105
 8352TIP3   OH246470   3.956   5.685   2.927 -0.0901  0.3838  0.2898
 8352TIP3    H146471   3.968   5.667   2.833  2.0609  1.8926  0.2243
 8352TIP3    H246472   3.898   5.616   2.958  0.6636 -1.2405 -1.7782
 8353TIP3   OH246473   3.642   3.991  16.962  0.1283  0.1264  0.3650
 8353TIP3    H146474   3.671   3.900  16.969 -2.3213 -0.7430 -0.2943
 8353TIP3    H246475   3.626   4.019  17.052 -0.0878 -0.4236  0.4977
 8354TIP3   OH246476   2.613   6.433   5.748 -0.1990 -0.2727 -0.4061
 8354TIP3    H146477   2.543   6.369   5.741 -2.0951  1.6078  0.9437
 8354TIP3    H246478   2.639   6.449   5.657 -2.5356  0.1218 -1.0249
 8355TIP3   OH246479   5.056   2.500  16.067  0.3578  0.8254  0.1973
 8355TIP3    H146480   5.096   2.569  16.014 -1.6408  0.5893 -1.7162
 8355TIP3    H246481   4.989   2.546  16.118 -0.2871  0.4748 -0.3286
 8356TIP3   OH246482   5.139   5.675   0.941  0.1274 -0.1294 -0.3039
 8356TIP3    H146483   5.194   5.604   0.908 -0.2020 -0.6900  0.3463
 8356TIP3    H246484   5.200   5.748   0.954  0.9399 -1.0972  1.4778
 8357TIP3   OH246485   0.798   3.242   3.664  0.0922  0.4981 -0.0791
 8357TIP3    H146486   0.827   3.170   3.608 -0.7344  2.2862 -2.9032
 8357TIP3    H246487   0.853   3.316   3.637 -1.0316  1.6509  0.7588
 8358TIP3   OH246488   5.142   6.334  14.999  0.4305  0.6725 -0.8920
 8358TIP3    H146489   5.112   6.325  15.090  0.2517 -1.4916 -1.1300
 8358TIP3    H246490   5.072   6.294  14.947  0.7746  1.4225 -1.9422
 8359TIP3   OH246491   6.265   0.678   1.656 -0.2576 -0.4281  0.0182
 8359TIP3    H146492   6.255   0.616   1.584 -0.8584  0.8338 -1.0025
 8359TIP3    H246493   6.183   0.672   1.705 -0.9961  0.7452 -1.0427
 8360TIP3   OH246494   4.003   5.001   4.839 -0.4783  0.4665  0.0005
 8360TIP3    H146495   3.974   5.042   4.757 -1.5227 -1.4109 -0.6054
 8360TIP3    H246496   4.028   4.912   4.814 -1.8545 -0.4965  1.8694
 8361TIP3   OH246497   2.542   3.281   3.855 -0.6114  0.6148  0.1676
 8361TIP3    H146498   2.540   3.185   3.855 -1.1541  0.6195  0.6028
 8361TIP3    H246499   2.516   3.304   3.944 -1.0017  1.1786 -0.0967
 8362TIP3   OH246500   1.745   2.863   4.573 -0.3704  0.6776  0.2444
 8362TIP3    H146501   1.725   2.770   4.573 -1.1146  0.8216  1.2457
 8362TIP3    H246502   1.660   2.906   4.577  0.0371  1.3385  2.9327
 8363TIP3   OH246503   0.699   4.136  17.211  0.0347 -0.0284 -0.0086
 8363TIP3    H146504   0.756   4.074  17.255 -0.6322 -0.0933  0.7984
 8363TIP3    H246505   0.735   4.222  17.234 -1.2548 -0.0032  2.0558
 8364TIP3   OH246506   2.367   4.586   1.836  0.4911  0.4271 -0.5492
 8364TIP3    H146507   2.453   4.598   1.794  0.8217 -0.5896 -0.1726
 8364TIP3    H246508   2.388   4.572   1.928 -0.1166  0.6271 -0.3803
 8365TIP3   OH246509   3.668   5.495  15.258 -0.7555  0.7016 -0.1701
 8365TIP3    H146510   3.692   5.452  15.176 -1.0033  0.4864 -0.1283
 8365TIP3    H246511   3.700   5.585  15.248  2.6496 -0.2712  0.9977
 8366TIP3   OH246512   3.283   4.360   5.027  0.6399  0.1430  0.1265
 8366TIP3    H146513   3.219   4.289   5.030  1.3953 -0.5253  0.6671
 8366TIP3    H246514   3.314   4.369   5.117 -0.4586  2.1023  0.3421
 8367TIP3   OH246515   0.548   3.377  13.890 -0.1625  0.7037 -0.2004
 8367TIP3    H146516   0.497   3.414  13.963  1.7524 -0.3894  1.7243
 8367TIP3    H246517   0.574   3.454  13.839 -0.4006  1.6136  1.0027
 8368TIP3   OH246518   0.051   0.038  14.650  0.7543 -0.0969  0.1221
 8368TIP3    H146519   0.094   0.117  14.617 -0.3719  0.6143  0.3140
 8368TIP3    H246520   0.099   0.016  14.729  0.4728  0.9635  0.5972
 8369TIP3   OH246521   1.451   1.791   4.337 -0.2292 -0.1323  0.3248
 8369TIP3    H146522   1.402   1.850   4.279  2.4249  0.5758 -1.2594
 8369TIP3    H246523   1.405   1.707   4.329 -1.2733  0.5373 -1.0590
 8370TIP3   OH246524   3.562   6.166   1.314 -0.4719  0.4224 -0.4569
 8370TIP3    H146525   3.614   6.147   1.236  0.0725 -0.0894  0.0279
 8370TIP3    H246526   3.613   6.232   1.361  0.7033 -1.4439  0.9717
 8371TIP3   OH246527   4.633   4.536  14.482 -0.5294  0.1820  0.6769
 8371TIP3    H146528   4.629   4.583  14.565  1.7810 -0.4371  1.1761
 8371TIP3    H246529   4.573   4.463  14.492  0.1056 -0.1651  2.0073
 8372TIP3   OH246530   2.717   3.677   5.574 -0.2535  0.4271  0.0906
 8372TIP3    H146531   2.630   3.716   5.585  0.1559  2.1252 -2.2519
 8372TIP3    H246532   2.776   3.733   5.624 -0.3791 -0.3102  1.0883
 8373TIP3   OH246533   4.338   1.405  14.827 -0.0940  0.4995 -0.5656
 8373TIP3    H146534   4.423   1.383  14.790 -0.0408  2.4169 -1.6226
 8373TIP3    H246535   4.278   1.342  14.789  0.4857  0.5050 -1.4951
 8374TIP3   OH246536   3.946   1.413  17.046  0.4039 -0.2980 -0.3588
 8374TIP3    H146537   3.935   1.348  16.976  0.0988  0.1511 -0.7362
 8374TIP3    H246538   4.041   1.419  17.059  0.3913 -1.4479  0.2821
 8375TIP3   OH246539   1.459   1.133  13.913  0.1632 -0.8611 -0.0909
 8375TIP3    H146540   1.443   1.072  13.985  0.8697 -0.4922  0.3770
 8375TIP3    H246541   1.377   1.132  13.863 -0.0518 -1.7190  0.2590
 8376TIP3   OH246542   3.999   4.531   2.554  0.3291  0.5748 -0.6234
 8376TIP3    H146543   3.914   4.508   2.517 -1.0639  3.3482  0.7218
 8376TIP3    H246544   3.994   4.504   2.646  0.8950  0.7736 -0.5298
 8377TIP3   OH246545   3.275   2.573   2.815  0.6117 -0.0233 -0.0709
 8377TIP3    H146546   3.241   2.499   2.765 -1.6269  1.0543 -0.2346
 8377TIP3    H246547   3.198   2.629   2.831  2.0644  1.7986  0.8486
 8378TIP3   OH246548   1.121   3.436  12.845  0.0910 -0.6434  0.4529
 8378TIP3    H146549   1.034   3.464  12.876 -1.1763  0.7062 -4.0025
 8378TIP3    H246550   1.182   3.490  12.895 -1.8626  1.6737  0.4690
 8379TIP3   OH246551   2.550   4.813   1.671  0.3839 -0.0017  0.0265
 8379TIP3    H146552   2.513   4.886   1.620 -0.4563  0.2027  0.9122
 8379TIP3    H246553   2.555   4.847   1.761  1.4215 -0.5176  0.1686
 8380TIP3   OH246554   2.336   4.929  13.838  0.0741 -0.3477 -0.2069
 8380TIP3    H146555   2.391   4.892  13.907  0.0599 -0.3756 -0.2098
 8380TIP3    H246556   2.391   4.996  13.797 -0.0006 -0.1686 -0.0134
 8381TIP3   OH246557   1.925   6.483   4.841  0.5533  0.1729 -0.0197
 8381TIP3    H146558   1.981   6.553   4.874  0.2697  0.6126 -0.4575
 8381TIP3    H246559   1.945   6.407   4.895  1.1509  0.4915  0.1970
 8382TIP3   OH246560   5.956   4.269  14.180 -0.5008  0.3730  0.0326
 8382TIP3    H146561   6.045   4.242  14.199 -0.7467 -0.5414 -0.1008
 8382TIP3    H246562   5.945   4.255  14.086 -1.1639 -0.6486  0.2610
 8383TIP3   OH246563   6.009   2.726   0.805 -0.2254 -0.5473  0.2330
 8383TIP3    H146564   6.001   2.630   0.806  0.7108 -0.6557 -1.2832
 8383TIP3    H246565   6.052   2.745   0.722 -1.0702  1.2566  0.1956
 8384TIP3   OH246566   6.598   2.542  15.871  0.5196  0.1879  0.7560
 8384TIP3    H146567   6.548   2.556  15.951 -0.3871 -0.3363  0.2925
 8384TIP3    H246568   6.568   2.458  15.838  4.4311 -2.0348  2.4399
 8385TIP3   OH246569   3.789   5.529   3.602  0.4221 -0.5040  0.0732
 8385TIP3    H146570   3.731   5.482   3.662  0.6407  0.8329  1.3496
 8385TIP3    H246571   3.738   5.605   3.573 -0.2202 -1.8721 -2.5969
 8386TIP3   OH246572   2.169   0.157   4.295  0.0531 -0.7927  0.0130
 8386TIP3    H146573   2.141   0.080   4.246 -0.1481 -0.3167 -0.6240
 8386TIP3    H246574   2.176   0.226   4.229 -1.6140  0.2213  0.8512
 8387TIP3   OH246575   4.027   5.013  13.996  0.0081  0.1200 -0.1825
 8387TIP3    H146576   4.049   5.092  13.947  0.9399  0.2655  0.4489
 8387TIP3    H246577   4.111   4.970  14.010 -0.3969 -0.5326  0.2388
 8388TIP3   OH246578   1.287   0.022   3.179 -0.0714 -0.1806 -0.2450
 8388TIP3    H146579   1.263  -0.032   3.255 -1.1176 -0.6978 -0.9280
 8388TIP3    H246580   1.378  -0.001   3.161 -0.5101 -1.7446 -0.5383
 8389TIP3   OH246581   0.664   5.678  14.222 -0.2935  0.1384 -0.5950
 8389TIP3    H146582   0.714   5.746  14.178  0.7158  0.5911  1.1818
 8389TIP3    H246583   0.697   5.679  14.312 -2.9536 -0.0834  0.4324
 8390TIP3   OH246584   3.476   0.424  14.699 -0.2208 -0.2144 -0.3371
 8390TIP3    H146585   3.426   0.343  14.710 -0.8513  0.2973  0.6576
 8390TIP3    H246586   3.506   0.422  14.608  0.7968 -2.1480  0.0059
 8391TIP3   OH246587   6.026   0.850  16.683 -0.5375  0.1298 -0.0117
 8391TIP3    H146588   6.011   0.934  16.726  0.0341  0.8715 -1.2327
 8391TIP3    H246589   5.938   0.814  16.669 -0.8233  0.9199 -0.2707
 8392TIP3   OH246590   0.775   6.306   0.247  0.3225  0.1994  0.4693
 8392TIP3    H146591   0.852   6.317   0.192 -0.1470  0.6627 -0.0986
 8392TIP3    H246592   0.731   6.391   0.244 -0.3534 -0.1460  0.5698
 8393TIP3   OH246593   5.010   2.648  17.073 -0.5962  0.2922  0.4267
 8393TIP3    H146594   5.099   2.623  17.096 -0.3804 -0.0833 -0.7896
 8393TIP3    H246595   5.008   2.743  17.089  0.0519  0.3231  0.3622
 8394TIP3   OH246596   4.299   6.131  17.072  0.1155  0.2122  0.0289
 8394TIP3    H146597   4.334   6.180  16.997  1.1748 -1.6679 -0.7416
 8394TIP3    H246598   4.357   6.153  17.145  0.2794  0.4956 -0.1830
 8395TIP3   OH246599   2.234   6.360  14.547 -0.2765 -0.4016  0.5860
 8395TIP3    H146600   2.175   6.435  14.559  0.6501  0.5922 -0.8550
 8395TIP3    H246601   2.206   6.297  14.613 -2.5810  0.2664  0.2986
 8396TIP3   OH246602   3.727   3.698   1.925  0.0364 -0.0819 -0.2076
 8396TIP3    H146603   3.811   3.744   1.920  0.2273 -0.2870  0.9400
 8396TIP3    H246604   3.695   3.697   1.835  1.8038 -0.9909 -0.8640
 8397TIP3   OH246605   3.499   5.922  15.726 -0.1267 -0.0719 -0.3536
 8397TIP3    H146606   3.548   5.916  15.644 -0.9075 -1.9659 -0.7017
 8397TIP3    H246607   3.415   5.961  15.701  0.0035  0.2491 -0.2898
 8398TIP3   OH246608   4.247   1.195  16.729  1.1473 -0.4831  0.4044
 8398TIP3    H146609   4.236   1.101  16.712 -1.0966 -0.0937 -0.4403
 8398TIP3    H246610   4.263   1.233  16.642 -1.8533  0.3912  0.1698
 8399TIP3   OH246611   5.025   6.633   1.392  0.1334  0.6690  0.3200
 8399TIP3    H146612   5.068   6.550   1.369 -0.0415 -0.5427  4.0130
 8399TIP3    H246613   4.931   6.612   1.392  0.0388  1.0884  0.4835
 8400TIP3   OH246614   3.012   2.323  10.920 -0.1096 -0.1282  0.3346
 8400TIP3    H146615   2.927   2.364  10.934  0.1600  0.3387  0.6117
 8400TIP3    H246616   3.036   2.288  11.006 -1.3348 -2.7879 -0.3604
 8401TIP3   OH246617   5.482   0.500  14.453 -0.1532  0.5015  0.5141
 8401TIP3    H146618   5.513   0.536  14.370 -0.5843 -1.3937 -0.4914
 8401TIP3    H246619   5.387   0.513  14.451 -0.4743 -1.7708 -0.4261
 8402TIP3   OH246620   3.906   2.304   2.675  0.3425  0.5046 -0.3695
 8402TIP3    H146621   3.825   2.326   2.629 -0.5641 -1.0990  0.3833
 8402TIP3    H246622   3.917   2.210   2.660  0.3513  0.0636  2.1318
 8403TIP3   OH246623   4.459   6.681   5.290 -0.5881  1.0447  0.4497
 8403TIP3    H146624   4.543   6.716   5.259 -0.0198 -0.4233  0.2846
 8403TIP3    H246625   4.419   6.642   5.213 -1.1531  1.2285  0.6516
 8404TIP3   OH246626   5.962   1.375   2.031 -0.1581  0.1858 -0.6197
 8404TIP3    H146627   6.006   1.429   1.965 -0.8162 -0.2234 -1.4067
 8404TIP3    H246628   5.917   1.307   1.980 -0.3687 -0.3576  0.2788
 8405TIP3   OH246629   1.358   4.578  13.741  0.3413 -0.0201  0.7456
 8405TIP3    H146630   1.309   4.511  13.693 -0.1161  1.9878 -1.6874
 8405TIP3    H246631   1.292   4.643  13.767  1.3720  1.7074 -0.8392
 8406TIP3   OH246632   1.741   5.900   6.042  0.7766  0.4935 -0.3446
 8406TIP3    H146633   1.672   5.965   6.051  1.5383  1.0815  1.6197
 8406TIP3    H246634   1.703   5.819   6.076 -0.1023 -0.0612 -2.5953
 8407TIP3   OH246635   4.012   4.115  14.925 -0.4957  0.0804 -0.0483
 8407TIP3    H146636   3.959   4.071  14.858 -0.3606  0.5110 -0.4307
 8407TIP3    H246637   4.029   4.202  14.890  1.1967 -0.3509 -0.2938
 8408TIP3   OH246638   1.921   2.256  15.914  0.0329  0.2849 -0.2585
 8408TIP3    H146639   1.968   2.243  15.996 -0.6304 -1.4993 -0.1398
 8408TIP3    H246640   1.848   2.195  15.918  0.2641 -0.1648 -2.3894
 8409TIP3   OH246641   3.883   3.805  12.771  0.7245 -0.0459 -0.0756
 8409TIP3    H146642   3.968   3.768  12.792  1.7174  1.9529 -0.4773
 8409TIP3    H246643   3.851   3.752  12.697  1.3527 -1.1544  0.4396
 8410TIP3   OH246644   5.655   3.270  13.472 -0.2425 -0.3598 -0.4744
 8410TIP3    H146645   5.739   3.288  13.430  0.0083 -3.0958 -1.2851
 8410TIP3    H246646   5.592   3.271  13.400 -0.6972  0.3614 -0.0684
 8411TIP3   OH246647   0.736   2.061  14.239 -0.4622 -0.0349  0.0194
 8411TIP3    H146648   0.738   2.021  14.326  1.4904  0.5842  0.2864
 8411TIP3    H246649   0.748   1.988  14.179  0.7592 -0.1594  0.3991
 8412TIP3   OH246650   5.975   4.177  13.912 -0.1463  0.1071  0.0083
 8412TIP3    H146651   5.902   4.222  13.869 -0.9221 -1.4679 -0.3447
 8412TIP3    H246652   6.047   4.183  13.850 -0.9512 -1.2226 -1.0715
 8413TIP3   OH246653   4.173   5.843  17.180  0.2181 -0.0569 -0.1680
 8413TIP3    H146654   4.100   5.901  17.157  0.3849  0.3301  0.2728
 8413TIP3    H246655   4.251   5.888  17.147  0.6027  1.1261  2.2151
 8414TIP3   OH246656   5.426   2.274  11.458  0.4230 -0.1576 -0.2757
 8414TIP3    H146657   5.423   2.201  11.520  0.6681 -0.6796 -0.8681
 8414TIP3    H246658   5.349   2.327  11.480  0.0952 -0.7366 -0.0052
 8415TIP3   OH246659   0.474   6.361  13.887  0.2200 -0.7573  0.3250
 8415TIP3    H146660   0.415   6.292  13.858  1.8289 -1.6431 -0.9005
 8415TIP3    H246661   0.438   6.441  13.850  0.3871 -1.4402 -1.3391
 8416TIP3   OH246662   1.295   2.500   5.131 -0.0539  0.5322  0.6064
 8416TIP3    H146663   1.222   2.460   5.179  0.8442 -0.0224  1.5314
 8416TIP3    H246664   1.312   2.440   5.059 -0.7488  0.8521  0.1680
 8417TIP3   OH246665   3.156   3.737   5.979 -0.3543  0.2887 -0.0714
 8417TIP3    H146666   3.236   3.764   6.024 -0.3334  0.5296 -0.2471
 8417TIP3    H246667   3.174   3.648   5.950 -0.3042  0.1946  0.2479
 8418TIP3   OH246668   0.057   2.490  12.237  0.0563  0.4487 -0.3183
 8418TIP3    H146669   0.121   2.426  12.269  0.3181  0.1352 -1.4467
 8418TIP3    H246670   0.072   2.568  12.290  1.7351  0.5488 -0.9119
 8419TIP3   OH246671   5.923   4.866   4.668  0.0010 -0.0928  0.2333
 8419TIP3    H146672   5.881   4.790   4.709  1.1718 -0.6847  0.3747
 8419TIP3    H246673   5.864   4.939   4.687 -1.1853 -0.9751  0.0283
 8420TIP3   OH246674   6.037   5.327  12.788 -0.4908  0.5792  0.3121
 8420TIP3    H146675   6.027   5.422  12.788  1.6352  0.8156  0.1817
 8420TIP3    H246676   6.100   5.309  12.719  0.4769 -0.7755  1.5175
 8421TIP3   OH246677   3.803   5.915   2.966 -0.1666  0.0147  0.5179
 8421TIP3    H146678   3.863   5.841   2.967  1.7741  1.5181 -0.6519
 8421TIP3    H246679   3.725   5.884   3.012  0.1015 -3.1498 -1.0564
 8422TIP3   OH246680   5.714   0.386   1.177 -0.1889  0.0870  0.3920
 8422TIP3    H146681   5.640   0.429   1.220 -0.8218 -0.7656  0.1592
 8422TIP3    H246682   5.679   0.356   1.093  0.1696 -1.1288  0.6695
 8423TIP3   OH246683   4.076   6.513  13.837  0.2302  0.1762  0.1627
 8423TIP3    H146684   4.091   6.568  13.914  1.0668  0.1724  0.0063
 8423TIP3    H246685   3.985   6.482  13.847 -0.1841  1.4200  0.3522
 8424TIP3   OH246686   2.047   2.886   2.447 -0.6623 -0.0841 -0.0939
 8424TIP3    H146687   2.133   2.927   2.451 -1.4916  1.6205  1.1163
 8424TIP3    H246688   1.992   2.950   2.402 -1.6119 -0.5404  0.4051
 8425TIP3   OH246689   4.371   5.540  15.070 -0.4749  0.2610 -0.1484
 8425TIP3    H146690   4.294   5.484  15.080  0.8068 -1.7492 -1.0178
 8425TIP3    H246691   4.433   5.507  15.134  0.9466 -0.5110 -1.8667
 8426TIP3   OH246692   6.096   6.061   2.806 -0.2975 -0.2788  0.3667
 8426TIP3    H146693   6.162   6.112   2.853 -0.8408  0.6048  0.1775
 8426TIP3    H246694   6.014   6.081   2.851 -0.8426  0.6542 -1.0131
 8427TIP3   OH246695   3.325   4.120  11.785  0.6541  0.2580  0.1348
 8427TIP3    H146696   3.388   4.051  11.807 -0.4674 -0.6974  0.4182
 8427TIP3    H246697   3.245   4.094  11.830 -0.8672 -0.2282 -2.6961
 8428TIP3   OH246698   2.246   3.617  15.984 -0.1705  0.0599  0.6987
 8428TIP3    H146699   2.224   3.646  16.073  2.9639  1.3009  1.1497
 8428TIP3    H246700   2.306   3.544  15.997 -1.6111 -1.3662 -0.4511
 8429TIP3   OH246701   3.333   5.265   4.850  0.6908  0.0410  0.3109
 8429TIP3    H146702   3.248   5.229   4.823  0.6118  0.8344 -0.5292
 8429TIP3    H246703   3.397   5.203   4.816  0.4702 -0.3001  0.5116
 8430TIP3   OH246704   6.541   0.845  12.612  0.8334 -0.0495 -1.0595
 8430TIP3    H146705   6.479   0.918  12.611  1.9108  0.9664  2.3075
 8430TIP3    H246706   6.488   0.770  12.585 -1.3756  1.1752 -0.3324
 8431TIP3   OH246707   1.980   1.475   4.607 -0.0033  0.0383 -0.4851
 8431TIP3    H146708   1.972   1.466   4.702  0.7251  0.0100 -0.4255
 8431TIP3    H246709   1.919   1.545   4.585 -2.1736 -1.7327 -0.3501
 8432TIP3   OH246710   4.111   5.124   1.426 -0.0852 -0.6731  0.6943
 8432TIP3    H146711   4.057   5.134   1.504 -0.0443 -1.6412  0.8550
 8432TIP3    H246712   4.198   5.101   1.459 -0.5794 -3.3164  0.3399
 8433TIP3   OH246713   3.231   2.074   3.146 -0.7885 -0.0826 -0.5261
 8433TIP3    H146714   3.203   2.112   3.230 -0.0287 -0.3446 -0.1558
 8433TIP3    H246715   3.181   1.993   3.139  0.5178 -0.9976  0.5580
 8434TIP3   OH246716   0.346   4.083  12.975 -0.0195 -0.1657  0.1811
 8434TIP3    H146717   0.327   4.144  12.904  0.2993  0.2368  0.4417
 8434TIP3    H246718   0.395   4.134  13.039 -0.6227 -0.4274  0.8659
 8435TIP3   OH246719   5.160   1.206   4.350 -0.2170  0.3181 -0.2623
 8435TIP3    H146720   5.084   1.168   4.306 -0.6398  0.7223  0.1084
 8435TIP3    H246721   5.135   1.297   4.366 -1.1490 -0.4823  3.2189
 8436TIP3   OH246722   4.768   4.594   3.759  0.3142 -0.5402 -0.1522
 8436TIP3    H146723   4.851   4.625   3.796 -0.4622 -1.1911  2.2456
 8436TIP3    H246724   4.766   4.501   3.782 -0.7799 -0.6754 -0.7821
 8437TIP3   OH246725   5.803   3.710  13.619  0.0992  0.4352 -0.8691
 8437TIP3    H146726   5.852   3.735  13.698 -0.4774 -0.1490 -0.3228
 8437TIP3    H246727   5.870   3.699  13.552  0.6214  0.6799 -0.3923
 8438TIP3   OH246728   3.192   3.535  12.973 -0.4212 -0.3269 -0.3014
 8438TIP3    H146729   3.276   3.578  12.957 -0.9189  0.6994 -0.2035
 8438TIP3    H246730   3.210   3.442  12.961  1.1562 -0.2840  1.5529
 8439TIP3   OH246731   3.412   3.002  15.106 -0.0939 -1.2417 -0.4334
 8439TIP3    H146732   3.434   3.093  15.125 -1.2220 -1.2021  0.7618
 8439TIP3    H246733   3.324   2.991  15.140 -1.6566 -1.6292 -4.3187
 8440TIP3   OH246734   5.302   0.769   0.266  0.1303 -0.2494 -0.3681
 8440TIP3    H146735   5.320   0.675   0.274  0.9157 -0.1963 -1.3767
 8440TIP3    H246736   5.286   0.798   0.356 -1.2982 -1.5756 -0.1700
 8441TIP3   OH246737   3.180   3.947  12.791 -0.3514 -0.2080  0.5858
 8441TIP3    H146738   3.236   3.926  12.867  1.1830  2.8236  0.3971
 8441TIP3    H246739   3.188   3.871  12.734  3.5305  0.0279  0.6586
 8442TIP3   OH246740   5.527   3.468   4.447 -0.0916 -0.2652 -0.0540
 8442TIP3    H146741   5.548   3.384   4.407  0.6488  1.1701 -2.8035
 8442TIP3    H246742   5.600   3.525   4.422 -0.4373  1.1404  2.0191
 8443TIP3   OH246743   6.624   5.783   4.213 -0.2078  0.2640  0.6068
 8443TIP3    H146744   6.606   5.713   4.150  1.1196  1.0784 -0.7162
 8443TIP3    H246745   6.623   5.740   4.298 -3.0768 -0.6668  0.1522
 8444TIP3   OH246746   2.691   3.067   1.406 -0.6202  0.2492 -0.0094
 8444TIP3    H146747   2.670   3.157   1.380  0.3241  0.0517 -1.4953
 8444TIP3    H246748   2.738   3.031   1.331  0.9916 -0.7740  1.4800
 8445TIP3   OH246749   5.036   4.515  16.893  0.3719 -0.2082  0.2126
 8445TIP3    H146750   5.002   4.542  16.808  0.0968  3.5284  1.4197
 8445TIP3    H246751   5.112   4.460  16.873  0.1548  0.4198 -2.4144
 8446TIP3   OH246752   4.584   6.549   1.065 -0.1679 -0.4989  0.3755
 8446TIP3    H146753   4.544   6.605   1.132 -3.1255  0.0265 -1.7090
 8446TIP3    H246754   4.565   6.460   1.094  2.3648 -0.4213  2.4153
 8447TIP3   OH246755   1.705   0.387  12.107 -0.7547 -0.2924  0.0974
 8447TIP3    H146756   1.781   0.444  12.096  0.3726 -2.1623 -2.1838
 8447TIP3    H246757   1.711   0.356  12.198  0.7116  0.2171  0.1832
 8448TIP3   OH246758   5.498   3.292   5.924  0.2239  0.3021  0.8552
 8448TIP3    H146759   5.421   3.338   5.956 -0.1215  0.9148 -0.8121
 8448TIP3    H246760   5.496   3.304   5.829  1.1830 -1.5192  0.5708
 8449TIP3   OH246761   4.644   4.856   2.398 -0.1303 -0.2797 -0.0130
 8449TIP3    H146762   4.687   4.810   2.471  1.0728 -0.4630 -0.8311
 8449TIP3    H246763   4.563   4.807   2.383  0.0035 -0.7178  0.6748
 8450TIP3   OH246764   3.383   0.289   2.499 -0.0816  0.1658  0.2771
 8450TIP3    H146765   3.321   0.313   2.430  1.7998  1.9428 -0.8521
 8450TIP3    H246766   3.462   0.264   2.451  1.4450  1.9956  1.7960
 8451TIP3   OH246767   4.911   1.011   1.396  0.3619  0.4771 -0.3889
 8451TIP3    H146768   4.954   0.934   1.432 -2.8205 -0.3451  1.8453
 8451TIP3    H246769   4.881   0.983   1.309  0.3335 -0.4005 -0.1041
 8452TIP3   OH246770   2.366   6.027  12.334 -0.1876  0.2860  0.1752
 8452TIP3    H146771   2.305   6.074  12.391  0.8566  1.4738  0.3359
 8452TIP3    H246772   2.376   6.083  12.257 -0.7224 -0.7799 -0.6907
 8453TIP3   OH246773   1.619   6.011  12.692 -0.0292 -0.3273  0.5802
 8453TIP3    H146774   1.700   6.061  12.704  0.2597 -0.9481  1.2052
 8453TIP3    H246775   1.642   5.922  12.718 -1.0206 -0.4227  1.1390
 8454TIP3   OH246776   0.599   2.542   4.154  0.1073  0.3109 -0.0143
 8454TIP3    H146777   0.670   2.601   4.129  0.7750 -0.2343  0.5957
 8454TIP3    H246778   0.638   2.454   4.153 -0.6084 -0.0159  0.0998
 8455TIP3   OH246779   1.839   4.521   2.747  0.6595 -0.0407 -0.1607
 8455TIP3    H146780   1.890   4.461   2.692  0.0404 -1.2390  0.5584
 8455TIP3    H246781   1.816   4.593   2.689 -0.6841 -1.6882 -1.7112
 8456TIP3   OH246782   1.022   4.415  16.025  0.0406 -0.0719 -0.5871
 8456TIP3    H146783   1.062   4.502  16.021  0.8775 -0.4889 -1.4273
 8456TIP3    H246784   1.025   4.383  15.935 -0.7462 -0.7632 -0.3738
 8457TIP3   OH246785   4.352   0.474  15.285  0.2021 -0.3359 -0.3984
 8457TIP3    H146786   4.420   0.437  15.343 -1.3595 -1.1551  0.9740
 8457TIP3    H246787   4.387   0.462  15.197  1.7633 -0.9078  0.2701
 8458TIP3   OH246788   4.735   1.534   5.214 -0.2172  0.1323  0.8281
 8458TIP3    H146789   4.722   1.615   5.262 -1.5303  0.8808 -0.7456
 8458TIP3    H246790   4.650   1.516   5.174  0.7365 -0.6568 -0.9122
 8459TIP3   OH246791   5.068   1.212  14.466  0.2641 -0.0828 -0.2582
 8459TIP3    H146792   4.989   1.251  14.428 -1.2267 -1.5214  1.2656
 8459TIP3    H246793   5.135   1.280  14.457 -1.2719  1.3527 -1.1398
 8460TIP3   OH246794   0.494   6.368  12.340  0.3157  0.2756  0.3244
 8460TIP3    H146795   0.488   6.288  12.288 -0.5313 -0.2898  1.2638
 8460TIP3    H246796   0.571   6.354  12.397  0.9925  0.7196 -0.4727
 8461TIP3   OH246797   1.932   4.369   2.548 -0.2121  0.2038  0.7577
 8461TIP3    H146798   1.842   4.336   2.539 -0.2572  0.2773  0.9537
 8461TIP3    H246799   1.950   4.411   2.463 -0.1083 -0.4369  0.4579
 8462TIP3   OH246800   3.564   0.109  12.481 -0.0907  0.6398 -0.1558
 8462TIP3    H146801   3.590   0.127  12.391  1.0974 -1.1067 -0.1821
 8462TIP3    H246802   3.566   0.194  12.524  1.3560  1.1924 -1.2781
 8463TIP3   OH246803   1.194   3.436  16.682 -0.1320 -0.2722 -0.4721
 8463TIP3    H146804   1.112   3.485  16.678 -1.1847 -1.9894 -0.7149
 8463TIP3    H246805   1.186   3.370  16.614  2.1947  0.5950 -1.6544
 8464TIP3   OH246806   6.388   1.751  12.349 -0.5709  0.5299  0.1673
 8464TIP3    H146807   6.330   1.703  12.289 -1.1108  0.3998  0.7897
 8464TIP3    H246808   6.395   1.694  12.426  1.0311  0.1635 -0.2190
 8465TIP3   OH246809   3.860   1.790   2.286  0.0931 -0.4236 -0.0814
 8465TIP3    H146810   3.913   1.782   2.207  0.8581  1.6813  0.1968
 8465TIP3    H246811   3.791   1.725   2.275  0.3672 -0.3626 -2.3523
 8466TIP3   OH246812   0.087   1.546   3.932 -0.3009  0.1367  0.1829
 8466TIP3    H146813   0.094   1.451   3.940  2.1205  0.2595  0.0197
 8466TIP3    H246814   0.171   1.573   3.894 -0.5414  2.4320  1.1740
 8467TIP3   OH246815   1.202   4.931   2.548  0.3401  0.5361  0.6169
 8467TIP3    H146816   1.221   4.855   2.492 -1.3452  1.2521 -1.0051
 8467TIP3    H246817   1.282   4.983   2.546  0.4617  0.3316 -0.8256
 8468TIP3   OH246818   1.364   3.056  16.387 -0.3622  0.0182 -0.2232
 8468TIP3    H146819   1.366   3.149  16.411 -1.7666  0.0334 -0.0999
 8468TIP3    H246820   1.307   3.053  16.310 -0.5347 -0.7625 -0.0689
 8469TIP3   OH246821   1.474   4.941   2.291  0.0600 -0.4043 -0.3998
 8469TIP3    H146822   1.407   4.972   2.352  0.5191  1.2611 -0.7304
 8469TIP3    H246823   1.542   4.904   2.348  0.1502  0.4754  0.0743
 8470TIP3   OH246824   1.049   2.870  16.817 -0.5726  0.4369 -0.0788
 8470TIP3    H146825   1.132   2.863  16.863 -1.0028  0.9110  0.7857
 8470TIP3    H246826   0.990   2.811  16.865 -1.1701  1.3458  0.3227
 8471TIP3   OH246827   5.574   5.219  12.021 -0.1361  0.1141  0.2123
 8471TIP3    H146828   5.662   5.196  12.051 -0.4357 -0.5905  0.5732
 8471TIP3    H246829   5.588   5.262  11.937  0.4852 -0.9476 -0.2397
 8472TIP3   OH246830   1.216   6.714  11.195 -0.1863  0.0440 -0.5348
 8472TIP3    H146831   1.140   6.660  11.218 -0.2332  0.5484  0.5018
 8472TIP3    H246832   1.261   6.664  11.127 -1.6747 -0.0581 -1.4535
 8473TIP3   OH246833   1.968   3.924   2.820 -0.0147  0.1571  0.3923
 8473TIP3    H146834   2.042   3.954   2.767 -0.8861  0.7852 -0.5017
 8473TIP3    H246835   1.965   3.984   2.895 -0.6283  1.1976 -0.4421
 8474TIP3   OH246836   2.506   1.735   3.051  0.2359  0.1314  0.1034
 8474TIP3    H146837   2.588   1.770   3.016  0.1300 -1.4815 -1.8497
 8474TIP3    H246838   2.447   1.733   2.976 -0.9464 -0.6462  1.0373
 8475TIP3   OH246839   4.531   4.497   5.815 -0.0926 -0.2398  0.4151
 8475TIP3    H146840   4.481   4.536   5.887 -0.2594 -0.3504  0.3606
 8475TIP3    H246841   4.613   4.545   5.814 -0.1110 -0.2022  0.6469
 8476TIP3   OH246842   5.373   3.722   1.486  0.2867 -0.0457 -0.2182
 8476TIP3    H146843   5.357   3.754   1.574 -0.0217  2.0521 -1.0077
 8476TIP3    H246844   5.399   3.631   1.498  1.5227  0.5820  2.1251
 8477TIP3   OH246845   4.767   6.383  13.498  0.6490 -0.0496  0.7123
 8477TIP3    H146846   4.723   6.332  13.429  0.7920  1.1876 -0.3207
 8477TIP3    H246847   4.854   6.345  13.503  0.3110 -0.8054  0.9180
 8478TIP3   OH246848   5.916   0.803   2.619  0.4029  0.2863  0.5486
 8478TIP3    H146849   5.918   0.741   2.692 -1.0257  0.3103  0.6210
 8478TIP3    H246850   5.825   0.833   2.616  0.7960  1.4101 -0.3011
 8479TIP3   OH246851   4.675   4.601   0.806  0.1370 -0.0548 -0.4708
 8479TIP3    H146852   4.653   4.528   0.863  0.8553 -0.1409 -0.3015
 8479TIP3    H246853   4.676   4.563   0.718  0.2796 -0.2001 -0.4075
 8480TIP3   OH246854   4.328   3.715   0.458 -0.1698  0.0511  0.0554
 8480TIP3    H146855   4.378   3.797   0.454  0.8693 -0.5974 -0.8933
 8480TIP3    H246856   4.353   3.669   0.377 -0.5904 -1.2746  0.6741
 8481TIP3   OH246857   3.759   0.535  11.721 -0.1002  0.4687  0.1019
 8481TIP3    H146858   3.674   0.497  11.744 -0.7880  0.7355 -1.9582
 8481TIP3    H246859   3.818   0.503  11.790 -2.1009  1.3093  2.2907
 8482TIP3   OH246860   0.535   4.387   2.956 -0.4257  0.4349  0.2146
 8482TIP3    H146861   0.503   4.450   2.892 -0.9443 -1.0540 -1.0269
 8482TIP3    H246862   0.456   4.352   2.998 -0.0568  2.3794  2.6978
 8483TIP3   OH246863   3.839   2.370   5.145 -0.0929 -0.0294  0.2253
 8483TIP3    H146864   3.826   2.461   5.118 -0.4269  0.2669  1.3210
 8483TIP3    H246865   3.861   2.323   5.065 -0.3834  0.9351 -0.4259
 8484TIP3   OH246866   2.646   0.891  15.942  0.0702  0.1296 -0.3352
 8484TIP3    H146867   2.703   0.960  15.978  2.8012 -2.3137  0.2107
 8484TIP3    H246868   2.705   0.834  15.894 -2.4608 -0.7703 -2.4748
 8485TIP3   OH246869   2.127   1.700  13.592  0.6086  0.2049  0.2141
 8485TIP3    H146870   2.199   1.701  13.656  0.1456  0.4459  0.7364
 8485TIP3    H246871   2.085   1.615  13.605 -0.0842  0.6453  0.9122
 8486TIP3   OH246872   1.586   2.286   2.245 -0.2815  0.0762 -0.6293
 8486TIP3    H146873   1.662   2.228   2.236 -0.9804 -1.0619  0.5333
 8486TIP3    H246874   1.538   2.275   2.163  0.9926  1.1074 -1.5370
 8487TIP3   OH246875   3.741   2.541  13.898 -0.1279 -0.0340 -0.5690
 8487TIP3    H146876   3.716   2.632  13.916 -0.8766 -0.4393  0.5215
 8487TIP3    H246877   3.719   2.494  13.979  2.6475 -0.7149 -0.1736
 8488TIP3   OH246878   5.712   2.476   0.881 -0.0331 -0.3980 -0.2227
 8488TIP3    H146879   5.737   2.466   0.973  2.6577  2.4120 -0.5357
 8488TIP3    H246880   5.649   2.548   0.882 -1.0774 -1.2963 -0.4602
 8489TIP3   OH246881   6.331   0.877   2.570 -0.6905 -0.3384  0.3980
 8489TIP3    H146882   6.402   0.922   2.617 -1.7419  1.1375  0.5928
 8489TIP3    H246883   6.340   0.906   2.480 -0.2153 -1.2454  0.1356
 8490TIP3   OH246884   5.423   3.788  16.029 -0.1222  0.0520 -0.4759
 8490TIP3    H146885   5.345   3.744  16.062  0.6548 -0.0847  1.2720
 8490TIP3    H246886   5.422   3.772  15.935 -1.6263 -0.8454 -0.3296
 8491TIP3   OH246887   4.425   0.734  15.451 -0.0441 -0.7389  0.1164
 8491TIP3    H146888   4.464   0.706  15.368  0.8376 -1.0846  0.6429
 8491TIP3    H246889   4.451   0.666  15.513  0.1721  0.0530  0.8979
 8492TIP3   OH246890   1.232   1.862   1.195  0.3506  0.3589 -0.5306
 8492TIP3    H146891   1.199   1.852   1.284 -1.6486  0.4244 -1.2268
 8492TIP3    H246892   1.206   1.781   1.151  3.7446 -0.8891 -0.3596
 8493TIP3   OH246893   5.210   5.118   4.673  0.2694  0.0957 -0.4949
 8493TIP3    H146894   5.172   5.159   4.751 -2.7751  2.9252 -3.2676
 8493TIP3    H246895   5.288   5.170   4.655 -0.7672  1.4914 -1.0714
 8494TIP3   OH246896   0.409   4.999   1.008 -0.2151 -0.2266 -0.3078
 8494TIP3    H146897   0.340   5.048   0.963  1.5943  1.6372 -1.1529
 8494TIP3    H246898   0.469   4.972   0.938 -0.7423 -2.9813  0.2487
 8495TIP3   OH246899   1.495   2.409  15.979 -0.2365  0.3124 -0.2929
 8495TIP3    H146900   1.424   2.352  15.952  0.6619 -1.7308  1.5290
 8495TIP3    H246901   1.555   2.352  16.027  2.2256  2.1575 -1.0572
 8496TIP3   OH246902   5.737   5.634   1.836 -0.4743 -0.0441 -0.1891
 8496TIP3    H146903   5.688   5.552   1.831  0.2706 -0.4233 -1.5994
 8496TIP3    H246904   5.759   5.643   1.929 -2.5443 -0.2447  0.3500
 8497TIP3   OH246905   3.727   4.346  15.667 -0.2529  0.4484  0.6563
 8497TIP3    H146906   3.640   4.316  15.693  0.0149  0.1204  1.1897
 8497TIP3    H246907   3.710   4.418  15.607 -0.9138 -1.0650 -1.0251
 8498TIP3   OH246908   1.351   6.085   0.013  0.1008  0.5641  0.5667
 8498TIP3    H146909   1.382   6.030  -0.059 -3.1847  1.4333 -1.6588
 8498TIP3    H246910   1.354   6.028   0.090  0.7305 -1.4035 -0.8843
 8499TIP3   OH246911   0.379   1.461   2.159  0.3065  0.6629 -0.2088
 8499TIP3    H146912   0.409   1.512   2.084 -0.2443  3.4778  1.4357
 8499TIP3    H246913   0.459   1.424   2.196  0.4038 -2.6806 -3.4289
 8500TIP3   OH246914   0.643   6.747   2.697 -0.4964  0.7899  0.1092
 8500TIP3    H146915   0.670   6.838   2.705 -1.4899  1.1429 -0.4694
 8500TIP3    H246916   0.569   6.749   2.636 -0.8257 -0.3485  0.4579
 8501TIP3   OH246917   6.649   4.259  16.641 -0.1164  0.3662 -0.3002
 8501TIP3    H146918   6.641   4.293  16.730  1.3392  0.5240 -0.2165
 8501TIP3    H246919   6.724   4.200  16.645  0.4683  1.0021 -1.6101
 8502TIP3   OH246920   3.907   1.134   5.598  0.8645 -0.1576  0.1291
 8502TIP3    H146921   3.842   1.090   5.544  1.0308  0.3423 -0.4832
 8502TIP3    H246922   3.865   1.144   5.683  0.2416 -0.0828 -0.1854
 8503TIP3   OH246923   2.225   6.704   2.125 -0.3034  0.4644 -0.3277
 8503TIP3    H146924   2.217   6.690   2.030 -1.1580  1.4047 -0.4004
 8503TIP3    H246925   2.157   6.650   2.164  0.9008 -0.9636 -0.1440
 8504TIP3   OH246926   6.221   6.532   1.593 -0.5125 -0.0424 -0.3950
 8504TIP3    H146927   6.309   6.530   1.630 -0.1353 -0.9804 -1.3068
 8504TIP3    H246928   6.201   6.440   1.575 -1.2656  0.2575 -1.1345
 8505TIP3   OH246929   1.779   0.750   3.593  0.1719 -0.1602  0.1248
 8505TIP3    H146930   1.757   0.801   3.671  0.4880  0.1901 -0.0115
 8505TIP3    H246931   1.841   0.806   3.545  0.2680 -0.5350 -0.1872
 8506TIP3   OH246932   3.201   1.140   3.928 -0.1207  0.1041 -0.7584
 8506TIP3    H146933   3.160   1.226   3.913  0.0286  0.5696  1.4300
 8506TIP3    H246934   3.199   1.128   4.023  1.9233 -1.3080 -0.8653
 8507TIP3   OH246935   2.986   1.830  16.638 -0.5388 -0.0445 -0.6489
 8507TIP3    H146936   3.000   1.771  16.713  0.5016 -0.6649 -1.3158
 8507TIP3    H246937   2.891   1.836  16.630 -0.7379  2.1514  2.3849
 8508TIP3   OH246938   0.299   3.235   4.354  0.4078  0.3413  0.3494
 8508TIP3    H146939   0.342   3.289   4.289  1.1435 -0.4879  0.1358
 8508TIP3    H246940   0.337   3.148   4.342 -1.2092 -0.3673  0.2564
 8509TIP3   OH246941   3.411   4.384   4.186 -0.1243 -0.0049  0.1105
 8509TIP3    H146942   3.416   4.294   4.218  0.5774  0.6846  2.0265
 8509TIP3    H246943   3.339   4.424   4.236 -0.8930  0.3014 -1.2328
 8510TIP3   OH246944   5.111   3.361   1.641 -0.4833 -0.7234 -0.1923
 8510TIP3    H146945   5.045   3.428   1.662  0.6841  0.4223 -0.0611
 8510TIP3    H246946   5.104   3.348   1.547  0.3008  0.7364 -0.4726
 8511TIP3   OH246947   0.831   0.777   2.931  0.2550 -0.1261 -0.3438
 8511TIP3    H146948   0.834   0.704   2.870  0.8546  0.0698 -0.5474
 8511TIP3    H246949   0.784   0.846   2.884 -0.2850 -0.3685 -0.1619
 8512TIP3   OH246950   5.954   4.676  17.076 -0.8025 -0.0826 -0.2127
 8512TIP3    H146951   5.920   4.765  17.077 -1.6081 -0.3770  2.0008
 8512TIP3    H246952   5.886   4.624  17.033 -0.5352  0.2945 -1.0887
 8513TIP3   OH246953   0.305   0.856  15.193 -0.6348  0.2753 -0.3135
 8513TIP3    H146954   0.324   0.781  15.250 -0.1341  1.4439  1.1200
 8513TIP3    H246955   0.213   0.845  15.169 -1.3596  0.6268  2.1259
 8514TIP3   OH246956   1.662   5.974  15.464 -0.4691 -0.0074  0.1000
 8514TIP3    H146957   1.612   5.972  15.383 -0.7760 -1.4508  0.3217
 8514TIP3    H246958   1.745   6.015  15.440 -0.5693 -0.4099 -0.9393
 8515TIP3   OH246959   5.671   0.952  11.005  0.0699 -0.4200 -0.1260
 8515TIP3    H146960   5.674   1.001  10.923  0.4757 -0.5212 -0.1708
 8515TIP3    H246961   5.624   0.872  10.984 -0.8365  0.0669  0.0086
 8516TIP3   OH246962   4.445   5.825  12.616 -0.6582  0.3996  0.4661
 8516TIP3    H146963   4.370   5.874  12.651 -0.8082 -0.6031  1.5308
 8516TIP3    H246964   4.405   5.760  12.558 -0.7339 -1.2173  2.3007
 8517TIP3   OH246965   6.335   3.687   4.735  0.0895 -0.1319  0.3398
 8517TIP3    H146966   6.367   3.679   4.824 -0.8665 -0.8987  0.6228
 8517TIP3    H246967   6.405   3.651   4.681 -0.4221 -2.1769  0.9817
 8518TIP3   OH246968   3.336   2.257  14.251  0.4854  0.0859  0.0538
 8518TIP3    H146969   3.357   2.342  14.291  2.2018 -0.8554  1.1897
 8518TIP3    H246970   3.404   2.198  14.282 -1.9356 -2.2712  1.1011
 8519TIP3   OH246971   2.976   0.263  14.034  0.0900 -0.1859 -0.0084
 8519TIP3    H146972   2.942   0.309  13.958 -3.6639 -1.5488  0.7363
 8519TIP3    H246973   2.965   0.170  14.013  1.6868 -0.6383  1.0496
 8520TIP3   OH246974   2.578   2.781   0.429 -0.3373  0.2897  0.4468
 8520TIP3    H146975   2.513   2.747   0.368  0.5637 -2.2064  0.8424
 8520TIP3    H246976   2.539   2.862   0.462 -2.2650 -0.0233 -0.9736
 8521TIP3   OH246977   5.746   6.121  11.660 -0.6430  0.6349 -0.3606
 8521TIP3    H146978   5.750   6.178  11.736  2.6564  1.7873 -1.3084
 8521TIP3    H246979   5.764   6.178  11.585  1.2841 -1.3256 -1.4841
 8522TIP3   OH246980   0.238   6.314  15.925 -0.8464  0.0146  0.1624
 8522TIP3    H146981   0.212   6.352  15.842 -0.8549  0.0584  0.1863
 8522TIP3    H246982   0.182   6.237  15.935 -1.5713  0.5975  0.6226
 8523TIP3   OH246983   2.282   3.087  16.473 -0.1935 -0.0251 -0.1275
 8523TIP3    H146984   2.345   3.087  16.545 -0.5264  1.1526  0.1765
 8523TIP3    H246985   2.336   3.094  16.394  0.1026  0.0579  0.0812
 8524TIP3   OH246986   0.129   6.260  11.485  0.6636  0.7836 -0.3702
 8524TIP3    H146987   0.093   6.181  11.445  0.4096  1.8478 -2.2694
 8524TIP3    H246988   0.122   6.243  11.579 -1.3305 -0.6038 -0.7133
 8525TIP3   OH246989   5.563   1.950  13.983 -0.0013  0.5400  0.0631
 8525TIP3    H146990   5.644   1.996  13.962  1.0430 -1.3395 -0.1396
 8525TIP3    H246991   5.512   1.951  13.902 -0.9167  3.1141  0.6219
 8526TIP3   OH246992   1.094   3.744  15.655 -0.0752 -0.6834 -0.2245
 8526TIP3    H146993   1.145   3.664  15.644 -0.9467 -1.4794  1.2711
 8526TIP3    H246994   1.024   3.719  15.716 -1.4751  0.7117 -1.2122
 8527TIP3   OH246995   0.992   0.415  11.176  0.6869  0.2136  0.6584
 8527TIP3    H146996   1.040   0.333  11.187 -0.7701 -0.5528  1.4783
 8527TIP3    H246997   0.917   0.392  11.121  1.2309  1.3906 -0.6000
 8528TIP3   OH246998   2.967   4.075  12.669  0.0672  0.0879  0.1913
 8528TIP3    H146999   2.921   4.103  12.748  0.4353 -0.6112  0.6687
 8528TIP3    H247000   3.025   4.005  12.699  1.1524  0.6850 -0.4660
 8529TIP3   OH247001   0.523   2.008   3.162 -0.1388 -0.0698 -0.0251
 8529TIP3    H147002   0.445   1.957   3.184 -0.5732  0.4575 -0.3326
 8529TIP3    H247003   0.596   1.948   3.177 -0.5045 -0.0802  1.7478
 8530TIP3   OH247004   5.539   2.324  16.151  0.2915  0.4150  0.6549
 8530TIP3    H147005   5.520   2.354  16.239  0.8381  0.2377  0.8400
 8530TIP3    H247006   5.633   2.303  16.153  0.1235 -0.3947  0.2744
 8531TIP3   OH247007   3.581   6.743   5.092  0.0282 -0.0612 -0.3273
 8531TIP3    H147008   3.538   6.728   5.176 -0.6231  0.0485 -0.6386
 8531TIP3    H247009   3.650   6.676   5.088 -0.8063 -0.9239 -0.3067
 8532TIP3   OH247010   0.023   5.107  14.947 -0.5018  0.4342  1.0295
 8532TIP3    H147011   0.028   5.201  14.968  0.6572  0.9499 -1.3999
 8532TIP3    H247012   0.094   5.067  14.997  2.1703  1.6364 -1.6076
 8533TIP3   OH247013   5.179   2.924   6.212  0.3123  0.1041 -0.8743
 8533TIP3    H147014   5.239   2.890   6.279 -0.5178 -0.8250 -0.5941
 8533TIP3    H247015   5.108   2.859   6.208 -1.5989  2.1010  0.0707
 8534TIP3   OH247016   4.057   4.202  15.496 -0.0444  0.0890  0.3384
 8534TIP3    H147017   4.005   4.142  15.442 -0.5905  1.2719 -0.4710
 8534TIP3    H247018   4.012   4.204  15.580  0.0631 -0.7549  0.4170
 8535TIP3   OH247019   3.497   2.736  14.699  0.3064 -0.0074  0.4780
 8535TIP3    H147020   3.564   2.681  14.739  2.3506  3.4075  1.9899
 8535TIP3    H247021   3.524   2.744  14.608  0.1857 -1.1684  0.3339
 8536TIP3   OH247022   1.453   4.246   5.452 -0.3707  0.6137 -0.1261
 8536TIP3    H147023   1.474   4.336   5.480  0.0823  1.0509 -1.8506
 8536TIP3    H247024   1.357   4.243   5.456 -0.3425  0.7638  1.1323
 8537TIP3   OH247025   6.670   3.721   3.195  0.4149  1.0129 -0.2289
 8537TIP3    H147026   6.585   3.684   3.167  0.5890  0.1291  0.3826
 8537TIP3    H247027   6.732   3.691   3.128  0.3176  1.3270 -0.4611
 8538TIP3   OH247028   4.361   6.057  13.064  0.3235 -0.1918 -0.2080
 8538TIP3    H147029   4.346   5.997  13.136 -1.4366 -2.7823 -2.6398
 8538TIP3    H247030   4.282   6.110  13.059  1.6306  2.0237  1.5525
 8539TIP3   OH247031   6.569   0.820   5.671  0.6514 -0.5482  0.0158
 8539TIP3    H147032   6.547   0.769   5.593  0.4308 -1.2151  0.5096
 8539TIP3    H247033   6.657   0.790   5.694  0.3461 -1.0175  0.5630
 8540TIP3   OH247034   6.620   2.350  13.626 -0.6256  1.0970 -0.0195
 8540TIP3    H147035   6.638   2.256  13.618  0.1063  1.3107 -0.9573
 8540TIP3    H247036   6.532   2.360  13.589 -1.4403  0.5359  1.6785
 8541TIP3   OH247037   6.095   6.219  12.516  0.3077 -0.0726  0.2262
 8541TIP3    H147038   6.086   6.231  12.422  1.3972 -2.5605 -0.2365
 8541TIP3    H247039   6.046   6.292  12.555 -0.5969  0.6698 -2.2442
 8542TIP3   OH247040   2.046   1.946  13.803 -0.0237  0.6037 -0.4269
 8542TIP3    H147041   2.141   1.948  13.819  0.0196 -0.4184 -0.5070
 8542TIP3    H247042   2.019   1.858  13.829 -1.0950  1.1400  0.3317
 8543TIP3   OH247043   3.066   3.363  15.592  0.7344  0.9903  0.6439
 8543TIP3    H147044   3.124   3.439  15.596  1.6173  0.2982  1.3149
 8543TIP3    H247045   3.093   3.309  15.666 -0.9651  0.7825  1.1431
 8544TIP3   OH247046   2.352   3.446   5.462 -0.9913 -0.0554 -0.1182
 8544TIP3    H147047   2.408   3.466   5.387  1.2018  1.1690  1.7729
 8544TIP3    H247048   2.373   3.355   5.483 -1.8179 -0.4885 -1.1552
 8545TIP3   OH247049   6.633   4.984   6.310 -0.6140 -0.1111 -0.2347
 8545TIP3    H147050   6.573   4.947   6.374 -1.1996  0.1142 -0.6547
 8545TIP3    H247051   6.605   4.947   6.226  1.2107 -1.7562 -0.1614
 8546TIP3   OH247052   2.566   2.987   2.416  0.2468 -0.8051 -0.3053
 8546TIP3    H147053   2.550   3.078   2.443 -3.0689 -1.6459  0.7789
 8546TIP3    H247054   2.603   2.945   2.494 -3.1750 -1.6071  0.9912
 8547TIP3   OH247055   0.873   2.697  14.326 -0.0969 -0.2157 -0.1959
 8547TIP3    H147056   0.936   2.631  14.297 -0.8539 -0.5363 -1.1405
 8547TIP3    H247057   0.861   2.680  14.420  0.8696 -0.4451 -0.1146
 8548TIP3   OH247058   6.475   0.421   2.093 -0.1183 -0.2562  0.0632
 8548TIP3    H147059   6.542   0.489   2.092  0.0144 -0.3712  0.7822
 8548TIP3    H247060   6.501   0.362   2.164 -0.0435 -1.2525 -0.7711
 8549TIP3   OH247061   1.749   0.500   1.093 -0.9264 -0.4751 -0.3381
 8549TIP3    H147062   1.839   0.519   1.067 -0.8999  0.3496  0.3661
 8549TIP3    H247063   1.708   0.466   1.014  0.4870 -2.5528 -0.2335
 8550TIP3   OH247064   1.962   0.361   4.009 -0.4521 -0.7222 -0.4750
 8550TIP3    H147065   1.909   0.414   3.950  0.7200  0.6243 -0.3461
 8550TIP3    H247066   1.906   0.287   4.033 -2.3851  0.8538 -0.0411
 8551TIP3   OH247067   1.275   2.910   5.630 -0.0975 -0.3606  0.1008
 8551TIP3    H147068   1.231   2.884   5.550  2.0879  2.1287 -2.0252
 8551TIP3    H247069   1.347   2.847   5.640 -0.7790 -1.0798  0.4977
 8552TIP3   OH247070   1.313   4.945   0.923 -0.0481  0.7346  0.2811
 8552TIP3    H147071   1.315   4.901   0.838  0.8376  0.1820  0.5735
 8552TIP3    H247072   1.358   5.028   0.909  0.5812  0.4067  0.3307
 8553TIP3   OH247073   1.963   4.289   4.810  0.0600  0.5363 -0.6624
 8553TIP3    H147074   1.972   4.384   4.797 -1.2240  0.8716  0.7598
 8553TIP3    H247075   1.879   4.279   4.855  1.4977 -1.0353  1.8134
 8554TIP3   OH247076   1.660   2.293  10.318  0.4485  0.2043 -0.0520
 8554TIP3    H147077   1.614   2.372  10.345 -1.3427 -0.9218  0.3053
 8554TIP3    H247078   1.751   2.320  10.308  0.0691  2.0313  1.2217
 8555TIP3   OH247079   6.243   6.079   3.416 -0.3259 -0.0746 -0.0951
 8555TIP3    H147080   6.307   6.118   3.476 -0.9692  0.2153  0.4022
 8555TIP3    H247081   6.207   6.005   3.465 -0.1547 -0.4233 -0.4920
 8556TIP3   OH247082   6.167   3.400   0.787 -0.8658 -0.0725 -0.1702
 8556TIP3    H147083   6.133   3.382   0.875 -2.0867  1.1788 -0.3722
 8556TIP3    H247084   6.109   3.353   0.728 -0.3874 -0.4410 -0.3579
 8557TIP3   OH247085   3.592   4.752   5.703  0.3757  1.1366  0.1463
 8557TIP3    H147086   3.655   4.825   5.700  0.5478  0.9044 -3.1224
 8557TIP3    H247087   3.536   4.766   5.627 -0.8474 -1.0463  0.6164
 8558TIP3   OH247088   2.212   3.536   6.105 -0.2300  0.3745 -0.0773
 8558TIP3    H147089   2.191   3.624   6.137  2.3438  0.6910  0.8740
 8558TIP3    H247090   2.277   3.503   6.167  1.0981 -0.9836 -2.1398
 8559TIP3   OH247091   5.519   6.252   3.835  0.1493 -0.1533  0.0342
 8559TIP3    H147092   5.440   6.199   3.845 -1.3627  1.8494 -0.7485
 8559TIP3    H247093   5.564   6.214   3.760 -1.2353  0.0095 -0.9050
 8560TIP3   OH247094   5.679   5.421   0.789 -0.1647  0.3706  0.0417
 8560TIP3    H147095   5.668   5.365   0.866  0.4113 -3.1950 -2.3738
 8560TIP3    H247096   5.595   5.466   0.780 -0.3955  0.4998  2.4442
 8561TIP3   OH247097   0.490   0.816   0.730  0.8547 -0.2092  0.1676
 8561TIP3    H147098   0.542   0.851   0.802 -0.2480  0.3438  0.7042
 8561TIP3    H247099   0.530   0.730   0.712  1.5037 -0.1021  1.0324
 8562TIP3   OH247100   3.413   6.509  16.897  0.4483  0.4038  0.0222
 8562TIP3    H147101   3.394   6.512  16.991  0.0217  1.0984 -0.0796
 8562TIP3    H247102   3.496   6.557  16.888  1.4536 -1.2345  0.2630
 8563TIP3   OH247103   1.943   0.811   1.997  0.2352 -0.1917  0.1420
 8563TIP3    H147104   1.873   0.845   2.053  0.0546  2.7023 -1.7397
 8563TIP3    H247105   2.017   0.797   2.055  0.0018  2.5839  1.1340
 8564TIP3   OH247106   1.211   0.188  11.766  0.3550 -0.3987 -0.4519
 8564TIP3    H147107   1.179   0.257  11.824 -2.6968 -0.5654 -1.8055
 8564TIP3    H247108   1.219   0.111  11.821  2.6274  0.7136  0.8212
 8565TIP3   OH247109   6.713   3.795   2.093  0.1384  0.1209  0.6241
 8565TIP3    H147110   6.762   3.734   2.147 -0.8368 -1.4282 -0.2288
 8565TIP3    H247111   6.675   3.741   2.024 -2.0484  1.4442  0.7719
 8566TIP3   OH247112   5.922   0.826  14.582  0.3630 -0.2913 -0.0512
 8566TIP3    H147113   5.968   0.756  14.628  0.0665  0.2230  1.0342
 8566TIP3    H247114   5.870   0.780  14.515  0.2736 -1.0974  0.5639
 8567TIP3   OH247115   2.314   5.914   0.415 -0.3233 -0.3948  0.7593
 8567TIP3    H147116   2.347   5.843   0.470 -1.3286 -1.7353 -0.3193
 8567TIP3    H247117   2.378   5.921   0.344 -1.3935 -1.8241 -0.3904
 8568TIP3   OH247118   6.599   5.119   3.124  0.0849  0.0214 -0.5306
 8568TIP3    H147119   6.640   5.204   3.140  0.2195 -0.0436 -0.5313
 8568TIP3    H247120   6.530   5.113   3.190  0.9258 -0.4357  0.3197
 8569TIP3   OH247121   4.021   5.252   5.574  0.1643 -0.1774  0.4355
 8569TIP3    H147122   3.952   5.243   5.509  0.4813 -1.1897  0.2279
 8569TIP3    H247123   4.097   5.210   5.535  0.8620  0.7973  0.7235
 8570TIP3   OH247124   5.324   6.357  15.254 -0.0761 -0.1882 -0.1305
 8570TIP3    H147125   5.327   6.280  15.197  0.4781  0.6580 -1.2835
 8570TIP3    H247126   5.378   6.334  15.329  0.5016 -0.7444 -0.7165
 8571TIP3   OH247127   1.554   5.689   4.671  0.1173  0.1249  0.2228
 8571TIP3    H147128   1.568   5.603   4.713 -1.9752  0.5250  1.7893
 8571TIP3    H247129   1.642   5.727   4.667  0.9686 -1.7482  0.2458
 8572TIP3   OH247130   5.514   0.127   2.541 -0.0132  0.4448 -0.0476
 8572TIP3    H147131   5.518   0.035   2.514 -0.1243 -0.0848  1.6834
 8572TIP3    H247132   5.487   0.174   2.462 -1.1462 -1.1482 -0.6257
 8573TIP3   OH247133   2.308   5.102   0.068  0.3129  0.7662  0.4450
 8573TIP3    H147134   2.352   5.158   0.004  0.6575 -1.2567 -1.1480
 8573TIP3    H247135   2.380   5.056   0.113 -0.0310  0.1598  0.3786
 8574TIP3   OH247136   6.334   1.033   5.695  0.3503  0.1595  0.0915
 8574TIP3    H147137   6.387   0.957   5.718 -0.8122 -0.5398  0.4916
 8574TIP3    H247138   6.250   1.017   5.737 -0.1178  1.3593 -0.3702
 8575TIP3   OH247139   0.073   3.670  14.768  0.1888  0.1948 -0.2893
 8575TIP3    H147140   0.040   3.750  14.727 -0.2335  0.4117  0.4628
 8575TIP3    H247141   0.146   3.700  14.823  0.7809 -0.0990 -0.9167
 8576TIP3   OH247142   5.827   0.138   1.633  0.1164  0.1993  0.7029
 8576TIP3    H147143   5.885   0.198   1.585 -1.0567 -0.0117 -1.0333
 8576TIP3    H247144   5.886   0.085   1.686  1.3665  1.2616  0.3978
 8577TIP3   OH247145   2.416   4.479  13.046 -0.1469  0.0366  0.4682
 8577TIP3    H147146   2.348   4.528  13.001 -1.5093 -1.1624  1.1580
 8577TIP3    H247147   2.432   4.529  13.127  0.7295  1.0079 -0.2973
 8578TIP3   OH247148   4.149   0.994   1.393  0.0612 -0.2819 -0.6522
 8578TIP3    H147149   4.084   1.010   1.461  0.3587 -1.1557 -0.1537
 8578TIP3    H247150   4.140   0.901   1.373 -0.6177  0.1381 -2.4244
 8579TIP3   OH247151   2.150   2.964  14.754  0.0915  0.4785  0.2255
 8579TIP3    H147152   2.124   2.884  14.707  4.2927 -1.4013  0.8801
 8579TIP3    H247153   2.083   2.974  14.822 -1.9208 -1.0188 -1.4784
 8580TIP3   OH247154   1.025   2.288   6.488  0.2935 -0.1886 -0.2965
 8580TIP3    H147155   1.002   2.197   6.506 -0.3286  0.3354  1.7368
 8580TIP3    H247156   0.944   2.327   6.454  0.9959 -0.7575 -2.6983
 8581TIP3   OH247157   2.575   0.027   5.910  0.8518 -0.1757 -0.0923
 8581TIP3    H147158   2.621   0.005   5.990  1.8356  1.0945 -0.2827
 8581TIP3    H247159   2.525   0.105   5.932  1.0093  0.0894 -0.6548
 8582TIP3   OH247160   2.732   5.090  15.336 -0.7998  0.4617  0.0226
 8582TIP3    H147161   2.736   5.144  15.258 -0.6434  0.8743  0.3166
 8582TIP3    H247162   2.823   5.060  15.349 -0.7898  0.5472  0.1529
 8583TIP3   OH247163   2.329   6.531   5.142 -0.1515  0.1759 -0.0866
 8583TIP3    H147164   2.401   6.585   5.110 -0.1556  0.5644  0.5488
 8583TIP3    H247165   2.340   6.530   5.237 -1.3475  0.7661  0.0639
 8584TIP3   OH247166   5.407   3.575  13.985 -0.0598 -0.3299 -0.2393
 8584TIP3    H147167   5.496   3.591  14.016 -0.4650 -1.0071  1.3408
 8584TIP3    H247168   5.384   3.489  14.021 -1.5697  0.1006 -0.1079
 8585TIP3   OH247169   2.817   5.098  16.225 -0.2760  0.1373 -0.3529
 8585TIP3    H147170   2.755   5.119  16.155  0.0029  0.3129 -0.5460
 8585TIP3    H247171   2.768   5.116  16.305 -1.1972 -1.7691 -0.4721
 8586TIP3   OH247172   0.178   3.218  14.129 -0.4113 -0.5091  0.0637
 8586TIP3    H147173   0.127   3.143  14.161 -0.8421 -0.4068 -0.3804
 8586TIP3    H247174   0.138   3.294  14.172  0.5758 -0.6103  1.1921
 8587TIP3   OH247175   5.371   5.923  16.733 -0.4573 -0.0609 -0.5311
 8587TIP3    H147176   5.434   5.902  16.801  0.2298 -2.4843 -1.8415
 8587TIP3    H247177   5.309   5.984  16.774  0.2768 -1.0132  2.0373
 8588TIP3   OH247178   3.950   0.492  11.937 -0.0613 -0.1401 -0.5242
 8588TIP3    H147179   3.995   0.511  12.019 -1.5285 -1.3849  0.6046
 8588TIP3    H247180   4.019   0.461  11.878  0.9445  0.4035  0.3455
 8589TIP3   OH247181   1.087   1.340   0.025  0.4441 -0.2103 -0.1705
 8589TIP3    H147182   1.088   1.265   0.085  2.5605 -0.0098  0.0808
 8589TIP3    H247183   1.152   1.318  -0.042 -0.3886  0.5100 -1.2428
 8590TIP3   OH247184   6.272   5.028  13.798 -0.2489 -0.1664  0.5769
 8590TIP3    H147185   6.355   5.012  13.843  0.1337  1.8925  0.6313
 8590TIP3    H247186   6.243   4.941  13.770  2.1970 -0.8638  0.0849
 8591TIP3   OH247187   3.528   6.722   1.731  0.2533  0.0224 -0.5864
 8591TIP3    H147188   3.587   6.716   1.806 -0.2723  0.0898 -0.1646
 8591TIP3    H247189   3.585   6.711   1.655  1.2063  2.5966 -0.3120
 8592TIP3   OH247190   3.439   5.235  14.082  0.9231  0.0433 -0.6589
 8592TIP3    H147191   3.533   5.240  14.094  0.7345  1.7894  0.2211
 8592TIP3    H247192   3.403   5.301  14.141 -0.7393  0.7742 -2.4230
 8593TIP3   OH247193   1.115   2.403   1.275  0.1225  0.1452  0.1618
 8593TIP3    H147194   1.035   2.352   1.284 -0.2603  0.9825  1.6934
 8593TIP3    H247195   1.095   2.487   1.316  1.2297  0.9955 -0.9815
 8594TIP3   OH247196   0.290   6.431   4.616  0.1522 -0.4280 -0.1488
 8594TIP3    H147197   0.326   6.514   4.647  0.9677 -0.2656 -1.5174
 8594TIP3    H247198   0.363   6.369   4.625 -0.2026 -0.8141  0.0754
 8595TIP3   OH247199   2.365   2.688   2.681  0.4928  0.5051  0.1169
 8595TIP3    H147200   2.284   2.657   2.723  0.0103  1.5079 -0.0507
 8595TIP3    H247201   2.362   2.651   2.593 -0.9332  2.3921 -0.6598
 8596TIP3   OH247202   5.410   6.380   0.907 -0.6052  0.2219  0.8835
 8596TIP3    H147203   5.442   6.470   0.911 -2.2163  0.9107 -1.2192
 8596TIP3    H247204   5.319   6.388   0.880 -0.4838 -2.0789 -0.3182
 8597TIP3   OH247205   5.038   3.534   3.333  0.3937  0.1417 -0.3706
 8597TIP3    H147206   5.029   3.612   3.388  0.3493 -1.4560  1.9834
 8597TIP3    H247207   4.947   3.507   3.316  0.4231 -0.0213 -0.2646
 8598TIP3   OH247208   1.372   0.987  15.251  0.2745 -1.0952  0.1801
 8598TIP3    H147209   1.297   0.954  15.201 -2.9863  2.5492  2.3332
 8598TIP3    H247210   1.389   1.074  15.213  0.9312 -0.3314  2.1825
 8599TIP3   OH247211   1.014   1.376   5.163  0.9005 -0.5252  0.6876
 8599TIP3    H147212   1.024   1.466   5.193  0.6583  0.2778 -1.5911
 8599TIP3    H247213   1.093   1.331   5.193  1.9191  0.9100  0.1652
 8600TIP3   OH247214   1.473   1.470   5.411 -0.0095 -0.0001  0.2784
 8600TIP3    H147215   1.507   1.463   5.321  0.7018 -1.2251  0.6280
 8600TIP3    H247216   1.500   1.558   5.439  2.9825 -0.9450  0.5573
 8601TIP3   OH247217   1.164   2.117   3.521  0.8049 -0.3542  0.5493
 8601TIP3    H147218   1.239   2.160   3.478  0.2694 -0.6458 -0.6911
 8601TIP3    H247219   1.115   2.189   3.560  1.1542 -0.0615  0.4540
 8602TIP3   OH247220   3.750   2.969  14.551  0.1161  0.4182  0.2228
 8602TIP3    H147221   3.732   3.026  14.625 -0.6486  0.5276 -0.0399
 8602TIP3    H247222   3.789   3.026  14.485  1.7057  0.1335  0.8839
 8603TIP3   OH247223   1.071   5.907   2.912  0.1382 -0.0760  0.1444
 8603TIP3    H147224   1.139   5.957   2.955 -0.5073 -1.1242  2.4684
 8603TIP3    H247225   1.118   5.840   2.862  0.8846  1.1472 -0.8364
 8604TIP3   OH247226   3.124   1.186   2.404  0.1113  0.1387 -0.1166
 8604TIP3    H147227   3.032   1.211   2.397  1.3382  5.4038  0.4547
 8604TIP3    H247228   3.138   1.173   2.497  0.5770  2.3347  0.1468
 8605TIP3   OH247229   4.794   0.526   2.999  0.1053 -0.2980  0.1980
 8605TIP3    H147230   4.859   0.456   3.006  0.8450  0.2137 -1.3098
 8605TIP3    H247231   4.711   0.480   2.989  0.3686 -0.9604  1.0712
 8606TIP3   OH247232   6.324   5.244  14.701  0.0538 -0.3590 -0.0095
 8606TIP3    H147233   6.375   5.307  14.752 -1.1839  1.1725 -0.6315
 8606TIP3    H247234   6.262   5.298  14.652 -0.6519 -2.0314 -0.9727
 8607TIP3   OH247235   5.252   4.365   4.468 -0.0920 -0.2304 -0.1292
 8607TIP3    H147236   5.181   4.380   4.406  1.8694  0.2672 -2.3189
 8607TIP3    H247237   5.250   4.441   4.526 -3.2239 -1.6671  1.7776
 8608TIP3   OH247238   2.327   5.917   5.427 -0.0454  0.4586 -0.7075
 8608TIP3    H147239   2.267   5.893   5.497 -0.9915 -1.9108 -2.2418
 8608TIP3    H247240   2.414   5.908   5.466 -0.6117  2.2579  1.0348
 8609TIP3   OH247241   3.942   6.702  11.835 -0.0531 -0.1272 -0.6148
 8609TIP3    H147242   4.006   6.632  11.825  2.2748  1.7928  0.3976
 8609TIP3    H247243   3.931   6.712  11.930 -0.7426  0.5309 -0.7566
 8610TIP3   OH247244   0.821   4.705   4.143 -0.0559  0.6346 -0.0798
 8610TIP3    H147245   0.742   4.743   4.180 -0.9359 -1.3142  0.0686
 8610TIP3    H247246   0.871   4.673   4.218  0.2614  0.6941 -0.2614
 8611TIP3   OH247247   5.406   4.010   5.423  0.2130  0.0001 -0.1254
 8611TIP3    H147248   5.427   4.028   5.332  1.5780  1.8432  0.5168
 8611TIP3    H247249   5.324   4.058   5.438 -0.2588 -0.6825 -0.4942
 8612TIP3   OH247250   0.829   4.552   3.257 -0.2476  0.0314  0.3078
 8612TIP3    H147251   0.740   4.566   3.224  0.7735  1.8166 -1.8587
 8612TIP3    H247252   0.827   4.586   3.346 -1.8959 -0.5375  0.5051
 8613TIP3   OH247253   2.982   6.740   0.320  0.1120  0.7319 -0.0891
 8613TIP3    H147254   2.891   6.716   0.300  0.2670  1.8024 -2.2050
 8613TIP3    H247255   2.978   6.779   0.407 -1.7949  2.5942 -0.9773
 8614TIP3   OH247256   3.046   4.993   1.495  0.1880  0.2153  0.1912
 8614TIP3    H147257   3.031   5.048   1.418  1.6158 -1.0171 -0.9897
 8614TIP3    H247258   3.013   5.045   1.568  0.7178  2.3048 -1.0127
 8615TIP3   OH247259   5.747   1.284  15.212 -0.3538  0.6443  0.4546
 8615TIP3    H147260   5.745   1.352  15.279 -1.7687  1.6419 -0.5758
 8615TIP3    H247261   5.799   1.322  15.141  0.5847 -0.1545  0.7087
 8616TIP3   OH247262   3.672   0.623   1.248  0.6682  0.0099 -0.1697
 8616TIP3    H147263   3.597   0.564   1.245  0.7643 -0.1560  0.6541
 8616TIP3    H247264   3.638   0.707   1.216  0.8360 -0.8007 -2.5042
 8617TIP3   OH247265   3.243   0.002  11.194  0.1479 -0.7569  0.0679
 8617TIP3    H147266   3.243   0.019  11.100 -1.6801  2.1277  0.5129
 8617TIP3    H247267   3.168  -0.056  11.208 -0.3648 -0.1531 -0.1250
 8618TIP3   OH247268   3.592   3.244   2.142 -0.4990 -0.7042 -0.7304
 8618TIP3    H147269   3.527   3.243   2.212  0.2105 -1.3380 -0.0691
 8618TIP3    H247270   3.619   3.336   2.135  0.5870 -0.8793  0.9307
 8619TIP3   OH247271   3.820   0.857  12.203 -0.3556  0.3672  0.1167
 8619TIP3    H147272   3.758   0.930  12.207 -1.4076 -0.5781  1.8398
 8619TIP3    H247273   3.765   0.780  12.184  0.6783 -0.0703 -1.1919
 8620TIP3   OH247274   2.951   5.791  16.575 -0.1360 -0.4160  0.5178
 8620TIP3    H147275   2.955   5.717  16.636 -1.1190 -0.9865 -0.0942
 8620TIP3    H247276   2.929   5.751  16.491 -0.5679  0.5699  0.1612
 8621TIP3   OH247277   2.190   5.298  13.957  0.3397 -0.0220  0.7515
 8621TIP3    H147278   2.278   5.270  13.979  0.2722 -0.6112  0.2748
 8621TIP3    H247279   2.196   5.394  13.954  1.7007 -0.1420 -2.2103
 8622TIP3   OH247280   0.876   5.139   4.566 -0.3115  0.6779 -0.1268
 8622TIP3    H147281   0.810   5.208   4.568  0.3408  1.4139 -2.3104
 8622TIP3    H247282   0.952   5.180   4.525  1.5906 -0.0988  2.4973
 8623TIP3   OH247283   2.722   0.442  16.817  0.5479  0.3747 -0.9538
 8623TIP3    H147284   2.722   0.350  16.791 -0.8846 -0.2621  1.1521
 8623TIP3    H247285   2.814   0.468  16.815  1.0624 -1.3698 -0.6532
 8624TIP3   OH247286   5.189   2.888  11.331  0.3267 -0.1942 -0.3895
 8624TIP3    H147287   5.270   2.918  11.290  0.2990  0.7711  0.2353
 8624TIP3    H247288   5.127   2.959  11.314  0.1345 -0.0861  0.7392
 8625TIP3   OH247289   0.655   1.549   3.760  0.2372  0.6935  0.1689
 8625TIP3    H147290   0.724   1.538   3.825  0.1722  0.3414  0.1773
 8625TIP3    H247291   0.592   1.607   3.802 -0.0535  0.0606  0.6152
 8626TIP3   OH247292   6.181   5.127  11.823 -0.2958  0.2296 -0.5439
 8626TIP3    H147293   6.275   5.142  11.812 -0.1387  0.2903  0.8196
 8626TIP3    H247294   6.142   5.215  11.815 -0.3400  0.0824 -2.0411
 8627TIP3   OH247295   1.598   6.427  13.030 -0.7650  0.1729 -0.3671
 8627TIP3    H147296   1.535   6.417  12.958 -0.7435  0.6222 -0.4483
 8627TIP3    H247297   1.613   6.521  13.036  0.6117  0.0068 -0.9594
 8628TIP3   OH247298   4.980   2.190   3.694  0.3098  0.0406 -0.8047
 8628TIP3    H147299   4.911   2.174   3.758  0.2831  0.7461 -0.6437
 8628TIP3    H247300   5.007   2.104   3.664  2.7677 -0.5426  2.7754
 8629TIP3   OH247301   4.332   6.503  14.649  0.1042  0.1444 -0.1274
 8629TIP3    H147302   4.326   6.513  14.554  1.3779 -0.9318 -0.3262
 8629TIP3    H247303   4.371   6.417  14.662 -0.4524  0.1100  1.3869
 8630TIP3   OH247304   5.215   2.302  16.208 -0.4139 -0.3436  0.4520
 8630TIP3    H147305   5.230   2.299  16.302  0.4800  0.8147  0.3667
 8630TIP3    H247306   5.194   2.394  16.190  1.3302 -0.1451 -0.7333
 8631TIP3   OH247307   2.634   5.242   4.070  0.1256 -0.1495  0.6512
 8631TIP3    H147308   2.596   5.276   4.151 -0.3608 -1.1699  0.8611
 8631TIP3    H247309   2.572   5.267   4.002  1.4930  2.4493  0.2665
 8632TIP3   OH247310   5.810   3.700  11.262 -0.2403  0.1887 -0.4484
 8632TIP3    H147311   5.870   3.744  11.200 -0.3067  0.2312 -0.4827
 8632TIP3    H247312   5.843   3.611  11.267  0.6846  0.5809  0.6199
 8633TIP3   OH247313   3.880   4.092   5.969 -0.5490  0.4165 -0.4331
 8633TIP3    H147314   3.812   4.038   6.009  0.5201 -0.8744 -0.3061
 8633TIP3    H247315   3.844   4.181   5.969 -1.3205  0.1185  1.6297
 8634TIP3   OH247316   0.408   0.897  12.461 -0.3805  0.2954  0.1785
 8634TIP3    H147317   0.391   0.929  12.550 -0.1347 -1.3594  0.8230
 8634TIP3    H247318   0.334   0.840  12.441 -0.7810  1.1821 -0.9583
 8635TIP3   OH247319   3.089   1.705   6.124  0.4789  0.8043 -0.3592
 8635TIP3    H147320   3.077   1.739   6.035  0.7077  3.3995  0.5702
 8635TIP3    H247321   3.105   1.783   6.177  1.1348 -0.8005  1.8323
 8636TIP3   OH247322   6.175   0.112   5.588  0.0213 -0.4621 -0.9145
 8636TIP3    H147323   6.123   0.176   5.539 -0.6706 -0.1562  0.1924
 8636TIP3    H247324   6.111   0.065   5.641  0.7893 -0.5408 -0.0405
 8637TIP3   OH247325   2.018   5.118   5.395  0.0637 -0.1052 -0.1047
 8637TIP3    H147326   2.074   5.195   5.404  0.9677 -0.9359  1.6428
 8637TIP3    H247327   1.932   5.147   5.424  0.0369  0.6353 -0.8971
 8638TIP3   OH247328   0.872   6.119  14.507 -0.1109  0.6284 -0.4953
 8638TIP3    H147329   0.791   6.070  14.519  1.1157 -1.4649 -0.4653
 8638TIP3    H247330   0.884   6.166  14.590  1.2163 -2.9752  1.4855
 8639TIP3   OH247331   1.381   2.217  15.832  0.5354 -0.2884 -0.4368
 8639TIP3    H147332   1.420   2.206  15.746  0.7999 -0.6028 -0.2784
 8639TIP3    H247333   1.293   2.182  15.823  0.2036  0.6420 -0.8575
 8640TIP3   OH247334   0.172   1.284   1.355  0.4231 -0.2690  0.8136
 8640TIP3    H147335   0.191   1.328   1.272  0.3925 -3.2445 -0.8432
 8640TIP3    H247336   0.237   1.318   1.416  1.3747  0.8832 -0.8003
 8641TIP3   OH247337   5.657   1.179  13.590  0.4600  0.0602 -0.0882
 8641TIP3    H147338   5.644   1.086  13.610  0.0685 -0.6561 -3.3831
 8641TIP3    H247339   5.751   1.188  13.575  0.2840 -0.1730 -1.3838
 8642TIP3   OH247340   0.732   4.425  14.446  0.2936  0.7755  0.5762
 8642TIP3    H147341   0.704   4.361  14.381 -0.7650  1.5420  0.2613
 8642TIP3    H247342   0.706   4.509  14.409  0.5921  1.2960  1.5316
 8643TIP3   OH247343   5.896   0.173  16.181 -0.5092 -0.0016  0.1532
 8643TIP3    H147344   5.877   0.266  16.169  0.1872  0.0253 -0.7963
 8643TIP3    H247345   5.903   0.138  16.092 -1.6084 -1.1454  0.4900
 8644TIP3   OH247346   2.934   1.530  16.677  0.2559 -0.1676 -0.3503
 8644TIP3    H147347   2.992   1.464  16.714  0.8057  0.4981 -0.0119
 8644TIP3    H247348   2.972   1.550  16.591  0.3490  0.0349 -0.2613
 8645TIP3   OH247349   6.666   1.954  14.965 -0.1413  0.3381  0.1521
 8645TIP3    H147350   6.750   1.925  14.930  0.7950  0.5314  2.1494
 8645TIP3    H247351   6.661   1.911  15.051 -2.2101  0.1186 -0.0611
 8646TIP3   OH247352   6.208   1.366  16.538  0.4127  0.4224 -0.7212
 8646TIP3    H147353   6.208   1.346  16.632  0.4731 -0.2168 -0.8554
 8646TIP3    H247354   6.118   1.349  16.511  0.7938 -1.0127 -1.1175
 8647TIP3   OH247355   3.871   5.080   1.989  0.4951 -0.2366  0.3486
 8647TIP3    H147356   3.932   5.153   1.996  0.9975 -0.4894 -1.1320
 8647TIP3    H247357   3.786   5.121   1.972  0.5836  0.0364  0.5595
 8648TIP3   OH247358   0.175   0.094  12.137 -0.2871  0.3296 -0.0252
 8648TIP3    H147359   0.112   0.154  12.177  0.6417  0.7855  0.7409
 8648TIP3    H247360   0.127   0.011  12.130 -1.9874  1.4288 -2.1752
 8649TIP3   OH247361   0.935   0.598  13.352  0.5115 -0.3167  0.2152
 8649TIP3    H147362   0.857   0.648  13.379 -0.2388 -1.7061  0.6721
 8649TIP3    H247363   1.009   0.649  13.385 -0.2283  0.5809  0.5237
 8650TIP3   OH247364   0.556   2.847  16.473 -0.3414 -0.5743  0.4117
 8650TIP3    H147365   0.478   2.791  16.466  0.2093 -1.2350 -0.4239
 8650TIP3    H247366   0.521   2.933  16.499 -1.3703 -0.8216 -0.1182
 8651TIP3   OH247367   2.510   4.183  14.611 -0.4567  0.0607 -0.0872
 8651TIP3    H147368   2.417   4.177  14.631 -0.6831 -0.0290 -1.1188
 8651TIP3    H247369   2.514   4.173  14.516  0.5304  0.9164 -0.1422
 8652TIP3   OH247370   6.761   3.971   3.198 -0.7659 -0.2359 -0.0152
 8652TIP3    H147371   6.693   4.011   3.144 -2.2862 -1.7659  0.6951
 8652TIP3    H247372   6.727   3.883   3.217  1.2266 -0.8755  0.7138
 8653TIP3   OH247373   1.258   1.058  11.468 -0.1081  0.5143 -0.3575
 8653TIP3    H147374   1.190   1.118  11.436  0.1124  0.6869 -0.5069
 8653TIP3    H247375   1.274   1.085  11.558  0.6062  1.2421 -0.6925
 8654TIP3   OH247376   5.580   2.237   2.899  0.1310  0.6673  0.0790
 8654TIP3    H147377   5.672   2.264   2.897  0.3190  0.2177  1.6449
 8654TIP3    H247378   5.535   2.309   2.943 -0.2683  0.8862 -0.6872
 8655TIP3   OH247379   0.808   0.242  13.592  0.5599 -0.5544  0.0904
 8655TIP3    H147380   0.757   0.173  13.635 -1.0989  0.2679 -0.4896
 8655TIP3    H247381   0.778   0.240  13.501  1.9466 -0.3810 -0.3737
 8656TIP3   OH247382   0.991   2.293  12.108  0.8609 -0.1174 -0.1907
 8656TIP3    H147383   1.004   2.336  12.193  0.7827 -2.1415  0.8778
 8656TIP3    H247384   0.990   2.365  12.045  0.2317  1.4967  1.5916
 8657TIP3   OH247385   3.814   0.028  14.178 -0.4030  0.0482  0.3402
 8657TIP3    H147386   3.816   0.121  14.158  0.7904  0.5511  2.6394
 8657TIP3    H247387   3.731   0.014  14.223 -1.5052 -0.4209 -1.7713
 8658TIP3   OH247388   6.383   2.290  13.498 -0.3855  0.1138  0.0415
 8658TIP3    H147389   6.322   2.241  13.553 -0.4630 -1.1967 -1.1920
 8658TIP3    H247390   6.327   2.340  13.439 -0.2959  1.2497  0.9041
 8659TIP3   OH247391   3.297   4.021   1.305 -0.6130  0.0750  0.5299
 8659TIP3    H147392   3.279   3.982   1.391 -0.4522 -0.0651  0.5008
 8659TIP3    H247393   3.299   3.947   1.245 -1.4293  0.2480  0.2821
 8660TIP3   OH247394   4.673   3.997   2.414 -0.0462 -0.6152 -0.1804
 8660TIP3    H147395   4.747   3.952   2.456 -0.5559 -1.3515 -0.0549
 8660TIP3    H247396   4.607   3.928   2.402  0.1109 -0.4403 -2.2557
 8661TIP3   OH247397   3.571   1.202   0.471  0.2810  0.0046 -0.3537
 8661TIP3    H147398   3.528   1.193   0.556 -1.8272 -2.2055 -1.6010
 8661TIP3    H247399   3.499   1.205   0.408  1.8813 -1.5080 -2.2981
 8662TIP3   OH247400   1.806   6.777  12.403  0.0031 -0.4787  0.3698
 8662TIP3    H147401   1.810   6.692  12.360  0.2853 -0.5606  0.5536
 8662TIP3    H247402   1.774   6.758  12.491 -0.8803 -0.2728  0.1020
 8663TIP3   OH247403   4.581   4.926  16.665  0.3135  0.0583 -0.6879
 8663TIP3    H147404   4.572   4.945  16.758 -0.3974 -1.1651 -0.4905
 8663TIP3    H247405   4.567   5.010  16.621  0.1965  0.5456  0.2867
 8664TIP3   OH247406   1.026   5.868   3.565  0.1386 -0.0894  0.0809
 8664TIP3    H147407   1.091   5.805   3.534 -1.1417 -2.2528  1.6951
 8664TIP3    H247408   0.946   5.844   3.518 -0.3889  0.2553  0.8104
 8665TIP3   OH247409   5.115   5.555   0.446 -0.4121 -0.0425 -0.3403
 8665TIP3    H147410   5.126   5.638   0.399  0.5113 -0.0168 -0.1054
 8665TIP3    H247411   5.076   5.580   0.530 -0.5656  0.1013 -0.4543
 8666TIP3   OH247412   4.906   2.527  11.159  0.1480  0.3085  0.1330
 8666TIP3    H147413   4.993   2.491  11.145 -1.0759 -1.9079 -2.1458
 8666TIP3    H247414   4.879   2.492  11.245  1.1868  0.3710  0.4897
 8667TIP3   OH247415   1.670   1.554  14.544 -0.4633  0.3417 -0.1394
 8667TIP3    H147416   1.654   1.621  14.610  1.5392  0.1850  0.5341
 8667TIP3    H247417   1.760   1.571  14.514  0.3644 -2.5138  0.6258
 8668TIP3   OH247418   4.447   1.054  13.382 -0.0912  0.2741  0.6014
 8668TIP3    H147419   4.414   0.973  13.344  0.2997 -0.7828  2.4158
 8668TIP3    H247420   4.451   1.036  13.476  1.5176  1.8476  0.8676
 8669TIP3   OH247421   3.000   0.606   3.755 -0.2702  0.0211 -0.3481
 8669TIP3    H147422   3.064   0.629   3.823 -1.7444 -2.9002  2.1198
 8669TIP3    H247423   3.053   0.591   3.677  1.9949 -1.2361  1.3608
 8670TIP3   OH247424   6.130   1.185   5.449 -0.3056  0.3908 -0.0748
 8670TIP3    H147425   6.135   1.235   5.368 -1.7389  1.4363  0.4602
 8670TIP3    H247426   6.129   1.251   5.518 -2.2342 -0.3494  0.6441
 8671TIP3   OH247427   3.884   6.100   1.982 -0.0618  0.1172 -0.1146
 8671TIP3    H147428   3.791   6.100   1.959 -0.1493  1.0202  0.2327
 8671TIP3    H247429   3.907   6.192   1.992  1.0804 -0.0430 -1.0031
 8672TIP3   OH247430   6.507   5.641  10.684  0.3257 -0.1345  0.3759
 8672TIP3    H147431   6.513   5.674  10.595  0.2341  0.3853  0.5597
 8672TIP3    H247432   6.464   5.712  10.733 -2.1458 -1.5035  0.2679
 8673TIP3   OH247433   3.280   5.408   2.876  0.0522  0.2969  0.5182
 8673TIP3    H147434   3.302   5.452   2.958 -0.5248  0.6522  0.4823
 8673TIP3    H247435   3.184   5.413   2.870 -0.0114 -0.8680  0.4618
 8674TIP3   OH247436   3.843   5.246   3.785 -0.0826 -0.0090  0.7683
 8674TIP3    H147437   3.781   5.193   3.835  0.2256 -1.5313 -0.4209
 8674TIP3    H247438   3.851   5.327   3.835 -0.1848 -1.2675  2.9218
 8675TIP3   OH247439   1.914   4.680   3.411 -0.1306  0.2005  0.2172
 8675TIP3    H147440   1.864   4.737   3.470  0.6386 -1.1604  2.2312
 8675TIP3    H247441   1.927   4.733   3.332 -1.3920  1.9749  1.1602
 8676TIP3   OH247442   2.025   4.556  16.093  0.1584  0.3574 -0.5979
 8676TIP3    H147443   2.059   4.496  16.026  0.9099  2.1978 -1.8969
 8676TIP3    H247444   2.077   4.537  16.171  0.0009 -1.0645 -0.8220
 8677TIP3   OH247445   4.547   4.684  14.043  0.0327 -0.0735  0.2756
 8677TIP3    H147446   4.452   4.672  14.051 -0.0816 -0.4162 -1.4230
 8677TIP3    H247447   4.563   4.687  13.949  1.5569  1.2590  0.5592
 8678TIP3   OH247448   4.944   5.485  14.471  0.2485 -0.5386  0.0862
 8678TIP3    H147449   4.852   5.515  14.469  1.1628  2.4623 -0.0263
 8678TIP3    H247450   4.947   5.424  14.544 -1.6747 -0.0372  0.6370
 8679TIP3   OH247451   0.161   1.080  13.842  0.1904 -0.3695  0.7864
 8679TIP3    H147452   0.158   0.993  13.802  1.1436 -0.2163  0.3894
 8679TIP3    H247453   0.101   1.074  13.917  0.8491 -1.6095  1.2255
 8680TIP3   OH247454   3.929   1.562   3.294 -0.3722  0.0319 -0.0962
 8680TIP3    H147455   4.018   1.551   3.326 -0.9657 -0.8057  1.3202
 8680TIP3    H247456   3.900   1.645   3.331 -0.7954 -0.5676  0.9284
 8681TIP3   OH247457   4.868   6.312  13.840  0.1856  0.0115  0.1674
 8681TIP3    H147458   4.915   6.331  13.921  0.1015  0.5588  0.0890
 8681TIP3    H247459   4.820   6.393  13.821  0.6264  0.0738 -0.7102
 8682TIP3   OH247460   0.584   2.585  13.699 -0.0658  0.3769 -0.6145
 8682TIP3    H147461   0.558   2.603  13.789  0.1552  3.7425 -1.1707
 8682TIP3    H247462   0.679   2.585  13.701 -0.0612  0.2368 -0.8095
 8683TIP3   OH247463   0.980   3.841   5.150 -0.0968  0.2109 -0.2448
 8683TIP3    H147464   0.981   3.750   5.121  1.2072  0.4604 -1.0583
 8683TIP3    H247465   0.977   3.836   5.245  1.5420 -0.7266 -0.2115
 8684TIP3   OH247466   5.569   3.170   6.627 -0.2331  0.2812  0.3769
 8684TIP3    H147467   5.496   3.151   6.568 -0.5432  2.0510  0.1646
 8684TIP3    H247468   5.582   3.265   6.620 -0.6061  0.5994  3.5376
 8685TIP3   OH247469   4.380   6.328  13.278 -0.0817 -0.2458  0.5536
 8685TIP3    H147470   4.311   6.389  13.304 -0.7458 -0.0496 -1.5660
 8685TIP3    H247471   4.334   6.244  13.265  0.0923 -0.1725 -0.6185
 8686TIP3   OH247472   6.336   1.056   6.339  0.3658 -0.2462 -0.3020
 8686TIP3    H147473   6.425   1.040   6.370 -0.2316  0.0139  1.6114
 8686TIP3    H247474   6.283   0.989   6.382 -0.3233 -0.5393 -1.6060
 8687TIP3   OH247475   3.213   5.610   1.132  0.1751  0.6565 -0.7316
 8687TIP3    H147476   3.173   5.591   1.216  0.0272  1.3196 -0.6471
 8687TIP3    H247477   3.251   5.698   1.142  2.2717 -0.2226 -0.5755
 8688TIP3   OH247478   5.020   2.251  10.632 -0.3256 -0.1999 -0.2008
 8688TIP3    H147479   5.025   2.257  10.536  1.5214  1.4377 -0.0361
 8688TIP3    H247480   5.109   2.228  10.659 -0.5624  0.4854  1.1969
 8689TIP3   OH247481   1.961   0.102   6.048 -0.3630  0.2854 -0.0476
 8689TIP3    H147482   1.932   0.011   6.053  2.7635 -0.7948 -0.7135
 8689TIP3    H247483   1.995   0.122   6.135 -2.0236  1.2069  0.4187
 8690TIP3   OH247484   1.570   0.266  13.709 -0.1828 -0.0251 -0.4037
 8690TIP3    H147485   1.491   0.318  13.699 -1.1383 -1.3965 -0.0369
 8690TIP3    H247486   1.543   0.189  13.759  1.2025 -0.9140 -0.9927
 8691TIP3   OH247487   0.401   6.056   1.307 -0.4060  0.4316  0.0193
 8691TIP3    H147488   0.351   6.018   1.235  1.0646  2.6579 -2.2381
 8691TIP3    H247489   0.363   6.017   1.385 -1.8983 -2.2250 -1.9434
 8692TIP3   OH247490   1.732   2.356   4.090 -0.2560  0.1801 -0.3828
 8692TIP3    H147491   1.800   2.292   4.108 -0.5522  0.3789  1.6519
 8692TIP3    H247492   1.766   2.438   4.128 -0.6546  0.7990 -1.3516
 8693TIP3   OH247493   4.844   2.646   1.965  0.3226 -0.4211  0.9448
 8693TIP3    H147494   4.927   2.647   2.012  1.1189 -2.9305 -0.3198
 8693TIP3    H247495   4.865   2.674   1.876 -0.5881  1.0329  1.1656
 8694TIP3   OH247496   3.585   5.056  14.600  0.4827 -0.1435 -0.6012
 8694TIP3    H147497   3.627   5.140  14.581  1.1599 -0.5197 -0.7805
 8694TIP3    H247498   3.524   5.043  14.527  1.6865 -0.6647 -1.5408
 8695TIP3   OH247499   5.683   5.599  16.218  0.2155  0.1667 -1.0914
 8695TIP3    H147500   5.698   5.693  16.229  0.2529  0.5023 -3.7688
 8695TIP3    H247501   5.610   5.593  16.156  1.3024 -1.5681 -2.2537
 8696TIP3   OH247502   5.753   3.782   4.916 -0.2507  0.2411 -0.0362
 8696TIP3    H147503   5.713   3.864   4.944 -0.0432  0.5555 -0.6496
 8696TIP3    H247504   5.679   3.724   4.898 -0.4352  0.8813 -1.3501
 8697TIP3   OH247505   6.526   5.159  15.065  0.1319 -0.1475  0.3147
 8697TIP3    H147506   6.490   5.105  15.135  1.0880 -0.1858  0.7773
 8697TIP3    H247507   6.606   5.114  15.038 -1.1846 -1.1249 -2.0719
 8698TIP3   OH247508   6.750   6.137  14.107 -0.4797  0.0282 -0.1496
 8698TIP3    H147509   6.824   6.152  14.049 -0.0617  3.3104  1.1072
 8698TIP3    H247510   6.683   6.199  14.077 -0.5567  1.2114  2.2662
 8699TIP3   OH247511   3.196   0.417  17.199  0.6773  0.4953  0.0644
 8699TIP3    H147512   3.191   0.321  17.192 -1.5587  0.4740  1.3325
 8699TIP3    H247513   3.169   0.436  17.289 -1.2552  2.4290 -0.8724
 8700TIP3   OH247514   6.155   0.200  14.486 -0.2860 -0.1002 -0.4180
 8700TIP3    H147515   6.177   0.157  14.568 -1.9899 -4.3340 -2.0472
 8700TIP3    H247516   6.071   0.243  14.503  0.4390  0.9283  0.6378
 8701TIP3   OH247517   6.020   0.088   0.810 -0.0309 -0.1598 -0.1115
 8701TIP3    H147518   5.975   0.004   0.800 -1.2593  0.6006 -1.1336
 8701TIP3    H247519   6.040   0.115   0.720  2.7719 -0.6128  0.3164
 8702TIP3   OH247520   5.853   5.576  11.591  0.0621 -0.2379  0.0779
 8702TIP3    H147521   5.896   5.650  11.634 -1.1540  0.2230  0.5104
 8702TIP3    H247522   5.781   5.553  11.649 -0.6416 -0.6283 -0.9441
 8703TIP3   OH247523   6.327   1.136   1.067 -0.5620 -0.0549 -0.2271
 8703TIP3    H147524   6.241   1.179   1.065 -1.3174 -1.5464 -0.4693
 8703TIP3    H247525   6.332   1.097   1.154 -0.3422 -0.4169 -0.4024
 8704TIP3   OH247526   4.979   4.799   6.207 -0.1959  0.3992  0.3466
 8704TIP3    H147527   4.931   4.812   6.289  0.6743 -0.8934  1.0675
 8704TIP3    H247528   5.069   4.824   6.227 -0.1268  0.8130 -0.4350
 8705TIP3   OH247529   1.009   3.102  11.906  0.7810  0.7362 -0.7613
 8705TIP3    H147530   0.967   3.142  11.983  2.5948  2.3577 -0.5845
 8705TIP3    H247531   0.950   3.030  11.882 -0.3819  0.8832  1.4752
 8706TIP3   OH247532   4.097   4.092  13.550 -0.6521  0.0879  0.3804
 8706TIP3    H147533   4.151   4.171  13.554  2.1391 -1.7200 -0.2294
 8706TIP3    H247534   4.070   4.086  13.458  0.2660 -0.3720  0.1338
 8707TIP3   OH247535   3.395   1.735   4.086  0.0672 -0.6743  0.0388
 8707TIP3    H147536   3.302   1.756   4.080  0.5684  1.2092 -1.6423
 8707TIP3    H247537   3.437   1.816   4.113  1.5058 -0.7072 -1.9238
 8708TIP3   OH247538   5.217   1.731  12.939 -0.0065  0.0456 -0.3406
 8708TIP3    H147539   5.225   1.640  12.970 -0.6201 -0.0220 -0.3781
 8708TIP3    H247540   5.170   1.724  12.856  2.1626  0.1822 -1.5959
 8709TIP3   OH247541   2.484   5.396   4.258  0.5541  0.3034 -0.4225
 8709TIP3    H147542   2.433   5.411   4.338 -0.4451  0.6158 -1.1178
 8709TIP3    H247543   2.466   5.472   4.203  1.9431  0.5183 -0.5959
 8710TIP3   OH247544   3.042   2.063  16.779  0.1588 -0.5918  1.0877
 8710TIP3    H147545   3.019   1.982  16.734 -1.7964  1.6604 -2.1265
 8710TIP3    H247546   3.137   2.068  16.773  0.1195 -1.6021 -0.5698
 8711TIP3   OH247547   4.046   2.363  14.719 -0.2151  0.2220  0.2045
 8711TIP3    H147548   3.971   2.405  14.676 -0.0705  0.3993  0.1241
 8711TIP3    H247549   4.119   2.375  14.658  0.1837  1.2099  0.8645
 8712TIP3   OH247550   2.890   0.533   1.839  0.5572 -0.1839 -0.3754
 8712TIP3    H147551   2.831   0.531   1.764  1.9828  0.0608 -1.5060
 8712TIP3    H247552   2.921   0.443   1.848 -0.8265 -0.5612  0.9209
 8713TIP3   OH247553   2.933   0.885   1.024  0.2456  0.3613 -0.5083
 8713TIP3    H147554   2.855   0.830   1.016  1.2569 -1.0596 -0.6580
 8713TIP3    H247555   2.977   0.855   1.103  0.1845  1.7706  0.0807
 8714TIP3   OH247556   6.531   3.632  14.729 -0.8913 -0.5928  0.4152
 8714TIP3    H147557   6.598   3.566  14.748 -0.4505 -0.5618 -0.9478
 8714TIP3    H247558   6.580   3.715  14.726 -0.8495 -0.6537 -1.2585
 8715TIP3   OH247559   1.044   3.277   1.827 -0.0181 -0.2110  0.0921
 8715TIP3    H147560   1.001   3.281   1.913  0.8907 -0.3753  0.5542
 8715TIP3    H247561   0.975   3.245   1.768 -0.5094 -0.5612  0.8439
 8716TIP3   OH247562   0.810   2.105  11.932  0.3956  0.2132 -0.6711
 8716TIP3    H147563   0.716   2.120  11.945  0.3177 -0.5165 -0.3595
 8716TIP3    H247564   0.832   2.158  11.856 -0.2669  0.4135 -0.7295
 8717TIP3   OH247565   2.931   6.540  12.254 -0.5194  0.7357  0.1593
 8717TIP3    H147566   2.869   6.532  12.181 -1.2168 -0.0829  0.8231
 8717TIP3    H247567   3.014   6.563  12.213 -0.9154  0.3093 -0.8889
 8718TIP3   OH247568   2.556   1.879  14.043 -0.0155 -0.1145  0.4382
 8718TIP3    H147569   2.596   1.799  14.009  0.0872  0.8279 -1.7287
 8718TIP3    H247570   2.624   1.946  14.034 -0.9010  0.7363 -0.0690
 8719TIP3   OH247571   5.237   5.971  15.587  0.3775  0.1947 -0.0512
 8719TIP3    H147572   5.321   5.926  15.598 -0.8561 -2.1906 -0.1820
 8719TIP3    H247573   5.227   6.022  15.667  2.4291  1.3555 -0.4873
 8720TIP3   OH247574   3.558   1.221   5.167  1.0110 -0.7710  0.2084
 8720TIP3    H147575   3.618   1.241   5.239  0.7530  0.8519 -0.0197
 8720TIP3    H247576   3.471   1.232   5.204  0.8766 -0.2574 -0.2510
 8721TIP3   OH247577   2.944   2.407  10.541 -0.1101 -0.0654 -0.1743
 8721TIP3    H147578   2.890   2.480  10.570 -2.3156 -1.6809 -0.1305
 8721TIP3    H247579   2.891   2.329  10.558  1.9775 -1.6507 -0.7121
 8722TIP3   OH247580   5.657   1.553  14.145  0.5991 -0.3028 -0.6504
 8722TIP3    H147581   5.594   1.516  14.206  0.5977  2.7737  1.2748
 8722TIP3    H247582   5.724   1.484  14.135 -0.9303 -1.9942  0.4392
 8723TIP3   OH247583   2.862   3.613   1.290 -0.4688 -0.2350 -0.1668
 8723TIP3    H147584   2.872   3.690   1.346 -2.6663 -0.0234 -0.0383
 8723TIP3    H247585   2.842   3.542   1.351 -0.5734 -0.4697 -0.4735
 8724TIP3   OH247586   1.205   2.026   5.458 -0.1496 -0.1620  0.2993
 8724TIP3    H147587   1.201   2.083   5.535  0.8140  0.1619  0.1145
 8724TIP3    H247588   1.164   1.944   5.486 -2.3946  0.9273  0.2824
 8725TIP3   OH247589   3.824   2.124  15.654 -0.0613  0.0021 -0.7685
 8725TIP3    H147590   3.874   2.108  15.573  0.7772  0.0701 -0.2736
 8725TIP3    H247591   3.825   2.219  15.665 -1.9093  0.1496 -1.7490
 8726TIP3   OH247592   1.903   5.861   3.094 -0.3449 -0.3870  0.0893
 8726TIP3    H147593   1.820   5.904   3.115 -1.2727 -1.9732 -0.2211
 8726TIP3    H247594   1.930   5.821   3.177 -0.7982 -1.3306 -0.2037
 8727TIP3   OH247595   5.060   4.065  11.565  0.2192 -0.2098 -0.2819
 8727TIP3    H147596   5.130   4.129  11.579 -0.5027  0.9451 -1.7671
 8727TIP3    H247597   5.028   4.084  11.477 -1.3755 -1.2998  0.0502
 8728TIP3   OH247598   3.326   6.100  14.266  0.2962  0.0367 -0.4555
 8728TIP3    H147599   3.377   6.169  14.308 -0.9450  0.8268 -0.2302
 8728TIP3    H247600   3.356   6.020  14.309  0.1599  0.6668  0.8369
 8729TIP3   OH247601   3.329   4.048  13.969 -0.1270  0.0358  0.1453
 8729TIP3    H147602   3.348   3.966  14.015  0.8615  0.1881  0.0144
 8729TIP3    H247603   3.317   4.023  13.878  3.5707  0.4377 -0.5245
 8730TIP3   OH247604   2.466   6.159   4.220  0.4289  0.6188  0.3101
 8730TIP3    H147605   2.536   6.165   4.285  1.6197 -0.7317 -0.8165
 8730TIP3    H247606   2.500   6.208   4.144 -0.8959  2.0806  0.6417
 8731TIP3   OH247607   5.466   3.821  14.780 -0.0177  0.2035 -0.4130
 8731TIP3    H147608   5.412   3.900  14.786  1.2161  1.0171  0.2156
 8731TIP3    H247609   5.491   3.803  14.870  0.1941 -0.5745 -0.6283
 8732TIP3   OH247610   5.758   1.082   3.323  0.1881  0.5989 -0.4631
 8732TIP3    H147611   5.738   1.009   3.381 -1.1034  0.6447 -0.8327
 8732TIP3    H247612   5.672   1.117   3.298  0.7968  2.4144 -0.0727
 8733TIP3   OH247613   5.325   1.328  14.614  0.3257  0.0063 -0.3111
 8733TIP3    H147614   5.310   1.393  14.683 -0.5279 -0.0916 -0.4012
 8733TIP3    H247615   5.420   1.331  14.599  0.5087  0.0528  0.8356
 8734TIP3   OH247616   1.456   3.659  11.644  0.5996 -0.0729  0.4225
 8734TIP3    H147617   1.453   3.754  11.634 -1.0762 -0.0782  0.7440
 8734TIP3    H247618   1.542   3.634  11.612  1.0978  1.5688  0.4469
 8735TIP3   OH247619   0.186   3.221   0.879 -0.3489 -0.1665  0.3632
 8735TIP3    H147620   0.153   3.220   0.789  0.7689  1.0762 -0.0701
 8735TIP3    H247621   0.226   3.134   0.890  0.4939  0.0634 -0.7200
 8736TIP3   OH247622   1.265   4.352  13.167  0.4445 -0.2821  0.1379
 8736TIP3    H147623   1.229   4.291  13.231 -0.5341  0.0477 -0.0909
 8736TIP3    H247624   1.328   4.300  13.116  0.3614 -0.8341  0.5987
 8737TIP3   OH247625   0.875   3.125   3.897 -0.1979  0.0255 -0.4163
 8737TIP3    H147626   0.834   3.202   3.935 -0.5918 -0.0652 -0.6579
 8737TIP3    H247627   0.854   3.129   3.804  0.7128  0.2104 -0.6254
 8738TIP3   OH247628   2.660   6.179   0.827  1.1500  0.3688  0.2069
 8738TIP3    H147629   2.620   6.258   0.863 -0.6732 -1.0083  1.2571
 8738TIP3    H247630   2.724   6.153   0.894  0.7762  0.1758  0.4873
 8739TIP3   OH247631   1.285   2.172  14.348 -0.0686  0.6291  0.3590
 8739TIP3    H147632   1.235   2.097  14.316  0.0320  0.6538  0.1405
 8739TIP3    H247633   1.282   2.235  14.276  1.4353  0.0828 -0.2295
 8740TIP3   OH247634   0.779   1.712  15.120  0.3658 -0.1121  0.0728
 8740TIP3    H147635   0.729   1.712  15.202 -0.5896  0.3659 -0.4955
 8740TIP3    H247636   0.869   1.692  15.146  0.5852  2.5197  1.5782
 8741TIP3   OH247637   3.233   2.125   5.161  0.6452 -0.0810 -0.0013
 8741TIP3    H147638   3.277   2.169   5.234 -0.8356  0.6916  0.4445
 8741TIP3    H247639   3.171   2.066   5.203  1.1004 -1.0125 -0.6262
 8742TIP3   OH247640   4.495   4.790   2.667 -0.0962  0.3541 -0.1594
 8742TIP3    H147641   4.526   4.865   2.719 -1.5456 -0.8432  2.5581
 8742TIP3    H247642   4.410   4.819   2.632 -0.3577  0.2250  0.3606
 8743TIP3   OH247643   0.460   4.520   3.754 -0.2423  0.2015  0.0537
 8743TIP3    H147644   0.391   4.517   3.687 -2.0148  1.7531  1.7682
 8743TIP3    H247645   0.449   4.605   3.796  1.9968 -0.0275  1.1504
 8744TIP3   OH247646   6.304   5.539   4.413  0.6391  0.2708  0.0828
 8744TIP3    H147647   6.274   5.594   4.341  0.5914  2.0084  1.3632
 8744TIP3    H247648   6.365   5.595   4.461  2.3272 -1.6051  0.1588
 8745TIP3   OH247649   0.429   1.885   3.495  0.4843  0.5159  0.1904
 8745TIP3    H147650   0.492   1.813   3.487  0.0807  0.2762 -0.9114
 8745TIP3    H247651   0.418   1.897   3.589 -0.2770 -1.6087  0.4033
 8746TIP3   OH247652   0.696   3.250  16.803  0.1753  0.1171 -0.0183
 8746TIP3    H147653   0.667   3.239  16.712 -1.1391 -1.6969  0.6024
 8746TIP3    H247654   0.762   3.182  16.815  1.0014  0.9298  0.1481
 8747TIP3   OH247655   1.551   6.062   6.184 -0.5355  0.1930  0.0044
 8747TIP3    H147656   1.622   6.115   6.221 -0.8125  1.0204 -0.6586
 8747TIP3    H247657   1.494   6.043   6.259 -0.6040  1.0893  0.1817
 8748TIP3   OH247658   0.547   2.253   4.381 -0.3142 -0.3572 -0.2839
 8748TIP3    H147659   0.495   2.256   4.461 -0.2152  0.7127 -0.2492
 8748TIP3    H247660   0.636   2.235   4.411 -0.2908 -0.0333 -0.1616
 8749TIP3   OH247661   6.025   0.163   6.043 -0.1427 -0.2130  0.6400
 8749TIP3    H147662   5.972   0.210   6.107  1.0281  0.5364  1.0781
 8749TIP3    H247663   6.031   0.221   5.968 -0.7580 -0.7093  0.2054
 8750TIP3   OH247664   5.932   3.396  10.853  0.1487  0.2145  0.0246
 8750TIP3    H147665   5.971   3.479  10.880  1.1214  0.5023 -2.2075
 8750TIP3    H247666   5.844   3.418  10.826  0.8299  0.7529 -1.8064
 8751TIP3   OH247667   6.468   4.659  12.017 -0.2251 -0.0211  0.2865
 8751TIP3    H147668   6.509   4.714  11.950  0.3206  0.2385  0.8335
 8751TIP3    H247669   6.524   4.581  12.021  0.1948  0.3106  0.9953
 8752TIP3   OH247670   5.409   5.623   4.271  0.3694 -0.4538  0.4724
 8752TIP3    H147671   5.370   5.595   4.188  1.0639 -2.5336  0.8155
 8752TIP3    H247672   5.425   5.716   4.259  0.8769 -0.8073 -1.9123
 8753TIP3   OH247673   1.732   2.724   1.391 -0.1295 -0.6826 -0.2216
 8753TIP3    H147674   1.685   2.653   1.434 -1.7665 -0.7370 -2.0181
 8753TIP3    H247675   1.820   2.689   1.376 -0.4949 -1.8146  0.1976
 8754TIP3   OH247676   6.634   5.351   0.637  1.0185 -0.2714 -0.0577
 8754TIP3    H147677   6.638   5.279   0.699  0.9817  0.6013  0.9685
 8754TIP3    H247678   6.544   5.382   0.642  1.0963  0.0013 -0.3061
 8755TIP3   OH247679   1.251   1.597   1.119 -0.3293 -0.5403 -0.6080
 8755TIP3    H147680   1.325   1.613   1.177  0.6532  0.4955 -2.1186
 8755TIP3    H247681   1.254   1.503   1.101 -0.4499 -0.8053  0.7559
 8756TIP3   OH247682   2.191   2.805  13.408 -0.6305 -0.2013 -0.5972
 8756TIP3    H147683   2.158   2.758  13.332  0.2092 -1.2973 -0.2913
 8756TIP3    H247684   2.214   2.737  13.471 -1.6357  0.7042  0.7811
 8757TIP3   OH247685   1.070   6.731  14.558 -0.6627  0.7659  0.0502
 8757TIP3    H147686   1.013   6.688  14.494  0.0921  0.3301 -0.3312
 8757TIP3    H247687   1.126   6.661  14.591 -0.1269  1.2585  0.1891
 8758TIP3   OH247688   5.507   4.332  12.434  0.3585 -0.0267 -0.0949
 8758TIP3    H147689   5.456   4.252  12.444  0.3513 -0.1248 -0.8711
 8758TIP3    H247690   5.534   4.331  12.342  1.1217  0.4052  0.1280
 8759TIP3   OH247691   3.865   6.119   1.641  0.0221 -0.0750 -0.1433
 8759TIP3    H147692   3.838   6.029   1.663  0.5791 -0.6477 -1.7164
 8759TIP3    H247693   3.959   6.121   1.657  0.3742 -0.3967 -2.0163
 8760TIP3   OH247694   3.447   3.195  10.977 -0.1868 -0.1373 -0.2191
 8760TIP3    H147695   3.394   3.211  10.899  0.5899  1.4444 -0.4303
 8760TIP3    H247696   3.496   3.276  10.990  0.2415 -0.6499  1.4850
 8761TIP3   OH247697   0.239   5.453  10.675  0.3849  0.5533  0.4463
 8761TIP3    H147698   0.215   5.525  10.617  1.0596  0.6392  0.2687
 8761TIP3    H247699   0.161   5.399  10.680  0.1074  0.9110  0.0029
 8762TIP3   OH247700   5.867   1.354  14.576  0.5888  0.0443  0.3538
 8762TIP3    H147701   5.951   1.365  14.532 -0.2793  1.8440 -0.9064
 8762TIP3    H247702   5.844   1.262  14.564  1.1846  0.1316 -1.4598
 8763TIP3   OH247703   5.520   0.082   3.141  0.2428  0.7057  0.5805
 8763TIP3    H147704   5.599   0.029   3.136 -0.0826  0.2677  0.1282
 8763TIP3    H247705   5.515   0.108   3.233  0.5064  0.1178  0.7621
 8764TIP3   OH247706   0.620   3.147   0.350  0.0557  1.0005  0.6760
 8764TIP3    H147707   0.632   3.087   0.276 -0.3038 -1.3844  2.4859
 8764TIP3    H247708   0.532   3.182   0.339 -0.0050  0.6524  0.0076
 8765TIP3   OH247709   6.223   1.222  13.660  0.2786 -0.3681 -0.3285
 8765TIP3    H147710   6.252   1.313  13.666  1.5811 -0.8647  1.1007
 8765TIP3    H247711   6.136   1.227  13.620 -0.2079  1.6086  0.9411
 8766TIP3   OH247712   0.954   5.033  16.831 -0.0414  0.2524 -0.5756
 8766TIP3    H147713   1.000   5.085  16.896 -0.7220  0.2178 -0.0598
 8766TIP3    H247714   0.995   4.946  16.837 -0.6607  0.0232  0.3900
 8767TIP3   OH247715   2.532   4.011   4.677 -0.2174 -0.1585  0.2601
 8767TIP3    H147716   2.554   4.099   4.645 -0.4692  0.0342  0.6133
 8767TIP3    H247717   2.531   3.957   4.598  0.3483  0.0692  0.0920
 8768TIP3   OH247718   4.124   3.866  15.550 -0.1344  0.4173 -0.4635
 8768TIP3    H147719   4.199   3.921  15.526  0.2026  0.0740 -0.1935
 8768TIP3    H247720   4.049   3.908  15.507  0.3545  0.2153 -1.5186
 8769TIP3   OH247721   1.944   2.269   1.417  0.5184 -0.2442 -0.8673
 8769TIP3    H147722   2.036   2.256   1.441  0.4794  0.1719 -0.4895
 8769TIP3    H247723   1.898   2.274   1.500  0.2070 -0.0616 -1.0496
 8770TIP3   OH247724   4.375   3.687  11.608  0.2957 -0.6577  0.0179
 8770TIP3    H147725   4.386   3.781  11.599  2.1814 -0.6731  1.8356
 8770TIP3    H247726   4.315   3.677  11.683 -0.1397 -0.8930 -0.3608
 8771TIP3   OH247727   4.804   0.451  14.474  0.0736  0.2087  0.2751
 8771TIP3    H147728   4.880   0.448  14.533 -0.2423 -0.5110  0.6503
 8771TIP3    H247729   4.794   0.544  14.453  2.3043  0.0874 -1.4012
 8772TIP3   OH247730   1.656   5.461   0.192  0.3769  0.3194  0.1441
 8772TIP3    H147731   1.562   5.449   0.182  0.0857  1.4416  1.4688
 8772TIP3    H247732   1.668   5.485   0.284  1.9271  0.4296 -0.0748
 8773TIP3   OH247733   0.870   1.621   3.955 -0.0633  0.8593 -0.0728
 8773TIP3    H147734   0.962   1.617   3.980 -0.0271  0.6572 -0.2368
 8773TIP3    H247735   0.826   1.560   4.014  0.0444  0.2724 -0.6012
 8774TIP3   OH247736   6.339   3.510  15.815  0.2470  0.2496  0.3249
 8774TIP3    H147737   6.285   3.533  15.739  2.7535  2.8664 -0.7761
 8774TIP3    H247738   6.373   3.423  15.794  0.5910  0.7728 -1.4501
 8775TIP3   OH247739   2.866   2.973   2.049  0.4249 -0.1552  0.0587
 8775TIP3    H147740   2.914   3.006   2.125 -0.6321  0.6032  0.4170
 8775TIP3    H247741   2.932   2.931   1.995  1.6188  1.5785  0.1294
 8776TIP3   OH247742   1.675   6.214  10.860  0.3276 -0.4153 -0.3573
 8776TIP3    H147743   1.768   6.227  10.880 -0.3608  0.9336  2.0730
 8776TIP3    H247744   1.636   6.301  10.869 -1.3071 -1.0987 -0.7264
 8777TIP3   OH247745   0.104   3.767   6.339 -0.8504  0.2755 -0.0613
 8777TIP3    H147746   0.194   3.770   6.370 -1.0763 -1.5252  0.8527
 8777TIP3    H247747   0.056   3.827   6.397 -0.7031 -0.7367  1.1271
 8778TIP3   OH247748   1.168   6.702   5.811 -0.2519 -0.4718  0.3934
 8778TIP3    H147749   1.231   6.733   5.876 -0.7530  0.3923  0.4733
 8778TIP3    H247750   1.204   6.618   5.781  2.3929  1.2966 -1.6235
 8779TIP3   OH247751   4.776   5.282   5.532 -0.4701 -0.1472 -0.2630
 8779TIP3    H147752   4.754   5.345   5.600 -4.3541 -0.6029 -1.0141
 8779TIP3    H247753   4.786   5.199   5.578 -0.4794  0.0304  0.0568
 8780TIP3   OH247754   1.933   6.715  15.026  0.1583  0.0729 -0.1921
 8780TIP3    H147755   1.909   6.802  14.995 -0.2846 -0.1295 -0.4173
 8780TIP3    H247756   1.947   6.726  15.120 -3.2390 -0.2989  0.4094
 8781TIP3   OH247757   1.208   0.339   0.862 -0.9033 -0.2776 -0.2687
 8781TIP3    H147758   1.206   0.285   0.783  1.8629  1.0828 -1.3511
 8781TIP3    H247759   1.177   0.425   0.833 -1.5807 -0.2449  0.5411
 8782TIP3   OH247760   2.321   0.641  11.485 -0.6122  0.1827 -0.0091
 8782TIP3    H147761   2.397   0.692  11.457  0.8532 -0.2915  2.9292
 8782TIP3    H247762   2.289   0.686  11.563 -0.4574 -2.2303  1.5085
 8783TIP3   OH247763   1.292   4.377   1.484  0.0593  0.6878 -0.1145
 8783TIP3    H147764   1.253   4.463   1.468 -0.2204  0.7499  0.8506
 8783TIP3    H247765   1.309   4.342   1.397 -2.3809  0.5479 -0.5835
 8784TIP3   OH247766   1.442   5.463  11.560  0.4132  0.0876  0.7276
 8784TIP3    H147767   1.378   5.417  11.506  0.4471  1.1510 -0.2497
 8784TIP3    H247768   1.481   5.395  11.615  0.1009 -0.9602 -0.3206
 8785TIP3   OH247769   6.351   1.601  11.004 -0.1933  0.1386  0.1113
 8785TIP3    H147770   6.300   1.681  10.992 -0.1665  0.0369 -0.7572
 8785TIP3    H247771   6.336   1.551  10.923 -1.3341 -1.3679  1.2227
 8786TIP3   OH247772   1.392   5.516  11.237 -0.3914 -0.0351  0.5480
 8786TIP3    H147773   1.486   5.519  11.258 -0.1357 -0.4497 -0.4915
 8786TIP3    H247774   1.386   5.555  11.149 -1.0800 -0.8231  0.2421
 8787TIP3   OH247775   0.431   3.020   4.436  0.3743 -0.0683  0.7525
 8787TIP3    H147776   0.490   3.047   4.507 -0.7703 -0.8126  2.0154
 8787TIP3    H247777   0.440   2.925   4.432 -1.2339 -0.2656  1.4248
 8788TIP3   OH247778   6.016   0.401   0.084  0.6918  0.2359  0.5153
 8788TIP3    H147779   6.015   0.361  -0.003 -0.6537  0.2002  0.5387
 8788TIP3    H247780   6.084   0.353   0.132  0.7442 -0.4059 -0.1996
 8789TIP3   OH247781   0.460   2.867   3.087 -0.0541 -0.1380 -0.1070
 8789TIP3    H147782   0.509   2.949   3.092 -0.0250 -0.1821  0.2910
 8789TIP3    H247783   0.513   2.810   3.031  0.4528 -0.2628  0.4949
 8790TIP3   OH247784   6.588   1.816  12.128 -0.0446  0.0707  0.5918
 8790TIP3    H147785   6.557   1.831  12.218 -0.4876  1.7417  0.1824
 8790TIP3    H247786   6.668   1.867  12.122 -0.5500  0.7644 -0.2670
 8791TIP3   OH247787   1.285   4.895   3.364  0.4018  0.1492  0.8858
 8791TIP3    H147788   1.224   4.847   3.308 -0.6824  1.6769  0.7120
 8791TIP3    H247789   1.353   4.925   3.305 -0.9667  2.1308  0.2489
 8792TIP3   OH247790   5.689   5.247   3.843 -0.0097  0.5473  0.2336
 8792TIP3    H147791   5.599   5.279   3.854 -0.9020 -1.5115 -0.7307
 8792TIP3    H247792   5.701   5.244   3.748 -0.3047 -2.7739  0.2451
 8793TIP3   OH247793   4.463   0.356  15.663 -0.7398  0.1848  0.3341
 8793TIP3    H147794   4.454   0.364  15.568  0.5268  1.5524  0.3021
 8793TIP3    H247795   4.518   0.431  15.688 -0.2882 -0.6839  2.0169
 8794TIP3   OH247796   1.656   2.595   4.588  0.2555  0.1649 -0.5158
 8794TIP3    H147797   1.692   2.524   4.641  0.1038  1.5870  1.5495
 8794TIP3    H247798   1.575   2.620   4.632 -0.2824  0.8717 -1.8631
 8795TIP3   OH247799   0.914   5.420   6.288 -0.0629 -0.5069 -0.2740
 8795TIP3    H147800   0.931   5.500   6.239 -0.3705 -1.2575 -1.6321
 8795TIP3    H247801   0.983   5.418   6.355 -0.6740  1.4004  0.4454
 8796TIP3   OH247802   0.077   4.548  16.974  0.3941 -0.5667  0.5173
 8796TIP3    H147803  -0.013   4.551  16.940  0.0161 -0.9842  1.4757
 8796TIP3    H247804   0.098   4.640  16.991  0.2662 -0.4384  0.0195
 8797TIP3   OH247805   3.007   1.002  13.353  0.5344  0.2396 -0.2444
 8797TIP3    H147806   2.968   0.921  13.388 -0.3276 -0.9971 -3.8336
 8797TIP3    H247807   2.934   1.063  13.348  0.9300  0.8459  1.3196
 8798TIP3   OH247808   3.608   2.239  10.918  0.2705 -0.2195  0.1943
 8798TIP3    H147809   3.658   2.161  10.894 -0.5247 -0.3409 -1.1677
 8798TIP3    H247810   3.533   2.206  10.967 -0.4043 -0.3949 -0.9272
 8799TIP3   OH247811   0.075   1.081   5.123  0.7187 -0.2755 -0.0035
 8799TIP3    H147812   0.077   1.175   5.105 -0.0081 -0.1348  0.6512
 8799TIP3    H247813   0.167   1.058   5.139  0.7468  0.5708  1.0961
 8800TIP3   OH247814   6.704   4.382  12.427 -0.0393 -0.0311 -0.1633
 8800TIP3    H147815   6.642   4.325  12.473  0.3736 -0.4113 -0.0713
 8800TIP3    H247816   6.741   4.438  12.495 -0.2000  0.1226 -0.2013
 8801TIP3   OH247817   4.459   0.915   0.268  0.0678 -0.0357 -0.4997
 8801TIP3    H147818   4.401   0.932   0.193  1.8452  0.1727 -1.8534
 8801TIP3    H247819   4.451   0.821   0.284 -0.8599  0.0363 -0.4752
 8802TIP3   OH247820   3.482   2.160  13.172 -0.2556 -0.0238 -0.1197
 8802TIP3    H147821   3.436   2.157  13.256 -3.7675 -1.5327 -1.9906
 8802TIP3    H247822   3.564   2.206  13.191 -1.6932  1.1211  3.7608
 8803TIP3   OH247823   4.043   3.961   5.160  0.6007 -0.8051  0.1653
 8803TIP3    H147824   4.119   3.980   5.215  0.2140 -2.2921  1.2673
 8803TIP3    H247825   3.981   3.919   5.220 -0.7409 -0.4159 -0.9176
 8804TIP3   OH247826   3.898   0.584  15.334 -0.5875 -0.4637  0.1544
 8804TIP3    H147827   3.829   0.600  15.270 -0.7197 -0.6598  0.2498
 8804TIP3    H247828   3.976   0.626  15.297 -0.7851 -0.1449  0.1045
 8805TIP3   OH247829   0.963   1.614   2.695 -0.2225  0.0323 -0.8678
 8805TIP3    H147830   1.057   1.619   2.712 -0.4231 -1.8591  1.0921
 8805TIP3    H247831   0.945   1.520   2.689 -2.2992  0.2809  0.7396
 8806TIP3   OH247832   2.509   5.814  16.394 -0.1014  0.6010 -0.1737
 8806TIP3    H147833   2.544   5.807  16.306  0.4179  0.3385  0.0481
 8806TIP3    H247834   2.426   5.860  16.384  0.6217  1.8258 -0.6358
 8807TIP3   OH247835   5.509   6.524   1.313  0.5935 -0.1879 -0.2156
 8807TIP3    H147836   5.467   6.479   1.387 -1.0154  0.4923 -0.6863
 8807TIP3    H247837   5.597   6.543   1.343  0.1081 -0.3694  1.3560
 8808TIP3   OH247838   4.770   6.770   4.637 -0.1837 -0.4960  0.1420
 8808TIP3    H147839   4.691   6.762   4.690  0.1243  1.4718  0.9446
 8808TIP3    H247840   4.814   6.848   4.671  1.3722 -0.7303 -1.2549
 8809TIP3   OH247841   3.753   5.564  17.044  0.4610 -0.2837  0.0745
 8809TIP3    H147842   3.773   5.501  17.114  2.2475 -1.1570 -1.1698
 8809TIP3    H247843   3.797   5.528  16.967  0.0623  1.6288 -1.0674
 8810TIP3   OH247844   5.864   4.798   0.736 -0.0494  0.3215  0.8709
 8810TIP3    H147845   5.856   4.827   0.645  0.5759  0.6678  0.9262
 8810TIP3    H247846   5.808   4.859   0.785 -0.1649  0.3091  0.7554
 8811TIP3   OH247847   3.887   6.562   1.120  0.2638 -0.2529 -0.1628
 8811TIP3    H147848   3.798   6.566   1.084 -0.6373  0.0546  2.0542
 8811TIP3    H247849   3.913   6.470   1.107 -0.1270 -0.2014 -1.3787
 8812TIP3   OH247850   3.887   3.668   0.980  0.4286  0.2998 -0.1049
 8812TIP3    H147851   3.941   3.611   0.924 -1.4607  0.4281 -2.1081
 8812TIP3    H247852   3.864   3.742   0.924  0.4946  1.6623  1.6207
 8813TIP3   OH247853   5.150   3.879   2.002 -0.3656 -0.0041 -0.4252
 8813TIP3    H147854   5.225   3.939   1.999  0.7628 -1.4165 -1.2544
 8813TIP3    H247855   5.124   3.869   1.911  0.2758 -1.7458 -0.4435
 8814TIP3   OH247856   1.614   2.653  15.696  0.1059  0.5136 -0.8019
 8814TIP3    H147857   1.682   2.701  15.743  0.2794  1.4869 -2.0031
 8814TIP3    H247858   1.538   2.712  15.695 -0.0610  0.2998 -1.2718
 8815TIP3   OH247859   3.855   0.214   4.331  0.2201  0.0663  0.1276
 8815TIP3    H147860   3.763   0.239   4.344 -0.3474 -1.4759 -0.7808
 8815TIP3    H247861   3.901   0.253   4.405 -1.3846 -0.2792  1.3378
 8816TIP3   OH247862   2.258   0.664  12.128  0.1907 -0.3701  0.1975
 8816TIP3    H147863   2.252   0.590  12.188 -1.5360 -1.9897 -1.8867
 8816TIP3    H247864   2.347   0.660  12.093  0.1121 -1.4788  0.1020
 8817TIP3   OH247865   1.283   3.055  11.796 -0.1499 -0.1160 -0.0279
 8817TIP3    H147866   1.304   3.081  11.886  0.8001 -0.8397 -0.0392
 8817TIP3    H247867   1.188   3.065  11.790 -0.2594 -0.3727  1.1547
 8818TIP3   OH247868   3.855   4.066  12.210  0.1542  0.2839  0.4345
 8818TIP3    H147869   3.854   4.024  12.124 -1.2464  0.1525  0.5038
 8818TIP3    H247870   3.916   4.014  12.262 -0.9378 -1.1728  0.2713
 8819TIP3   OH247871   6.544   5.025   0.242  0.5830  0.7019 -0.4014
 8819TIP3    H147872   6.623   5.037   0.189  0.5284  0.0523 -0.6380
 8819TIP3    H247873   6.563   5.071   0.324  1.5648 -0.1975 -0.1012
 8820TIP3   OH247874   1.401   5.693   5.575 -0.2636  0.0741 -0.3435
 8820TIP3    H147875   1.464   5.743   5.627  1.8568 -0.3571 -2.4280
 8820TIP3    H247876   1.389   5.745   5.495  0.4261 -1.7325 -1.6522
 8821TIP3   OH247877   5.739   0.108  11.430  0.3732  0.0142  0.0560
 8821TIP3    H147878   5.809   0.046  11.406  0.5227  0.0976  0.2709
 8821TIP3    H247879   5.758   0.186  11.378  0.1530 -0.1385 -0.2557
 8822TIP3   OH247880   3.677   6.390  12.825 -0.2378 -0.2377 -0.0017
 8822TIP3    H147881   3.693   6.298  12.806 -2.4811 -0.5452 -0.4535
 8822TIP3    H247882   3.671   6.394  12.920  0.2379 -0.4680  0.0440
 8823TIP3   OH247883   3.365   3.583  16.247  0.1249  0.0691 -0.4289
 8823TIP3    H147884   3.434   3.643  16.276  1.3502 -0.4612 -2.1577
 8823TIP3    H247885   3.299   3.639  16.206  1.6953  0.2056 -2.8671
 8824TIP3   OH247886   2.981   4.305  12.203 -0.2445 -0.2503 -0.3771
 8824TIP3    H147887   3.060   4.342  12.243 -0.0476 -0.0433 -0.9492
 8824TIP3    H247888   2.920   4.296  12.276  0.4851 -0.9016  0.1661
 8825TIP3   OH247889   5.952   0.437   1.020  0.6103 -0.2769  0.2595
 8825TIP3    H147890   5.922   0.366   0.963  1.0584 -0.1523 -0.1393
 8825TIP3    H247891   5.884   0.445   1.087  1.0900 -1.8486  0.9651
 8826TIP3   OH247892   0.810   2.855   5.720  0.0499  0.1266  0.7801
 8826TIP3    H147893   0.785   2.793   5.789  1.7773 -0.2003  1.1389
 8826TIP3    H247894   0.809   2.940   5.763 -0.0917  0.0719  0.8856
 8827TIP3   OH247895   2.724   1.276  16.265  0.1365 -0.4952 -0.2356
 8827TIP3    H147896   2.638   1.241  16.245  0.3756 -1.7986  0.9457
 8827TIP3    H247897   2.758   1.218  16.333  1.3075  0.9292  0.4114
 8828TIP3   OH247898   4.291   0.609   4.028  0.2593 -0.1928  0.3419
 8828TIP3    H147899   4.368   0.552   4.033  0.3702 -0.1739 -0.9208
 8828TIP3    H247900   4.217   0.553   4.049  0.3278 -0.9156 -1.2392
 8829TIP3   OH247901   2.895   1.863  15.229  0.1345 -0.1949 -0.1080
 8829TIP3    H147902   2.814   1.898  15.192 -0.1049 -1.3849 -0.7540
 8829TIP3    H247903   2.885   1.768  15.223  1.2188 -0.3672  0.6015
 8830TIP3   OH247904   0.173   1.977  12.110  0.2601 -0.1480 -0.0107
 8830TIP3    H147905   0.244   1.914  12.100 -2.1609 -2.6248 -2.4122
 8830TIP3    H247906   0.125   1.947  12.187  1.6129  1.4104  1.4912
 8831TIP3   OH247907   1.777   4.090  16.581  0.5856  0.4530  0.4052
 8831TIP3    H147908   1.825   4.171  16.563  0.0684  0.1990 -2.3335
 8831TIP3    H247909   1.694   4.101  16.534 -0.5910 -0.5659  2.2179
 8832TIP3   OH247910   3.804   4.523   0.895  0.6490 -0.2922  0.2876
 8832TIP3    H147911   3.898   4.541   0.893  0.9531 -1.7356  0.6995
 8832TIP3    H247912   3.797   4.431   0.872 -0.8807  0.4401 -2.2908
 8833TIP3   OH247913   2.935   6.095  16.589  0.0890 -0.2140 -0.1860
 8833TIP3    H147914   3.006   6.124  16.646  1.9982 -0.5299 -2.3367
 8833TIP3    H247915   2.962   6.008  16.560 -2.0175 -1.0677  0.3107
 8834TIP3   OH247916   0.748   5.845   4.913  1.0994  0.0394 -0.2881
 8834TIP3    H147917   0.829   5.897   4.916 -0.2611  2.2940 -1.2133
 8834TIP3    H247918   0.752   5.798   4.830  3.5722 -3.4896  1.7215
 8835TIP3   OH247919   0.910   0.060  12.982  0.7142  0.5571  0.3171
 8835TIP3    H147920   0.871   0.143  13.011  2.0376  1.2814  0.0548
 8835TIP3    H247921   0.984   0.086  12.927 -1.3292 -0.7848 -3.2025
 8836TIP3   OH247922   3.671   6.181   5.550  0.2188  0.5590  0.4907
 8836TIP3    H147923   3.712   6.232   5.480 -0.9347  0.9361  0.0753
 8836TIP3    H247924   3.632   6.106   5.505 -2.0072  1.6976  0.4904
 8837TIP3   OH247925   2.977   3.864   1.151  0.2050 -0.6918  0.7368
 8837TIP3    H147926   2.996   3.882   1.243  0.3350 -0.5958  0.6924
 8837TIP3    H247927   2.990   3.769   1.142  0.5416 -0.6452  0.7364
 8838TIP3   OH247928   1.349   0.509   0.561  0.2514 -0.2428  0.4010
 8838TIP3    H147929   1.344   0.414   0.574 -0.3661 -0.5747 -2.1201
 8838TIP3    H247930   1.442   0.526   0.549  0.2294 -0.7047 -0.4305
 8839TIP3   OH247931   4.723   2.371   3.610  0.0790  0.2633  0.1218
 8839TIP3    H147932   4.801   2.332   3.570 -0.3828  1.0320 -1.6091
 8839TIP3    H247933   4.654   2.306   3.597 -0.1039  0.5716 -0.4823
 8840TIP3   OH247934   4.463   3.975  13.598 -0.5209 -0.1042 -0.2443
 8840TIP3    H147935   4.516   3.897  13.579 -0.2299 -0.5421  2.1757
 8840TIP3    H247936   4.424   3.957  13.684 -0.8941  2.1892  0.0930
 8841TIP3   OH247937   1.907   5.546  15.261 -0.0283 -0.6625 -0.2853
 8841TIP3    H147938   1.855   5.483  15.212  0.4949 -0.6797 -0.8326
 8841TIP3    H247939   1.989   5.553  15.211  1.0979 -1.7851  1.3786
 8842TIP3   OH247940   6.332   0.987   0.704  0.7623  0.6170 -0.1055
 8842TIP3    H147941   6.395   0.932   0.658 -0.6997  0.0213 -1.4625
 8842TIP3    H247942   6.329   0.952   0.793 -1.2858 -2.5910 -1.3338
 8843TIP3   OH247943   6.605   0.563   3.256  0.2543  0.2470  0.5528
 8843TIP3    H147944   6.630   0.647   3.218 -1.0242  0.6277  0.5353
 8843TIP3    H247945   6.513   0.553   3.234 -0.4610  0.3525  3.2900
 8844TIP3   OH247946   1.505   2.713  11.461  0.5181  0.1402  0.7118
 8844TIP3    H147947   1.584   2.687  11.413 -0.4809 -1.5639 -0.0447
 8844TIP3    H247948   1.443   2.738  11.392  0.2451  1.1215  1.2928
 8845TIP3   OH247949   5.980   5.507  16.517  0.2948 -0.1707  0.2970
 8845TIP3    H147950   5.927   5.477  16.591  0.2746  0.8465  0.7110
 8845TIP3    H247951   5.957   5.448  16.445 -0.8726 -0.1830  0.6735
 8846TIP3   OH247952   1.323   4.056  15.120 -0.0417  0.8922  0.1437
 8846TIP3    H147953   1.376   4.053  15.200  1.0337  1.3305 -0.5464
 8846TIP3    H247954   1.380   4.094  15.054 -1.3052  1.6407 -0.5523
 8847TIP3   OH247955   6.663   2.762   4.005  0.3972 -0.0675  0.7896
 8847TIP3    H147956   6.703   2.710   4.075 -0.1803 -1.8723 -0.1900
 8847TIP3    H247957   6.587   2.804   4.047  0.6965 -0.2384  1.5084
 8848TIP3   OH247958   1.517   1.403   2.608  0.0483  0.0055 -1.1259
 8848TIP3    H147959   1.498   1.437   2.521  0.9675  0.1053 -1.2917
 8848TIP3    H247960   1.591   1.455   2.638  0.6884 -1.0291 -0.8925
 8849TIP3   OH247961   1.826   3.764  12.379 -0.2228  0.3364 -0.2369
 8849TIP3    H147962   1.845   3.828  12.447 -1.1111  1.3166 -0.8878
 8849TIP3    H247963   1.746   3.797  12.336  0.3244 -0.2377 -1.7484
 8850TIP3   OH247964   6.275   4.225  12.340 -0.0974  0.2461  0.2251
 8850TIP3    H147965   6.288   4.225  12.435 -1.1857 -0.8472  0.4021
 8850TIP3    H247966   6.240   4.311  12.320 -3.4679 -0.7449  1.4110
 8851TIP3   OH247967   6.150   1.948   2.008 -0.1558  0.0005  0.2617
 8851TIP3    H147968   6.064   1.909   1.995  0.1725 -0.9633  0.9793
 8851TIP3    H247969   6.172   1.929   2.099 -1.0042  3.8691  1.3573
 8852TIP3   OH247970   2.844   4.150  14.215  0.1384 -0.4222  0.3780
 8852TIP3    H147971   2.838   4.113  14.127 -0.0321  3.4360 -1.3363
 8852TIP3    H247972   2.934   4.182  14.221 -0.7284  2.0631  0.4251
 8853TIP3   OH247973   0.028   5.809  12.936  0.2029  0.9609  0.4754
 8853TIP3    H147974   0.118   5.782  12.920  0.4893  1.3765  1.3635
 8853TIP3    H247975   0.030   5.853  13.021 -0.7300  1.4979  0.2349
 8854TIP3   OH247976   0.405   2.449  12.091  0.2670 -0.0394  0.8297
 8854TIP3    H147977   0.335   2.506  12.061  0.5043 -0.4711 -0.5812
 8854TIP3    H247978   0.360   2.372  12.125  0.0607 -0.5259 -0.5211
 8855TIP3   OH247979   6.421   1.830  15.606  0.7459 -0.0474 -0.2215
 8855TIP3    H147980   6.383   1.863  15.524 -0.5546 -0.8282  0.0510
 8855TIP3    H247981   6.516   1.839  15.594  0.5501  0.2118 -1.6586
 8856TIP3   OH247982   4.924   2.951  15.345  0.5092  0.1142  0.0814
 8856TIP3    H147983   4.910   2.978  15.436 -0.0782  1.3624 -0.3709
 8856TIP3    H247984   4.850   2.989  15.297 -0.6702 -2.8090 -0.4937
 8857TIP3   OH247985   2.663   3.246   6.235 -0.6661 -0.2113 -0.8051
 8857TIP3    H147986   2.627   3.158   6.251 -1.9637  0.7321  1.6692
 8857TIP3    H247987   2.711   3.267   6.315  1.4529  0.5040 -2.2187
 8858TIP3   OH247988   1.270   5.993   1.895  0.7609 -0.3496  0.1736
 8858TIP3    H147989   1.297   5.932   1.827 -0.9708 -0.8786 -0.0739
 8858TIP3    H247990   1.220   5.939   1.957 -0.8720  0.8055 -0.0970
 8859TIP3   OH247991   0.806   1.611  16.356 -0.0650  0.3417 -0.2618
 8859TIP3    H147992   0.740   1.592  16.289 -0.1213 -0.9953  0.1603
 8859TIP3    H247993   0.881   1.556  16.331 -0.6611 -1.3929  1.6628
 8860TIP3   OH247994   5.458   5.202   1.278 -0.1308 -0.3506 -0.6896
 8860TIP3    H147995   5.453   5.112   1.310  1.6532 -0.2407 -0.0313
 8860TIP3    H247996   5.508   5.197   1.197  1.7879  0.2878  0.4280
 8861TIP3   OH247997   5.305   3.279   6.329  0.2976 -0.0900  0.6883
 8861TIP3    H147998   5.230   3.332   6.353 -0.4060 -0.9577  0.4546
 8861TIP3    H247999   5.380   3.337   6.338 -0.5759  1.2903 -0.7486
 8862TIP3   OH248000   4.269   0.801  15.678  0.7520  0.3427  0.3040
 8862TIP3    H148001   4.326   0.783  15.603  0.6833 -0.3988  0.4314
 8862TIP3    H248002   4.326   0.798  15.754  0.4353 -1.0274  0.4951
 8863TIP3   OH248003   4.501   6.498  13.472 -0.0264  0.1696 -0.0495
 8863TIP3    H148004   4.462   6.420  13.432  0.7622 -0.4725  0.4271
 8863TIP3    H248005   4.595   6.482  13.471  0.0027 -0.0185  2.3737
 8864TIP3   OH248006   5.406   3.819  15.318  0.0219 -0.7540 -0.3938
 8864TIP3    H148007   5.438   3.786  15.402 -1.0433 -0.1777  0.2513
 8864TIP3    H248008   5.319   3.855  15.338  0.1850  0.3142 -1.5291
 8865TIP3   OH248009   3.530   4.681  12.190 -0.4016  0.0207  0.2900
 8865TIP3    H148010   3.562   4.616  12.252 -0.3166  0.0652  0.2919
 8865TIP3    H248011   3.593   4.753  12.196 -1.3352  0.7504  1.3783
 8866TIP3   OH248012   1.305   6.006   2.418 -0.2361 -0.0817  0.1239
 8866TIP3    H148013   1.232   6.068   2.414 -0.7354 -0.6155  0.6663
 8866TIP3    H248014   1.372   6.051   2.469 -0.3577  0.2489 -0.0061
 8867TIP3   OH248015   3.935   5.746   6.458  0.3146  0.3309 -0.2610
 8867TIP3    H148016   3.853   5.795   6.470  0.7726  1.0685 -0.1369
 8867TIP3    H248017   3.944   5.738   6.363 -0.1534 -0.1751 -0.2631
 8868TIP3   OH248018   3.359   6.701   5.263  0.5079 -0.2655 -0.5527
 8868TIP3    H148019   3.263   6.700   5.260  0.5453 -1.0860 -2.5020
 8868TIP3    H248020   3.381   6.668   5.350 -0.9632 -1.8198 -0.7519
 8869TIP3   OH248021   4.268   3.220   0.864 -0.5656 -0.1484 -0.4568
 8869TIP3    H148022   4.247   3.258   0.949  0.0390  0.9591 -0.7933
 8869TIP3    H248023   4.353   3.258   0.840 -0.7312 -0.4339 -1.5504
 8870TIP3   OH248024   4.316   6.765  11.211 -0.1314  0.2936 -0.3710
 8870TIP3    H148025   4.325   6.727  11.123  2.9869 -0.2988  0.1171
 8870TIP3    H248026   4.394   6.820  11.221 -1.0092  1.2163  1.6263
 8871TIP3   OH248027   4.185   0.506  11.463  0.4041 -0.5016 -0.1290
 8871TIP3    H148028   4.137   0.423  11.460 -0.1142 -0.1848 -1.0250
 8871TIP3    H248029   4.277   0.481  11.460  0.2369 -1.0255 -1.0270
 8872TIP3   OH248030   5.081   0.654   2.640 -0.6672  0.0292 -0.7925
 8872TIP3    H148031   5.107   0.732   2.592 -1.5053 -1.1697 -3.2734
 8872TIP3    H248032   5.075   0.683   2.731  1.0144  2.3324 -1.3710
 8873TIP3   OH248033   2.214   1.781   5.251  0.2893  0.1975 -0.5238
 8873TIP3    H148034   2.298   1.747   5.283  0.7840  0.5217 -1.4255
 8873TIP3    H248035   2.152   1.766   5.322  0.9160 -0.8824 -0.2017
 8874TIP3   OH248036   2.100   3.777   5.903 -0.4062 -0.2700  0.5514
 8874TIP3    H148037   2.029   3.841   5.914  0.1504  0.2562  1.1210
 8874TIP3    H248038   2.055   3.694   5.885 -1.1163  0.6958 -2.5616
 8875TIP3   OH248039   2.588   1.364   2.903 -0.2286  0.1280 -0.1257
 8875TIP3    H148040   2.501   1.325   2.908  0.5295 -1.8740 -1.5573
 8875TIP3    H248041   2.593   1.399   2.814  0.2292  0.6703  0.1144
 8876TIP3   OH248042   4.659   6.601   3.395  0.1696  0.3038  0.4691
 8876TIP3    H148043   4.739   6.651   3.382  1.1765 -1.4620 -0.1621
 8876TIP3    H248044   4.685   6.527   3.450 -1.2108  0.1898  1.0010
 8877TIP3   OH248045   0.112   3.387   3.668 -0.1707 -0.3772  0.3073
 8877TIP3    H148046   0.042   3.418   3.610 -0.2545 -0.4909  0.3469
 8877TIP3    H248047   0.183   3.450   3.657  0.4436 -1.2928 -1.1619
 8878TIP3   OH248048   6.052   2.805   3.832  0.6798  0.2434  0.1675
 8878TIP3    H148049   6.015   2.891   3.852  0.1231 -0.3518  1.7562
 8878TIP3    H248050   5.981   2.743   3.852  1.5919 -0.6932  0.5546
 8879TIP3   OH248051   0.149   1.767  14.592 -0.1404 -0.1173  0.2037
 8879TIP3    H148052   0.135   1.758  14.687  0.4475 -0.2757  0.2809
 8879TIP3    H248053   0.240   1.795  14.585  0.7599 -3.1259 -0.4556
 8880TIP3   OH248054   0.730   1.210   0.677 -0.4391 -0.1130  0.2695
 8880TIP3    H148055   0.822   1.199   0.701 -0.5040 -1.6746 -0.1319
 8880TIP3    H248056   0.728   1.190   0.583 -0.7947  2.2708 -0.2572
 8881TIP3   OH248057   0.649   3.644   5.684 -0.4005  0.1813 -0.6579
 8881TIP3    H148058   0.597   3.663   5.761 -1.0891 -0.2007 -1.0285
 8881TIP3    H248059   0.620   3.708   5.619 -0.1429  0.2069 -0.7499
 8882TIP3   OH248060   3.511   3.979   5.386 -0.4850 -0.4886  0.6876
 8882TIP3    H148061   3.543   4.061   5.347  1.5100 -0.7321  1.7704
 8882TIP3    H248062   3.542   3.981   5.476  1.0485 -3.2212  0.2670
 8883TIP3   OH248063   4.232   5.115  17.232 -0.2274  0.0093 -0.1805
 8883TIP3    H148064   4.145   5.147  17.209 -0.5786 -1.6096 -1.2160
 8883TIP3    H248065   4.291   5.185  17.205 -1.2791  1.7158  1.7741
 8884TIP3   OH248066   3.256   6.200   6.410  0.0209 -0.1229  0.2560
 8884TIP3    H148067   3.175   6.215   6.362  0.3231  0.0568 -0.2024
 8884TIP3    H248068   3.246   6.251   6.491  0.0891  0.7117 -0.2552
 8885TIP3   OH248069   4.262   1.020  17.070  0.2745  0.8628  0.2075
 8885TIP3    H148070   4.345   1.003  17.025  0.4066 -4.8260  2.2238
 8885TIP3    H248071   4.200   1.039  16.999  2.0233 -0.6609 -1.7895
 8886TIP3   OH248072   1.094   5.450   2.638 -0.0214 -0.0401  0.0530
 8886TIP3    H148073   1.045   5.488   2.565  0.8246 -0.5220 -0.7739
 8886TIP3    H248074   1.028   5.404   2.690 -0.6223  0.2534 -0.4440
 8887TIP3   OH248075   3.850   3.338   1.839  0.3497 -0.0317 -0.8132
 8887TIP3    H148076   3.925   3.389   1.808 -0.0085 -0.0235 -1.6831
 8887TIP3    H248077   3.774   3.380   1.798 -0.4965  2.0467  2.6633
 8888TIP3   OH248078   0.554   2.363   0.349 -0.5084  0.3823 -0.8479
 8888TIP3    H148079   0.576   2.342   0.440 -1.8693 -0.7375 -0.7573
 8888TIP3    H248080   0.631   2.408   0.315  0.4395 -0.1786  0.5296
 8889TIP3   OH248081   6.647   2.743  16.328 -0.5384 -0.0959 -0.0501
 8889TIP3    H148082   6.705   2.697  16.267 -1.3367 -0.9760 -0.1452
 8889TIP3    H248083   6.605   2.810  16.275  0.2169  0.4039 -0.0278
 8890TIP3   OH248084   4.211   3.466  16.166  0.6230 -0.4154  0.4887
 8890TIP3    H148085   4.220   3.541  16.107 -1.9389  0.8845  1.6565
 8890TIP3    H248086   4.150   3.408  16.120 -0.8869  0.3135  1.5232
 8891TIP3   OH248087   4.089   6.540  12.669 -0.3538 -0.0802 -0.1943
 8891TIP3    H148088   4.004   6.563  12.707 -0.6907 -0.7703 -0.5352
 8891TIP3    H248089   4.094   6.445  12.676  0.4039 -0.0421 -0.1576
 8892TIP3   OH248090   2.396   0.861  11.821  0.2452  0.1178 -0.4210
 8892TIP3    H148091   2.399   0.944  11.869 -0.4526  1.4663 -2.6665
 8892TIP3    H248092   2.330   0.875  11.753 -0.0745 -2.3801 -0.6763
 8893TIP3   OH248093   5.591   4.449  14.509  0.0551 -0.4955  0.1909
 8893TIP3    H148094   5.661   4.410  14.457  2.1480  2.5422  0.6457
 8893TIP3    H248095   5.521   4.466  14.445  0.9253 -0.7166 -0.8296
 8894TIP3   OH248096   2.596   5.163  16.861 -0.3436 -0.2597 -0.1423
 8894TIP3    H148097   2.624   5.248  16.825 -0.6653 -0.3988 -0.7283
 8894TIP3    H248098   2.646   5.154  16.942  1.9364 -0.8639 -1.5632
 8895TIP3   OH248099   5.726   4.221   5.323  0.1723  0.5292 -0.3002
 8895TIP3    H148100   5.727   4.317   5.321  0.0851  0.5215 -0.7202
 8895TIP3    H248101   5.638   4.198   5.295  0.6073  0.2960 -1.4953
 8896TIP3   OH248102   3.251   4.628   5.063 -0.1515 -0.1844 -0.1899
 8896TIP3    H148103   3.270   4.546   5.017  2.0470  0.0101  0.3460
 8896TIP3    H248104   3.250   4.695   4.994 -0.0041 -0.3676 -0.3695
 8897TIP3   OH248105   5.464   0.839  11.832 -0.0993 -0.1055  0.4823
 8897TIP3    H148106   5.523   0.848  11.757  0.2863  1.8707  1.0084
 8897TIP3    H248107   5.513   0.876  11.906 -1.8581  1.2274  0.9927
 8898TIP3   OH248108   0.898   3.360   5.204 -0.3274 -0.1609 -0.2331
 8898TIP3    H148109   0.943   3.429   5.252  0.2713 -0.2608 -0.6440
 8898TIP3    H248110   0.805   3.384   5.208 -0.3685 -0.5905  1.6527
 8899TIP3   OH248111   3.189   5.877  12.614  0.2320 -0.1893 -0.0790
 8899TIP3    H148112   3.252   5.873  12.541  0.2419 -0.5395 -0.0538
 8899TIP3    H248113   3.159   5.787  12.624 -3.1890  0.5641 -2.6435
 8900TIP3   OH248114   0.237   5.967  13.383  0.1590 -0.1061 -0.1158
 8900TIP3    H148115   0.226   6.045  13.329  0.4607 -0.0982 -0.1634
 8900TIP3    H248116   0.261   6.001  13.469  0.8386 -0.1686 -0.2800
 8901TIP3   OH248117   1.288   5.738   0.138  0.1089  0.0501 -0.0056
 8901TIP3    H148118   1.214   5.752   0.197  1.6640 -1.1785  2.2992
 8901TIP3    H248119   1.252   5.685   0.067 -1.6499  1.0302  0.1434
 8902TIP3   OH248120   0.870   1.805   6.065 -0.6554  0.2130 -0.1758
 8902TIP3    H148121   0.782   1.783   6.095 -0.4801  1.8488  1.6633
 8902TIP3    H248122   0.928   1.753   6.121 -0.3975  1.1313  0.4240
 8903TIP3   OH248123   4.054   1.282  12.317  0.3445  0.7930  0.1337
 8903TIP3    H148124   4.059   1.270  12.222 -0.0846 -2.8362  0.4974
 8903TIP3    H248125   3.978   1.230  12.343  2.1385 -0.5685  2.7825
 8904TIP3   OH248126   4.687   0.852  14.193  0.1240  0.5428  0.5592
 8904TIP3    H148127   4.706   0.942  14.167  2.1849 -0.1571 -0.4308
 8904TIP3    H248128   4.646   0.813  14.116  0.2010  0.3279  0.6289
 8905TIP3   OH248129   1.792   1.248  15.509  0.1616 -0.2551  0.0448
 8905TIP3    H148130   1.779   1.337  15.476 -0.2304 -0.6703 -0.9584
 8905TIP3    H248131   1.711   1.228  15.556  0.2840 -0.0470  0.3439
 8906TIP3   OH248132   3.272   6.155   5.571 -0.5472 -0.1003 -0.6981
 8906TIP3    H148133   3.338   6.092   5.544 -1.7006 -1.6715  0.0755
 8906TIP3    H248134   3.209   6.156   5.498 -2.2428 -2.3286  0.6630
 8907TIP3   OH248135   2.842   0.571   5.435 -0.1566  0.2101 -0.2270
 8907TIP3    H148136   2.897   0.608   5.505  1.6980  1.1993 -2.1717
 8907TIP3    H248137   2.882   0.602   5.354 -1.1424 -2.5275 -1.8021
 8908TIP3   OH248138   1.858   0.335  16.190 -1.0828  0.5735  0.5028
 8908TIP3    H148139   1.869   0.244  16.221  0.2109 -0.1513 -1.9766
 8908TIP3    H248140   1.765   0.352  16.200 -1.7078 -1.7496 -0.8219
 8909TIP3   OH248141   2.658   2.763   2.845 -0.0183  0.1061 -0.2655
 8909TIP3    H148142   2.697   2.802   2.767 -0.9858 -0.4841 -1.0668
 8909TIP3    H248143   2.606   2.690   2.811 -2.5407  1.4156  0.6457
 8910TIP3   OH248144   5.440   3.518   6.113  0.4189 -0.5013  0.0039
 8910TIP3    H148145   5.463   3.447   6.172  1.0057 -0.2636  0.0640
 8910TIP3    H248146   5.403   3.586   6.170  1.1219 -0.2133  0.1128
 8911TIP3   OH248147   6.228   3.889  14.776 -0.0140 -0.3808  0.5831
 8911TIP3    H148148   6.190   3.951  14.713 -1.2992  0.0512  1.7652
 8911TIP3    H248149   6.306   3.934  14.809 -0.7351  0.4788  1.1623
 8912TIP3   OH248150   5.403   2.661   1.622  0.4932  0.1742  0.1789
 8912TIP3    H148151   5.312   2.683   1.640  0.2351 -0.4599 -0.3448
 8912TIP3    H248152   5.412   2.570   1.649  1.0508  0.3085  0.4783
 8913TIP3   OH248153   4.017   6.719  16.136  0.3638 -0.7998  0.2364
 8913TIP3    H148154   4.046   6.712  16.226  1.7132  3.6742  0.2648
 8913TIP3    H248155   3.941   6.776  16.139  2.2035  1.8812 -1.7055
 8914TIP3   OH248156   5.814   2.238   4.596 -0.0899  0.6199  0.6111
 8914TIP3    H148157   5.730   2.283   4.598 -1.2918 -1.3527 -2.5136
 8914TIP3    H248158   5.802   2.167   4.533  4.4185  1.3128 -1.2033
 8915TIP3   OH248159   2.562   1.378  17.131 -0.3465  0.4462 -0.0290
 8915TIP3    H148160   2.627   1.307  17.135 -0.6292  0.1447 -0.6157
 8915TIP3    H248161   2.533   1.389  17.221 -0.7387 -0.6051 -0.0185
 8916TIP3   OH248162   3.263   5.544   2.351  0.0570 -0.5671  0.5263
 8916TIP3    H148163   3.201   5.616   2.363  0.0053 -0.4256 -0.5161
 8916TIP3    H248164   3.319   5.546   2.428  0.5369  1.0659  0.1380
 8917TIP3   OH248165   4.559   3.455   3.945 -0.4466  0.3169 -0.3751
 8917TIP3    H148166   4.535   3.445   4.037 -0.6825  1.1842 -0.3319
 8917TIP3    H248167   4.524   3.378   3.902 -0.1002 -0.2261  0.3122
 8918TIP3   OH248168   3.647   6.246   1.968  0.1714 -1.0193 -0.2287
 8918TIP3    H148169   3.613   6.167   1.926  1.1128 -1.9140  0.6418
 8918TIP3    H248170   3.701   6.288   1.901  1.0098 -1.9986 -0.1697
 8919TIP3   OH248171   0.583   0.638  11.686 -0.2284 -0.0909 -0.6363
 8919TIP3    H148172   0.502   0.587  11.679 -0.0768 -0.2589 -1.2770
 8919TIP3    H248173   0.650   0.581  11.647  0.4766 -0.5431  1.1874
 8920TIP3   OH248174   4.231   3.315   1.553 -0.3137  0.1133  0.0374
 8920TIP3    H148175   4.205   3.399   1.515 -1.8835 -0.7529 -0.8532
 8920TIP3    H248176   4.149   3.274   1.581  0.3478 -1.4679 -0.2690
 8921TIP3   OH248177   3.904   0.181  11.704  0.3662 -0.2613 -0.1013
 8921TIP3    H148178   3.907   0.093  11.741  0.0777 -0.4862 -0.6017
 8921TIP3    H248179   3.811   0.203  11.701  0.3812 -0.2760 -0.7585
 8922TIP3   OH248180   1.770   2.511  10.653  0.5170  0.3800  0.2029
 8922TIP3    H148181   1.693   2.531  10.600  0.3010 -1.0520 -0.0564
 8922TIP3    H248182   1.759   2.562  10.732  0.1563  1.4911 -0.5577
 8923TIP3   OH248183   6.396   3.928  15.666  0.1382 -0.1471  0.0813
 8923TIP3    H148184   6.379   3.951  15.758 -2.0571  3.2725 -1.1011
 8923TIP3    H248185   6.314   3.889  15.636  0.3050  0.2307 -0.8672
 8924TIP3   OH248186   5.399   2.171  15.532  0.5368  0.4312  0.2141
 8924TIP3    H148187   5.319   2.124  15.509  1.4540 -0.4200 -1.3383
 8924TIP3    H248188   5.450   2.108  15.583 -0.2957  1.3928  2.2829
 8925TIP3   OH248189   3.655   3.714   6.301  0.0283 -0.4644 -0.4242
 8925TIP3    H148190   3.569   3.711   6.259 -0.7183 -3.3300  1.2576
 8925TIP3    H248191   3.642   3.769   6.378 -0.1270 -0.3763 -0.5125
 8926TIP3   OH248192   6.199   4.658   3.205 -0.5453  0.6429 -0.1235
 8926TIP3    H148193   6.229   4.749   3.208  0.6504  0.2221  1.7510
 8926TIP3    H248194   6.106   4.662   3.223 -0.4348  1.4780  0.2716
 8927TIP3   OH248195   4.769   4.052  12.216  0.3417  0.2065 -0.0810
 8927TIP3    H148196   4.793   4.023  12.128 -2.1000 -0.2865 -0.6141
 8927TIP3    H248197   4.740   4.143  12.205 -0.1618  0.0824  0.1597
 8928TIP3   OH248198   2.071   0.118   3.860 -0.0892  0.1614 -0.0997
 8928TIP3    H148199   2.075   0.077   3.947 -1.4770 -0.7308 -0.4458
 8928TIP3    H248200   2.067   0.212   3.878 -0.0781 -0.0094  0.8038
 8929TIP3   OH248201   1.579   2.143  12.153  0.4250  0.0900  0.5981
 8929TIP3    H148202   1.496   2.179  12.122  0.8844  1.1406  0.5659
 8929TIP3    H248203   1.579   2.159  12.247  0.3381 -0.4303  0.6873
 8930TIP3   OH248204   2.834   6.350   1.199  0.2653  0.0515 -0.4991
 8930TIP3    H148205   2.830   6.264   1.158  0.6702 -0.1331 -0.1540
 8930TIP3    H248206   2.821   6.333   1.293  2.5008  0.1045 -0.1332
 8931TIP3   OH248207   3.022   4.799  15.411 -0.1036 -0.4650 -0.1464
 8931TIP3    H148208   3.041   4.729  15.349  3.0672 -0.2303  0.4540
 8931TIP3    H248209   2.965   4.859  15.364  1.3889 -0.8328 -2.4992
 8932TIP3   OH248210   1.317   4.929  11.954  0.5223  0.2318  0.3810
 8932TIP3    H148211   1.389   4.879  11.917  1.3284 -0.1859  2.4728
 8932TIP3    H248212   1.346   4.952  12.042 -1.6009  0.6823  0.9881
 8933TIP3   OH248213   6.692   6.463   2.305 -0.2892 -0.5972 -0.5323
 8933TIP3    H148214   6.681   6.383   2.356 -0.9528 -0.6118 -0.6914
 8933TIP3    H248215   6.656   6.442   2.218 -1.0437  0.0547 -0.3956
 8934TIP3   OH248216   4.930   1.714  13.039  0.0859 -0.3796  0.7457
 8934TIP3    H148217   5.008   1.770  13.045  0.2174 -0.0655 -2.6675
 8934TIP3    H248218   4.858   1.774  13.026 -0.5435 -0.7529  2.4304
 8935TIP3   OH248219   5.299   6.668   4.517 -0.1491  0.6354  0.5284
 8935TIP3    H148220   5.343   6.621   4.446 -2.7092 -0.8624 -0.1304
 8935TIP3    H248221   5.358   6.658   4.592  2.8811  2.6951 -1.4457
 8936TIP3   OH248222   4.156   1.200   5.579 -0.0801  0.6898  0.0929
 8936TIP3    H148223   4.072   1.156   5.588  0.3500 -1.0682 -3.4759
 8936TIP3    H248224   4.134   1.286   5.542 -0.4010  0.6556  0.2061
 8937TIP3   OH248225   4.185   1.278   0.813  0.5274  0.6363 -0.4212
 8937TIP3    H148226   4.100   1.294   0.852  0.9785  0.6874  0.5534
 8937TIP3    H248227   4.212   1.364   0.780  0.7071  0.8572  0.2945
 8938TIP3   OH248228   0.311   1.647   6.020  0.3338  0.2821  0.6914
 8938TIP3    H148229   0.338   1.570   6.070 -0.8838 -0.7340 -0.2039
 8938TIP3    H248230   0.290   1.712   6.087  0.5465 -0.4391  1.4705
 8939TIP3   OH248231   3.786   6.017   2.674 -0.4570  0.5657  0.0840
 8939TIP3    H148232   3.693   6.016   2.699 -0.5729  0.8660 -0.3366
 8939TIP3    H248233   3.789   5.969   2.592 -0.1104 -0.1904  0.5403
 8940TIP3   OH248234   1.844   3.204  15.956  0.6144 -0.2392 -0.8080
 8940TIP3    H148235   1.826   3.110  15.965  0.6340 -0.0670  1.1006
 8940TIP3    H248236   1.777   3.234  15.894 -0.7391 -1.1139  0.1945
 8941TIP3   OH248237   5.840   5.144   1.524 -0.1957 -0.4306  0.2399
 8941TIP3    H148238   5.907   5.139   1.592  1.0504 -1.1671 -1.0265
 8941TIP3    H248239   5.790   5.063   1.533 -0.5205 -0.1761  0.7650
 8942TIP3   OH248240   5.868   3.315   2.413  0.1664 -0.5592 -0.2082
 8942TIP3    H148241   5.842   3.309   2.321  1.3573  0.2759 -0.6023
 8942TIP3    H248242   5.963   3.324   2.411  0.0078  2.0004  0.9711
 8943TIP3   OH248243   5.312   5.319   0.598 -0.1439 -0.3625 -0.4213
 8943TIP3    H148244   5.255   5.319   0.521 -1.1578  0.6177  0.3091
 8943TIP3    H248245   5.367   5.242   0.587 -0.9420 -0.7750 -1.6449
 8944TIP3   OH248246   5.108   3.748  11.075  0.1278 -0.7404  0.2030
 8944TIP3    H148247   5.172   3.798  11.025  1.2593 -1.3132  1.0557
 8944TIP3    H248248   5.025   3.794  11.061  1.2290  1.7047  1.3861
 8945TIP3   OH248249   1.683   6.781  16.137  0.7132 -0.3390  0.2327
 8945TIP3    H148250   1.677   6.876  16.138 -1.6060 -0.4415  0.6052
 8945TIP3    H248251   1.679   6.755  16.229 -0.9758 -0.8686  0.0326
 8946TIP3   OH248252   0.642   2.793   1.466 -0.8120 -0.0319  0.0511
 8946TIP3    H148253   0.576   2.746   1.416 -0.5952  0.4274 -0.6715
 8946TIP3    H248254   0.714   2.805   1.405 -0.2541 -0.0991  0.6905
 8947TIP3   OH248255   1.685   3.638  12.138 -0.4808 -0.7063 -0.3742
 8947TIP3    H148256   1.612   3.606  12.193  0.0342 -1.8391 -0.3261
 8947TIP3    H248257   1.706   3.564  12.081  0.2368 -0.1753 -0.8096
 8948TIP3   OH248258   2.352   2.263  11.190 -0.0474  0.2786  0.2751
 8948TIP3    H148259   2.423   2.288  11.131  0.7184  1.1037  1.5217
 8948TIP3    H248260   2.338   2.170  11.174  3.0301 -0.4912  1.7854
 8949TIP3   OH248261   1.509   6.443  15.759  0.3086 -0.9026  0.0615
 8949TIP3    H148262   1.429   6.470  15.713  0.3806  0.7303  0.8488
 8949TIP3    H248263   1.524   6.353  15.731 -2.9601 -1.9564  1.4335
 8950TIP3   OH248264   0.469   1.984  15.545 -0.2714  0.2687  0.4844
 8950TIP3    H148265   0.478   1.901  15.591 -0.2902  0.0375  0.0812
 8950TIP3    H248266   0.504   2.050  15.605 -0.5836  0.0137  0.9503
 8951TIP3   OH248267   0.888   1.024  16.352  0.9439 -0.1788 -0.2612
 8951TIP3    H148268   0.946   1.098  16.334 -0.2440  0.9751  0.6528
 8951TIP3    H248269   0.802   1.052  16.321  0.5378 -1.2599 -0.1313
 8952TIP3   OH248270   2.754   1.567  14.860 -0.1897 -0.4705  0.6277
 8952TIP3    H148271   2.680   1.625  14.882  0.8817  0.6630  1.3242
 8952TIP3    H248272   2.717   1.479  14.866 -2.1631  0.1380 -1.5955
 8953TIP3   OH248273   3.592   5.219  16.776 -0.5831  0.4565  0.6629
 8953TIP3    H148274   3.671   5.168  16.796 -0.6093  0.2637  0.2823
 8953TIP3    H248275   3.594   5.229  16.681 -2.2980 -1.6390  0.3777
 8954TIP3   OH248276   5.895   5.378   2.367  0.4152 -0.5117  0.0254
 8954TIP3    H148277   5.878   5.349   2.456  1.7963  0.8181  0.7364
 8954TIP3    H248278   5.913   5.471   2.375  0.7945 -0.4294 -1.6239
 8955TIP3   OH248279   4.658   3.676  14.194 -0.2865 -0.0126 -0.2680
 8955TIP3    H148280   4.657   3.768  14.168 -1.5378  0.0896  0.1208
 8955TIP3    H248281   4.708   3.632  14.125 -1.8855  0.5677 -1.8512
 8956TIP3   OH248282   6.005   5.425   2.667 -0.4097 -0.1645 -0.0636
 8956TIP3    H148283   6.078   5.368   2.694  0.9776  0.9810 -1.2682
 8956TIP3    H248284   6.042   5.477   2.595 -2.5662  0.1433 -0.9735
 8957TIP3   OH248285   1.908   2.484  12.921 -0.6490  0.2171  0.4840
 8957TIP3    H148286   1.934   2.538  12.847  0.9508 -0.1046  0.7834
 8957TIP3    H248287   1.820   2.454  12.900 -1.2375  2.2632 -0.0510
 8958TIP3   OH248288   3.777   1.676   0.917  0.3824 -0.2820  0.2724
 8958TIP3    H148289   3.786   1.750   0.976 -0.4546  0.6526 -0.7476
 8958TIP3    H248290   3.775   1.715   0.830  2.8043 -1.7199 -0.4900
 8959TIP3   OH248291   1.691   1.162  11.541 -0.0203 -0.8091  0.6902
 8959TIP3    H148292   1.615   1.195  11.493  0.4716  0.9247  1.0571
 8959TIP3    H248293   1.733   1.241  11.577  1.4914 -1.7996  1.1661
 8960TIP3   OH248294   2.697   1.044   0.755 -0.2833  0.7121  0.4697
 8960TIP3    H148295   2.659   1.056   0.668  1.0309  0.2299 -0.1969
 8960TIP3    H248296   2.666   0.958   0.783  0.3298  0.3008 -0.0884
 8961TIP3   OH248297   1.972   0.011  15.588  0.1490 -0.0682  0.1472
 8961TIP3    H148298   1.965  -0.032  15.503  0.4813  0.0508  0.0579
 8961TIP3    H248299   1.930  -0.049  15.649 -1.0758  0.3472 -0.2675
 8962TIP3   OH248300   0.182   2.990  12.355 -0.5344  0.6755  0.0563
 8962TIP3    H148301   0.237   3.041  12.414  0.2174  0.7119 -0.6720
 8962TIP3    H248302   0.207   3.018  12.267 -0.6580 -0.3814 -0.3294
 8963TIP3   OH248303   4.115   5.435   3.847  0.2085  0.0068  0.3335
 8963TIP3    H148304   4.106   5.342   3.828 -1.3380  0.1654  0.2842
 8963TIP3    H248305   4.205   5.456   3.822  0.0256 -1.0856 -1.2704
 8964TIP3   OH248306   4.984   3.135   6.117 -0.3813  0.0418  0.4519
 8964TIP3    H148307   4.907   3.135   6.174 -0.5811 -0.9505  0.1804
 8964TIP3    H248308   5.042   3.069   6.153 -0.2367 -0.1492 -0.1176
 8965TIP3   OH248309   5.906   2.736  14.855 -0.8062 -0.2718 -0.2440
 8965TIP3    H148310   5.885   2.667  14.792  2.3298 -0.8264 -0.7959
 8965TIP3    H248311   5.980   2.700  14.905  0.8920  2.6614 -0.5381
 8966TIP3   OH248312   2.413   0.241  13.571  0.5647 -0.4555  0.2735
 8966TIP3    H148313   2.453   0.295  13.503  0.1591  0.3935  0.7067
 8966TIP3    H248314   2.486   0.211  13.624  0.7772 -0.2438  0.1005
 8967TIP3   OH248315   2.877   6.264   3.736  0.0627  0.1905  0.7149
 8967TIP3    H148316   2.901   6.272   3.828 -1.0580  0.7122  0.9605
 8967TIP3    H248317   2.867   6.170   3.722  1.8984 -0.0289  0.6898
 8968TIP3   OH248318   2.213   1.280  12.611  0.1004  0.1830 -0.4756
 8968TIP3    H148319   2.185   1.343  12.678  0.0336 -0.4736  0.1248
 8968TIP3    H248320   2.132   1.250  12.571  0.1469  0.6573 -0.9388
 8969TIP3   OH248321   1.152   4.384   0.962  0.5838  0.2640  0.0739
 8969TIP3    H148322   1.224   4.366   1.023  1.2506  0.1372 -0.7433
 8969TIP3    H248323   1.134   4.300   0.920  0.3208  0.4140 -0.1198
 8970TIP3   OH248324   5.109   0.289  16.156 -0.2074 -0.2608 -1.0814
 8970TIP3    H148325   5.053   0.241  16.218  0.2149 -1.7795 -1.8410
 8970TIP3    H248326   5.080   0.380  16.163 -0.5997 -0.5140  0.8670
 8971TIP3   OH248327   3.483   1.013  11.414  0.4291 -0.1883 -0.3904
 8971TIP3    H148328   3.443   0.935  11.453  0.7946 -0.6653 -0.9666
 8971TIP3    H248329   3.441   1.086  11.459  0.9893 -0.7337  1.0623
 8972TIP3   OH248330   5.430   1.960  13.745  0.1820  0.6521  0.2683
 8972TIP3    H148331   5.444   1.908  13.666  1.0707  2.2464 -0.6428
 8972TIP3    H248332   5.347   2.006  13.730 -1.1390 -1.2471  1.5103
 8973TIP3   OH248333   2.510   5.883  14.753  0.3051 -0.2220 -0.0351
 8973TIP3    H148334   2.428   5.874  14.706 -0.3448  1.4698  0.7374
 8973TIP3    H248335   2.572   5.830  14.704 -0.7742  0.0878 -1.7707
 8974TIP3   OH248336   3.990   3.364  15.072  0.7396  0.4593  0.1052
 8974TIP3    H148337   4.007   3.441  15.019  0.2011 -0.2473 -1.1092
 8974TIP3    H248338   4.027   3.291  15.022  0.0195 -0.2447  0.5826
 8975TIP3   OH248339   2.430   4.446   5.430 -0.0713 -0.9617  0.3946
 8975TIP3    H148340   2.365   4.446   5.501  0.3716 -4.9111  0.9272
 8975TIP3    H248341   2.384   4.408   5.356  0.2888  0.5815 -0.6328
 8976TIP3   OH248342   4.648   1.619   6.313  0.2186  0.6423 -0.3139
 8976TIP3    H148343   4.705   1.589   6.385 -2.1785  0.5672  1.6270
 8976TIP3    H248344   4.560   1.591   6.339 -1.2178  3.8016 -1.5113
 8977TIP3   OH248345   2.126   1.656   1.971 -0.2777 -0.8606 -0.1255
 8977TIP3    H148346   2.190   1.660   1.901 -0.2779 -2.1330 -0.2178
 8977TIP3    H248347   2.154   1.723   2.034  0.1968 -0.2994 -0.9344
 8978TIP3   OH248348   1.505   2.741  13.323  0.0353 -0.4039 -0.4006
 8978TIP3    H148349   1.440   2.780  13.265 -1.7058 -0.3560  1.4957
 8978TIP3    H248350   1.532   2.813  13.381  0.3082 -0.8929  0.0879
 8979TIP3   OH248351   4.140   5.024   5.414  0.1674 -0.3427 -0.2734
 8979TIP3    H148352   4.061   4.969   5.424 -0.2305  0.3509  0.5068
 8979TIP3    H248353   4.135   5.058   5.325 -0.1161 -0.7744 -0.4232
 8980TIP3   OH248354   3.253   0.983   5.364  0.1338 -0.1371 -0.4363
 8980TIP3    H148355   3.274   0.914   5.302  1.3167 -0.6554  0.5286
 8980TIP3    H248356   3.230   1.058   5.309 -0.5007 -1.0792 -1.4867
 8981TIP3   OH248357   3.183   6.086  11.097  0.6138 -0.0784 -0.7427
 8981TIP3    H148358   3.186   5.992  11.114 -2.2319  0.2833  2.1969
 8981TIP3    H248359   3.115   6.096  11.030  0.8417 -0.0725 -0.9771
 8982TIP3   OH248360   4.923   4.124   4.431  0.1704  0.7517 -0.2759
 8982TIP3    H148361   4.924   4.172   4.513  0.3153  1.0337 -0.4429
 8982TIP3    H248362   4.935   4.191   4.364 -0.6626  0.6201 -0.5694
 8983TIP3   OH248363   4.685   0.262   5.900 -0.2306 -0.4022  0.2390
 8983TIP3    H148364   4.701   0.255   5.994  1.4947 -0.6924 -0.0595
 8983TIP3    H248365   4.709   0.176   5.865  2.7200  0.8357 -0.9373
 8984TIP3   OH248366   5.686   3.830   5.500  0.3478 -0.5561  0.6408
 8984TIP3    H148367   5.676   3.738   5.527  1.0698 -0.1409  2.3529
 8984TIP3    H248368   5.651   3.832   5.411  2.2213 -2.9397 -0.2120
 8985TIP3   OH248369   0.669   4.099   0.798 -0.2331  0.5860 -0.2306
 8985TIP3    H148370   0.603   4.032   0.779 -0.2086  0.3032  0.6656
 8985TIP3    H248371   0.733   4.090   0.728  0.0299 -0.6585  0.1687
 8986TIP3   OH248372   1.969   2.898  17.092 -0.3058  0.6181 -0.2706
 8986TIP3    H148373   1.900   2.859  17.146  2.2208 -1.1853  1.7542
 8986TIP3    H248374   2.034   2.930  17.155  0.1987  3.4215 -2.0874
 8987TIP3   OH248375   2.926   1.100   1.184 -0.1591 -0.2130  0.8002
 8987TIP3    H148376   2.838   1.134   1.171  0.0079 -0.2714 -0.5165
 8987TIP3    H248377   2.944   1.047   1.106  1.1326  0.0165  0.9209
 8988TIP3   OH248378   2.416   1.573   0.331  0.4258 -0.3937  0.3508
 8988TIP3    H148379   2.462   1.623   0.399  0.0180 -0.8134  0.9385
 8988TIP3    H248380   2.381   1.639   0.272  0.8726 -0.0269  0.4919
 8989TIP3   OH248381   5.797   5.922  12.088  0.0878 -0.3700 -0.0579
 8989TIP3    H148382   5.803   5.918  11.992 -0.0170 -0.5284 -0.0572
 8989TIP3    H248383   5.860   5.990  12.112 -0.8540  0.6216 -0.3473
 8990TIP3   OH248384   6.639   1.799   3.242 -0.1254  0.3489 -0.0782
 8990TIP3    H148385   6.634   1.806   3.147 -0.5672  2.0909  0.0511
 8990TIP3    H248386   6.591   1.876   3.274  1.0069  0.4132  1.5279
 8991TIP3   OH248387   2.829   5.583  13.611  0.7479  0.0371  0.4593
 8991TIP3    H148388   2.772   5.645  13.565  0.1704  0.3159  1.5273
 8991TIP3    H248389   2.770   5.534  13.667  1.4836 -0.1205  1.1012
 8992TIP3   OH248390   3.834   0.392  13.051  1.0613  0.4513  0.0260
 8992TIP3    H148391   3.822   0.449  12.975  3.5957  0.3816 -0.4839
 8992TIP3    H248392   3.820   0.450  13.126  1.2256  1.1816 -0.4958
 8993TIP3   OH248393   3.350   2.390  12.155  0.2144  0.4214  0.1100
 8993TIP3    H148394   3.347   2.439  12.073  1.8150  0.3558  0.0018
 8993TIP3    H248395   3.324   2.454  12.222 -0.6453  0.5950 -0.3762
 8994TIP3   OH248396   1.139   5.441  13.393  0.3762  0.3075 -0.7710
 8994TIP3    H148397   1.215   5.495  13.414  0.7832  0.3033 -2.2040
 8994TIP3    H248398   1.122   5.391  13.473  0.9867  1.3640  0.0296
 8995TIP3   OH248399   6.682   3.951  15.072 -0.1030 -0.4815  0.2258
 8995TIP3    H148400   6.680   3.874  15.130  0.0886 -1.5462 -1.1625
 8995TIP3    H248401   6.615   3.934  15.007  2.2522 -1.1040 -2.1115
 8996TIP3   OH248402   4.038   3.679  16.887 -0.7503 -0.4307 -0.3203
 8996TIP3    H148403   3.960   3.700  16.836 -1.1024 -0.6196  0.1269
 8996TIP3    H248404   4.096   3.635  16.826 -1.0040 -0.2963 -0.6588
 8997TIP3   OH248405   1.763   0.219   2.438  0.0890 -0.3321 -0.4540
 8997TIP3    H148406   1.705   0.286   2.474  0.1194  0.5309 -1.9880
 8997TIP3    H248407   1.804   0.179   2.515 -2.0059 -0.4973  0.6241
 8998TIP3   OH248408   4.473   4.343  14.819  0.2591  0.1193  0.0560
 8998TIP3    H148409   4.566   4.336  14.840  0.3163 -0.3101 -0.3189
 8998TIP3    H248410   4.434   4.263  14.854 -0.4756  1.6106  2.7380
 8999TIP3   OH248411   0.605   0.447  14.846  0.7571  0.5042  0.0136
 8999TIP3    H148412   0.549   0.512  14.887  0.1732  1.6480 -2.5315
 8999TIP3    H248413   0.550   0.369  14.838  1.6511 -0.6368  3.6550
 9000TIP3   OH248414   6.237   3.238   1.167 -0.2132 -0.4143 -0.0453
 9000TIP3    H148415   6.276   3.196   1.090  1.9367 -1.3713  1.5246
 9000TIP3    H248416   6.247   3.174   1.237  0.6942  1.6457  1.7708
 9001TIP3   OH248417   1.889   3.584  16.568 -0.1821  0.4125 -0.3036
 9001TIP3    H148418   1.811   3.532  16.548  0.7528 -0.6381 -1.2686
 9001TIP3    H248419   1.892   3.587  16.664 -1.0335 -0.1280 -0.2562
 9002TIP3   OH248420   5.611   4.677   0.289  0.4147 -0.3185  0.2758
 9002TIP3    H148421   5.690   4.623   0.300  0.6565 -0.1455 -0.6169
 9002TIP3    H248422   5.547   4.618   0.249 -0.1888 -0.6984  1.7705
 9003TIP3   OH248423   1.436   3.898   1.725 -0.0588  0.0621 -0.1395
 9003TIP3    H148424   1.374   3.826   1.710  0.0775  0.0184 -0.4759
 9003TIP3    H248425   1.480   3.911   1.641  1.3960 -0.8544  0.4630
 9004TIP3   OH248426   5.221   2.737   3.311 -0.1520 -0.1443  0.2017
 9004TIP3    H148427   5.255   2.816   3.269  1.1256 -0.7293  0.1244
 9004TIP3    H248428   5.179   2.770   3.391 -0.0255  0.6593 -0.0508
 9005TIP3   OH248429   4.724   1.626   1.471  0.0029 -0.1546  0.0206
 9005TIP3    H148430   4.809   1.586   1.451  0.3705  0.7360 -0.1992
 9005TIP3    H248431   4.664   1.552   1.477  0.7936 -0.7885  0.1648
 9006TIP3   OH248432   0.795   5.065  13.663 -0.0382 -0.3763  1.0127
 9006TIP3    H148433   0.800   5.091  13.755 -1.0064 -2.4609  1.6925
 9006TIP3    H248434   0.727   4.997  13.661 -0.5866  0.2102 -1.3858
 9007TIP3   OH248435   2.988   0.485  16.816 -0.5221  0.2875 -0.3846
 9007TIP3    H148436   3.041   0.502  16.739 -0.1482  1.7461  0.1852
 9007TIP3    H248437   3.041   0.426  16.870 -0.2777  0.2398 -0.6809
 9008TIP3   OH248438   5.690   6.651  12.849  0.4235 -0.3536 -0.3504
 9008TIP3    H148439   5.611   6.603  12.822  0.0085  1.9951 -3.5846
 9008TIP3    H248440   5.679   6.663  12.943 -2.6504 -0.8803 -0.5630
 9009TIP3   OH248441   3.070   2.784   3.116  0.1362 -0.4882 -0.0086
 9009TIP3    H148442   3.151   2.822   3.148 -0.2651  2.2973 -2.1062
 9009TIP3    H248443   3.002   2.848   3.140 -1.1314 -1.6734 -0.3310
 9010TIP3   OH248444   4.424   4.931  15.811 -0.3549  0.3258  0.3248
 9010TIP3    H148445   4.514   4.949  15.784 -0.7612  0.0906 -1.2355
 9010TIP3    H248446   4.375   5.010  15.787 -0.6644  0.2510  0.6972
 9011TIP3   OH248447   3.849   6.027   3.850  0.1374 -0.6436  0.8337
 9011TIP3    H148448   3.786   5.962   3.818  0.2145  0.6105 -2.0087
 9011TIP3    H248449   3.925   6.016   3.792  0.4499  1.4164  0.8252
 9012TIP3   OH248450   6.426   4.170  12.128 -0.3165 -0.0081 -0.2870
 9012TIP3    H148451   6.366   4.183  12.054 -1.3380  1.5503  0.7741
 9012TIP3    H248452   6.369   4.167  12.205  0.8485 -0.0520  0.5975
 9013TIP3   OH248453   2.563   3.599   3.680  0.2466  0.2029 -0.2352
 9013TIP3    H148454   2.605   3.515   3.657 -0.7762  0.2279 -2.3453
 9013TIP3    H248455   2.526   3.584   3.767 -0.2242 -1.6720 -0.7195
 9014TIP3   OH248456   2.171   4.409  13.556 -0.2053 -0.0614  0.1551
 9014TIP3    H148457   2.186   4.320  13.526  0.9925 -0.1262  0.9017
 9014TIP3    H248458   2.247   4.458  13.524  0.4234  0.1411  1.9210
 9015TIP3   OH248459   3.845   1.066   2.332 -0.3372 -0.7409  0.1364
 9015TIP3    H148460   3.874   1.045   2.421 -1.8781  1.8966  1.3232
 9015TIP3    H248461   3.751   1.045   2.333 -0.5947  0.3741 -0.5110
 9016TIP3   OH248462   1.516   4.734  12.106 -0.1909 -0.2087  0.4346
 9016TIP3    H148463   1.525   4.718  12.012 -0.2810 -0.7853  0.5202
 9016TIP3    H248464   1.574   4.670  12.147  1.4985  1.4557  0.7061
 9017TIP3   OH248465   5.161   0.010  13.720  0.2308 -0.0775  0.3911
 9017TIP3    H148466   5.208   0.094  13.723 -0.5540  0.3621  0.3959
 9017TIP3    H248467   5.230  -0.055  13.710  1.1493  0.3041  3.5833
 9018TIP3   OH248468   3.985   2.559   6.771 -0.0138  0.0260 -0.4167
 9018TIP3    H148469   4.046   2.521   6.707 -1.3862 -1.8129 -0.6869
 9018TIP3    H248470   4.016   2.526   6.856 -0.5521 -0.8582 -0.5484
 9019TIP3   OH248471   5.697   6.661   1.492 -0.2294  0.6148  0.4587
 9019TIP3    H148472   5.676   6.738   1.545  1.4223  0.6887  1.0470
 9019TIP3    H248473   5.743   6.697   1.416  0.2565  0.2410  0.5761
 9020TIP3   OH248474   5.878   5.343  13.177  0.3907  0.3193  0.2081
 9020TIP3    H148475   5.841   5.306  13.257 -1.1261  0.1820 -0.5532
 9020TIP3    H248476   5.864   5.275  13.111 -2.3443  2.1700 -1.1922
 9021TIP3   OH248477   5.798   5.914  16.268  0.4584  0.0955  0.1522
 9021TIP3    H148478   5.737   5.948  16.332  0.7405 -0.0882  0.5211
 9021TIP3    H248479   5.870   5.878  16.320  0.4276 -0.5471 -0.2502
 9022TIP3   OH248480   0.771   0.226   1.992  0.2906  0.2003  0.0028
 9022TIP3    H148481   0.682   0.213   2.025  0.5753  1.5940  1.4055
 9022TIP3    H248482   0.762   0.231   1.897 -0.9613 -0.9239  0.0649
 9023TIP3   OH248483   5.618   4.457   3.080 -0.6377  0.7387 -0.3747
 9023TIP3    H148484   5.531   4.496   3.067 -0.4170  1.9258  1.6180
 9023TIP3    H248485   5.608   4.402   3.157  0.1450  0.0795 -0.7407
 9024TIP3   OH248486   5.770   6.535  11.801  0.0122 -0.0006 -0.2721
 9024TIP3    H148487   5.685   6.570  11.829  0.2949 -0.1130  0.7390
 9024TIP3    H248488   5.762   6.441  11.814  0.1035 -0.0676 -0.6990
 9025TIP3   OH248489   2.929   4.088   1.045 -0.0449  0.2058  0.4563
 9025TIP3    H148490   2.983   4.126   1.114 -0.1996  0.1999  0.5786
 9025TIP3    H248491   2.924   3.995   1.067  0.2464  0.1301  0.2149
 9026TIP3   OH248492   4.244   3.378   6.182  0.3065 -0.2235 -0.2139
 9026TIP3    H148493   4.285   3.383   6.268  0.6065 -0.5396 -0.3392
 9026TIP3    H248494   4.316   3.372   6.120  0.0930  0.0714 -0.4939
 9027TIP3   OH248495   0.098   0.408  15.807 -0.1839 -0.2446  0.8894
 9027TIP3    H148496   0.068   0.398  15.897 -0.7684  0.3405  0.7667
 9027TIP3    H248497   0.114   0.502  15.796  0.0957 -0.3395  0.4534
 9028TIP3   OH248498   3.844   4.993  13.704 -0.4345 -0.4720 -0.2100
 9028TIP3    H148499   3.939   5.000  13.694 -0.2665  1.2841  2.2887
 9028TIP3    H248500   3.822   4.911  13.660  2.2370 -0.9504 -0.7629
 9029TIP3   OH248501   4.522   3.132   6.234 -0.1853 -0.3074  0.2088
 9029TIP3    H148502   4.526   3.223   6.205  1.5717  0.0927  1.6319
 9029TIP3    H248503   4.461   3.132   6.307  0.1405 -0.1894  0.4822
 9030TIP3   OH248504   3.983   3.184  15.344  0.6529  0.2262 -0.1401
 9030TIP3    H148505   3.998   3.269  15.302  1.1085  0.2385  0.0427
 9030TIP3    H248506   4.041   3.185  15.420  0.6222 -0.2294 -0.1110
 9031TIP3   OH248507   1.588   0.034   4.340 -0.4089  0.7961  0.1136
 9031TIP3    H148508   1.654   0.043   4.272 -0.9071  0.5975 -0.4074
 9031TIP3    H248509   1.542  -0.047   4.318 -1.5312  1.4895 -0.1705
 9032TIP3   OH248510   3.321   1.058   1.660 -0.6911  0.4105 -0.2519
 9032TIP3    H148511   3.381   1.128   1.634  0.0726 -0.7475 -1.6767
 9032TIP3    H248512   3.378   0.989   1.694 -1.1638 -0.8955 -2.0500
 9033TIP3   OH248513   2.682   6.380   5.128  0.6150 -0.0379 -0.1119
 9033TIP3    H148514   2.656   6.289   5.145 -0.4332  0.3070  0.1519
 9033TIP3    H248515   2.623   6.409   5.059 -0.8229  1.2788  1.6460
 9034TIP3   OH248516   6.480   1.502   4.630  0.1732  0.4319 -0.0670
 9034TIP3    H148517   6.393   1.530   4.659 -0.0844  0.4011 -0.7857
 9034TIP3    H248518   6.538   1.574   4.655 -0.3753  1.3315 -1.2975
 9035TIP3   OH248519   4.221   2.765  13.997  0.1226  0.2391  0.1392
 9035TIP3    H148520   4.168   2.720  14.062 -0.0769  1.7275  1.0128
 9035TIP3    H248521   4.293   2.804  14.047  1.7395 -1.2645 -0.9526
 9036TIP3   OH248522   1.741   3.328  15.528 -0.5472  0.3989 -0.0307
 9036TIP3    H148523   1.739   3.318  15.433 -1.5574  0.2943 -0.0072
 9036TIP3    H248524   1.766   3.241  15.561  1.0781  0.7834 -0.2516
 9037TIP3   OH248525   0.444   0.716  10.682  0.3804 -0.4797  0.1959
 9037TIP3    H148526   0.507   0.717  10.754 -0.3120 -0.6994  0.8111
 9037TIP3    H248527   0.494   0.686  10.606  0.8212 -1.4951  0.8757
 9038TIP3   OH248528   0.738   5.353   2.199 -0.3954 -0.3665 -0.2150
 9038TIP3    H148529   0.696   5.304   2.270 -0.4096 -0.4485 -0.2794
 9038TIP3    H248530   0.800   5.291   2.160  1.4145  0.4460  1.2916
 9039TIP3   OH248531   4.599   5.263  15.731  0.0530 -0.8616 -0.4257
 9039TIP3    H148532   4.540   5.277  15.805  1.2182  0.3379  0.3000
 9039TIP3    H248533   4.682   5.235  15.771 -0.1050 -2.8213 -1.4549
 9040TIP3   OH248534   1.472   3.191   5.054 -0.2161 -0.0612 -0.1368
 9040TIP3    H148535   1.397   3.211   4.998 -0.8168  1.5399  1.2152
 9040TIP3    H248536   1.482   3.268   5.110  1.0468 -1.1804  1.2214
 9041TIP3   OH248537   1.255   4.406  15.155 -0.6030 -0.0322  0.1388
 9041TIP3    H148538   1.339   4.376  15.120  0.5298  1.7196  1.2628
 9041TIP3    H248539   1.191   4.384  15.087  0.6060 -2.1808 -0.3611
 9042TIP3   OH248540   3.157   4.344   5.448 -0.2322  0.4133  0.7649
 9042TIP3    H148541   3.180   4.298   5.529 -0.9216  0.1958  0.8441
 9042TIP3    H248542   3.104   4.280   5.400  1.6295 -0.1119 -0.6508
 9043TIP3   OH248543   5.966   1.981   0.180 -0.8759 -0.0886 -0.5496
 9043TIP3    H148544   5.962   2.019   0.268  1.7456  1.1457 -0.9110
 9043TIP3    H248545   5.925   2.047   0.123 -0.3764  0.2104 -0.5676
 9044TIP3   OH248546   1.670   3.875  16.423 -0.4566 -0.0363  0.1141
 9044TIP3    H148547   1.636   3.849  16.508 -2.0056 -1.6179 -0.9660
 9044TIP3    H248548   1.755   3.831  16.417  1.0595  2.4940  2.0655
 9045TIP3   OH248549   6.084   1.031   5.866  0.0105 -0.5756 -0.2974
 9045TIP3    H148550   6.047   0.943   5.859  0.1223 -0.6023 -0.5629
 9045TIP3    H248551   6.012   1.090   5.841  0.1957 -0.6356 -0.9849
 9046TIP3   OH248552   6.393   0.461   4.521 -0.3511  0.7484  0.0332
 9046TIP3    H148553   6.370   0.368   4.527 -0.5139  0.6769 -1.6071
 9046TIP3    H248554   6.431   0.482   4.607 -0.4508 -0.7877  0.4621
 9047TIP3   OH248555   0.970   1.883   5.583 -0.2089 -0.1790 -0.3540
 9047TIP3    H148556   0.962   1.908   5.675  1.7061 -1.8507  0.3245
 9047TIP3    H248557   0.938   1.793   5.580  1.5093 -0.7843 -0.9441
 9048TIP3   OH248558   3.503   5.578  14.694  0.3613 -0.1871 -0.2487
 9048TIP3    H148559   3.542   5.585  14.607 -1.4620  1.6909 -0.9574
 9048TIP3    H248560   3.526   5.660  14.737 -1.7006  0.4197 -0.2447
 9049TIP3   OH248561   0.880   3.445   3.027 -0.0266 -0.6611 -0.1447
 9049TIP3    H148562   0.787   3.440   3.049 -0.1763 -0.8446 -0.7974
 9049TIP3    H248563   0.886   3.518   2.966  0.4176 -0.0111  0.6772
 9050TIP3   OH248564   1.160   2.369   3.165  0.1671  0.0676  0.1333
 9050TIP3    H148565   1.106   2.318   3.226  2.7963 -2.1592  0.7184
 9050TIP3    H248566   1.155   2.459   3.198 -1.9079 -0.3620  1.0724
 9051TIP3   OH248567   4.499   2.367  17.176  0.3137 -0.0980 -0.3942
 9051TIP3    H148568   4.454   2.419  17.109  1.6836  0.5954 -0.7889
 9051TIP3    H248569   4.473   2.277  17.157 -0.1302  0.1917 -1.2278
 9052TIP3   OH248570   0.286   6.352  12.551 -0.5641 -0.3977  0.0668
 9052TIP3    H148571   0.362   6.295  12.556  0.8113  1.3712 -0.0757
 9052TIP3    H248572   0.212   6.296  12.573  1.0624 -1.5219  2.9558
 9053TIP3   OH248573   4.930   6.026  10.987 -0.0525  0.2293 -0.0313
 9053TIP3    H148574   4.984   6.012  10.910 -1.0419 -0.6937 -0.5724
 9053TIP3    H248575   4.952   5.953  11.045  1.4280  1.4687  1.0061
 9054TIP3   OH248576   3.142   5.461   0.733 -0.9618 -0.2150 -0.3532
 9054TIP3    H148577   3.080   5.519   0.777 -3.1271  0.2032 -3.7541
 9054TIP3    H248578   3.190   5.419   0.804 -3.0379  1.7106  2.3225
 9055TIP3   OH248579   3.948   1.400   3.964  0.2809  0.0344  0.0736
 9055TIP3    H148580   4.021   1.438   4.012  0.6105  0.2248 -0.5811
 9055TIP3    H248581   3.875   1.402   4.026  0.2107  2.0016 -0.0606
 9056TIP3   OH248582   4.186   2.511  13.279  0.0028 -0.1758  0.3435
 9056TIP3    H148583   4.123   2.471  13.339 -1.4584 -0.0784 -1.0815
 9056TIP3    H248584   4.186   2.454  13.202 -1.1644  1.8349 -1.2071
 9057TIP3   OH248585   3.614   0.087   1.130  0.0582 -0.1042 -0.0901
 9057TIP3    H148586   3.566   0.161   1.094 -0.5706 -0.5931 -0.2597
 9057TIP3    H248587   3.563   0.060   1.206 -0.1042 -0.8165 -0.4487
 9058TIP3   OH248588   1.168   4.115  11.645  0.5287  0.4813 -0.2495
 9058TIP3    H148589   1.154   4.174  11.719  0.5773  0.9080 -0.5800
 9058TIP3    H248590   1.081   4.078  11.628  0.6140 -0.0242  0.3536
 9059TIP3   OH248591   2.159   6.637  15.845 -0.2053  0.0135  0.2406
 9059TIP3    H148592   2.095   6.704  15.869 -0.5776  0.0995 -0.9426
 9059TIP3    H248593   2.107   6.562  15.817  0.2145 -0.9201  1.9290
 9060TIP3   OH248594   2.187   2.974   2.141 -0.0462  0.3860  0.0113
 9060TIP3    H148595   2.130   2.920   2.195 -0.7932  0.7929 -0.3500
 9060TIP3    H248596   2.253   2.914   2.107 -0.5209 -0.1825  0.0833
 9061TIP3   OH248597   0.969   3.167  16.911  0.3488 -0.3528 -0.9275
 9061TIP3    H148598   0.972   3.111  16.834 -0.7818 -2.1328  0.2817
 9061TIP3    H248599   1.031   3.128  16.972 -0.6850 -0.4983  0.0538
 9062TIP3   OH248600   2.096   0.372   5.601 -0.0844  0.1336  0.5739
 9062TIP3    H148601   2.166   0.437   5.608 -1.1101  1.0184  3.7660
 9062TIP3    H248602   2.137   0.290   5.628  0.4497  0.0574 -0.4604
 9063TIP3   OH248603   0.133   5.120   5.053  0.1112  0.1164 -0.3151
 9063TIP3    H148604   0.125   5.151   4.963  0.1103  0.0514 -0.3375
 9063TIP3    H248605   0.217   5.073   5.055  1.0972  1.8437  0.2146
 9064TIP3   OH248606   3.548   1.417  12.920 -0.1576 -0.6429 -0.1091
 9064TIP3    H148607   3.495   1.465  12.856 -0.0595  0.3467  0.5354
 9064TIP3    H248608   3.590   1.347  12.870  0.2869  0.4054 -1.2237
 9065TIP3   OH248609   2.247   0.971  15.284  0.3494  0.1035  0.4317
 9065TIP3    H148610   2.198   0.903  15.330 -1.1345  0.3267 -0.7957
 9065TIP3    H248611   2.258   1.041  15.348 -3.0551  1.0727  0.0546
 9066TIP3   OH248612   2.799   2.326   3.607 -0.3450 -0.4346 -0.7139
 9066TIP3    H148613   2.818   2.285   3.523  0.3237  0.4952 -1.0262
 9066TIP3    H248614   2.866   2.394   3.616 -0.5385 -0.3930  0.4728
 9067TIP3   OH248615   2.889   5.064   5.615  0.3500  0.2205  0.3941
 9067TIP3    H148616   2.848   5.052   5.700 -0.8712  0.9672 -0.0792
 9067TIP3    H248617   2.973   5.019   5.622 -0.3358 -0.8933  1.5330
 9068TIP3   OH248618   3.657   3.555   2.963  0.5722 -0.0682  0.7096
 9068TIP3    H148619   3.582   3.597   2.920  0.5287  1.2568  2.0258
 9068TIP3    H248620   3.685   3.487   2.902 -0.7449  0.4361 -0.4859
 9069TIP3   OH248621   1.113   2.144  15.017  0.2390 -0.2283  0.1717
 9069TIP3    H148622   1.190   2.180  14.973  0.4914 -1.2003 -0.2075
 9069TIP3    H248623   1.046   2.211  15.008  1.2568  0.9508  1.1426
 9070TIP3   OH248624   5.011   4.236  15.684  0.4685 -0.3085 -0.1765
 9070TIP3    H148625   5.039   4.301  15.619  0.5244  0.9500  1.0908
 9070TIP3    H248626   5.060   4.157  15.660  1.9714  0.6852 -0.4948
 9071TIP3   OH248627   6.415   2.424  12.030  0.3969  0.4675 -0.2990
 9071TIP3    H148628   6.365   2.497  11.994 -1.3086  0.2574  1.5435
 9071TIP3    H248629   6.390   2.348  11.977 -1.6266  0.2805  0.8485
 9072TIP3   OH248630   5.272   6.561  14.004 -0.7019 -0.1200 -0.0090
 9072TIP3    H148631   5.215   6.498  13.960 -1.7820 -0.3725  1.6948
 9072TIP3    H248632   5.317   6.510  14.071 -1.5474  0.8641  1.3447
 9073TIP3   OH248633   0.602   3.509  11.955 -0.1776 -0.7381 -0.0203
 9073TIP3    H148634   0.574   3.576  11.893  0.4764 -0.9077 -0.5160
 9073TIP3    H248635   0.609   3.429  11.901  0.3167 -0.9050  0.2858
 9074TIP3   OH248636   0.992   1.287  13.636  0.0218  0.0549 -0.4394
 9074TIP3    H148637   1.012   1.276  13.729 -0.2796  1.1805 -0.2307
 9074TIP3    H248638   1.065   1.247  13.590  1.2300  1.3541  0.3083
 9075TIP3   OH248639   5.682   2.946  15.154  0.2571  0.6001  0.3212
 9075TIP3    H148640   5.709   3.036  15.137 -0.4246  0.8850  0.7326
 9075TIP3    H248641   5.654   2.946  15.246  0.7077 -0.1408  0.4670
 9076TIP3   OH248642   1.214   4.236   3.023  0.3133  0.2118  0.5055
 9076TIP3    H148643   1.142   4.299   3.024  1.6587  1.8662 -1.2609
 9076TIP3    H248644   1.249   4.237   3.112 -1.3602 -0.0432  1.1761
 9077TIP3   OH248645   1.421   3.122   3.193  0.0163  0.2301  0.0042
 9077TIP3    H148646   1.331   3.111   3.161 -0.2837 -0.4555  1.0833
 9077TIP3    H248647   1.425   3.214   3.221 -0.1317  0.4549 -0.6988
 9078TIP3   OH248648   4.507   1.745  16.855 -0.3470  0.4283 -0.0289
 9078TIP3    H148649   4.521   1.695  16.775  1.0962 -1.9753  1.6708
 9078TIP3    H248650   4.421   1.718  16.886 -0.6391  0.8906 -0.4321
 9079TIP3   OH248651   4.615   3.849   1.544 -0.1446  0.5169  0.2684
 9079TIP3    H148652   4.694   3.886   1.583 -0.7516 -0.7649  2.7923
 9079TIP3    H248653   4.606   3.762   1.582 -1.2353 -0.4984 -2.1549
 9080TIP3   OH248654   2.748   5.090  14.648  0.5611  0.4875 -0.1698
 9080TIP3    H148655   2.663   5.130  14.628  0.2004 -0.2073 -0.0637
 9080TIP3    H248656   2.799   5.160  14.688 -0.1961  0.7366  0.3827
 9081TIP3   OH248657   0.960   2.681   3.397  0.3069  0.0895 -0.5154
 9081TIP3    H148658   0.866   2.671   3.410  0.2885  1.9022  0.9109
 9081TIP3    H248659   0.995   2.702   3.483  2.1634 -1.4026 -0.8561
 9082TIP3   OH248660   4.865   1.998   4.284 -0.2745  0.6191  0.0077
 9082TIP3    H148661   4.787   1.945   4.306 -2.0612  2.1894 -2.2803
 9082TIP3    H248662   4.916   1.941   4.226 -1.7916  1.0414 -1.8027
 9083TIP3   OH248663   4.435   3.963  16.069 -0.5805 -0.3261 -0.4225
 9083TIP3    H148664   4.402   4.041  16.024  1.1515  0.5269 -0.2176
 9083TIP3    H248665   4.440   3.988  16.161 -0.2789 -0.7758 -0.3157
 9084TIP3   OH248666   4.166   5.550  14.084  1.4179 -0.1516 -0.0788
 9084TIP3    H148667   4.122   5.605  14.150  2.7749  0.9817 -0.0988
 9084TIP3    H248668   4.245   5.599  14.061  2.0243 -1.5430 -1.0133
 9085TIP3   OH248669   1.156   0.238   0.409  0.5636  0.0548  0.0446
 9085TIP3    H148670   1.136   0.303   0.342 -1.2649 -1.3439 -0.8143
 9085TIP3    H248671   1.250   0.249   0.426  0.4916  2.1979 -0.8126
 9086TIP3   OH248672   3.186   0.879   3.581 -0.6066 -0.7406  0.2749
 9086TIP3    H148673   3.255   0.827   3.538 -0.2489 -0.1360  0.1075
 9086TIP3    H248674   3.231   0.960   3.608 -1.1606 -0.5166  0.5263
 9087TIP3   OH248675   6.170   3.592  12.701 -0.5853  0.5941 -0.3393
 9087TIP3    H148676   6.093   3.634  12.740 -1.0401 -0.5847  0.0449
 9087TIP3    H248677   6.202   3.656  12.637 -1.2270  1.5525  0.2879
 9088TIP3   OH248678   0.729   6.569   0.180 -0.6739 -0.1534 -0.9020
 9088TIP3    H148679   0.649   6.613   0.208 -1.1350 -1.6718  0.2060
 9088TIP3    H248680   0.785   6.640   0.148 -1.2445  1.2839  1.2009
 9089TIP3   OH248681   2.580   5.045   0.786  0.2295  0.0273 -0.0225
 9089TIP3    H148682   2.599   4.991   0.863  1.1929 -0.4724 -0.6060
 9089TIP3    H248683   2.487   5.031   0.769  0.2289 -0.5919  0.4867
 9090TIP3   OH248684   1.163   6.103  13.297  0.6582  0.5855  0.4640
 9090TIP3    H148685   1.220   6.097  13.220  0.9349  1.5490  0.5929
 9090TIP3    H248686   1.102   6.174  13.277 -0.8860 -0.7975  0.0836
 9091TIP3   OH248687   1.942   5.553  14.126 -0.8627 -0.7330 -0.0333
 9091TIP3    H148688   1.985   5.522  14.206 -1.5071  2.6951  1.7362
 9091TIP3    H248689   1.849   5.551  14.146 -0.9972  0.7995 -0.3784
 9092TIP3   OH248690   0.286   3.900  17.182  0.5419 -0.1790  0.2850
 9092TIP3    H148691   0.360   3.902  17.122  1.1766 -0.4652  1.0624
 9092TIP3    H248692   0.253   3.810  17.177  0.1984 -0.0348 -0.1094
 9093TIP3   OH248693   5.681   6.130   0.917  0.2872 -0.2021 -0.9594
 9093TIP3    H148694   5.632   6.177   0.984  0.0559 -1.2602 -0.3852
 9093TIP3    H248695   5.714   6.199   0.859  0.1681  0.6824  0.0181
 9094TIP3   OH248696   0.760   0.065  11.221  0.0026  0.3682 -0.1849
 9094TIP3    H148697   0.676   0.055  11.176  0.7285  0.0562 -1.5210
 9094TIP3    H248698   0.822   0.083  11.150  0.7945  2.2104  0.9504
 9095TIP3   OH248699   2.379   1.867   4.483 -0.0005 -0.1589 -0.1432
 9095TIP3    H148700   2.305   1.831   4.532  0.8864  0.4704  1.6784
 9095TIP3    H248701   2.343   1.942   4.437 -0.1890  1.0617  1.9334
 9096TIP3   OH248702   6.136   6.322  15.126 -0.3798 -0.0793  0.6497
 9096TIP3    H148703   6.146   6.390  15.060 -0.5547 -0.7888 -0.1268
 9096TIP3    H248704   6.154   6.240  15.078  2.2911 -0.4097  2.1297
 9097TIP3   OH248705   6.327   0.875  16.670 -0.0086  0.0816  0.2585
 9097TIP3    H148706   6.282   0.819  16.607  0.0377 -0.2143  0.4854
 9097TIP3    H248707   6.258   0.902  16.731  0.2870 -1.1546  1.1743
 9098TIP3   OH248708   5.832   5.174  14.577  0.8337 -0.0672 -0.0958
 9098TIP3    H148709   5.797   5.256  14.610 -0.9094 -0.6459 -0.4629
 9098TIP3    H248710   5.852   5.123  14.656  1.0556  0.3410  0.1135
 9099TIP3   OH248711   1.828   1.057  13.015 -0.8354  0.4227  0.5159
 9099TIP3    H148712   1.802   0.983  12.959  2.0456 -1.1219  1.0703
 9099TIP3    H248713   1.769   1.053  13.089 -2.2808  0.1812 -0.6274
 9100TIP3   OH248714   4.662   1.025  12.679 -0.1887 -0.1940  0.3999
 9100TIP3    H148715   4.626   0.970  12.749 -0.0942 -1.0477 -0.2193
 9100TIP3    H248716   4.666   0.968  12.603 -0.9066  0.9187 -0.4896
 9101TIP3   OH248717   2.159   1.481   5.076 -0.5709  0.1221  0.0308
 9101TIP3    H148718   2.206   1.440   5.149 -1.1006  2.0046  1.4897
 9101TIP3    H248719   2.164   1.575   5.094 -3.1277  0.4898 -0.8489
 9102TIP3   OH248720   1.869   0.686  10.510 -0.1644  0.0988  0.2905
 9102TIP3    H148721   1.888   0.660  10.600 -3.1600 -2.5253  0.2494
 9102TIP3    H248722   1.816   0.615  10.475 -0.6185  1.9400 -2.9828
 9103TIP3   OH248723   4.539   4.177  13.057 -0.3195  0.0663 -0.0608
 9103TIP3    H148724   4.534   4.196  12.964  0.2772 -0.9520 -0.3093
 9103TIP3    H248725   4.473   4.109  13.072  2.0573 -2.4037 -0.4599
 9104TIP3   OH248726   3.265   5.477   4.498  0.7670 -0.0400  0.4691
 9104TIP3    H148727   3.177   5.469   4.535  1.1360 -0.4468  1.2800
 9104TIP3    H248728   3.320   5.499   4.574  1.6135 -1.3221  0.2266
 9105TIP3   OH248729   4.017   1.129  11.180  0.2348  0.3113 -0.1180
 9105TIP3    H148730   3.999   1.092  11.093 -0.6621  0.4696  0.0050
 9105TIP3    H248731   4.012   1.054  11.239 -0.5633  0.4463 -0.0102
 9106TIP3   OH248732   4.838   3.744  11.578  0.3920  0.9106  0.3143
 9106TIP3    H148733   4.792   3.668  11.540  2.4941 -0.7798  1.0352
 9106TIP3    H248734   4.876   3.788  11.502  2.8419 -1.2881  0.1876
 9107TIP3   OH248735   6.471   2.932   4.117 -0.1294  0.0478 -0.9826
 9107TIP3    H148736   6.411   2.962   4.185  0.1076 -0.8224 -0.3788
 9107TIP3    H248737   6.430   2.957   4.035 -1.3794 -0.6412 -0.5771
 9108TIP3   OH248738   3.099   1.960  14.233  0.1542 -0.2886  0.3494
 9108TIP3    H148739   3.190   1.973  14.259 -0.2786  3.3811  0.2464
 9108TIP3    H248740   3.051   1.948  14.315  0.3674  0.3614  0.5672
 9109TIP3   OH248741   5.431   3.656  13.163  0.5861  0.5894  0.0296
 9109TIP3    H148742   5.386   3.604  13.229  2.0490 -1.3382 -0.4632
 9109TIP3    H248743   5.390   3.631  13.080  1.9948 -0.6206 -0.3341
 9110TIP3   OH248744   1.377   3.953  10.672  0.7186  0.5116 -0.2382
 9110TIP3    H148745   1.316   4.006  10.724  0.0318 -0.5470  0.0483
 9110TIP3    H248746   1.325   3.877  10.645  1.8133 -0.2110 -0.3094
 9111TIP3   OH248747   0.084   2.044   4.640  0.1193 -0.2672 -0.3653
 9111TIP3    H148748   0.049   2.112   4.581 -0.6926  0.1949  0.6173
 9111TIP3    H248749   0.011   2.025   4.700  0.9997 -0.5499  0.6368
 9112TIP3   OH248750   6.250   2.727   5.984 -0.5610 -0.1447  0.3020
 9112TIP3    H148751   6.223   2.690   5.899 -0.2658 -0.5040  0.3659
 9112TIP3    H248752   6.168   2.733   6.034 -0.6651 -0.3830  0.1633
 9113TIP3   OH248753   0.824   4.417  12.639 -0.0360  0.1956  0.0361
 9113TIP3    H148754   0.773   4.349  12.596  0.4371 -1.3980  1.9272
 9113TIP3    H248755   0.910   4.414  12.597  0.1430 -0.7172  0.4731
 9114TIP3   OH248756   3.763   2.821  11.857  0.1462 -0.3711 -0.2051
 9114TIP3    H148757   3.757   2.878  11.780 -0.9906 -0.7085 -0.3794
 9114TIP3    H248758   3.674   2.819  11.892  0.5463 -0.6593  0.8082
 9115TIP3   OH248759   4.775   5.527   3.691 -0.4942 -0.3032 -0.1814
 9115TIP3    H148760   4.847   5.585   3.669  0.0249 -0.5109  0.9327
 9115TIP3    H248761   4.789   5.505   3.783 -0.8782 -1.9134 -0.4898
 9116TIP3   OH248762   6.456   4.307   3.872 -0.3185 -0.2243  0.2864
 9116TIP3    H148763   6.401   4.301   3.951 -1.1401  0.2037 -0.2362
 9116TIP3    H248764   6.421   4.383   3.825  0.7603  0.0767 -0.0440
 9117TIP3   OH248765   0.722   3.560  12.214  0.0729 -0.5164 -0.3334
 9117TIP3    H148766   0.655   3.505  12.254 -2.4382 -0.1721 -3.7883
 9117TIP3    H248767   0.699   3.561  12.120  1.6788  4.0124 -0.8125
 9118TIP3   OH248768   4.648   1.235  11.854  0.2638 -0.7887  0.0431
 9118TIP3    H148769   4.575   1.268  11.905  0.0230 -1.6582  0.2656
 9118TIP3    H248770   4.622   1.247  11.763  1.5797  2.7432  0.0732
 9119TIP3   OH248771   1.482   4.939   3.169 -0.1908  0.8406 -0.0914
 9119TIP3    H148772   1.514   4.851   3.149 -0.8102  0.1993  1.6953
 9119TIP3    H248773   1.534   4.997   3.112 -0.3747 -0.7338 -1.8939
 9120TIP3   OH248774   1.924   3.946   0.524 -0.0216  0.2590 -0.1445
 9120TIP3    H148775   1.947   3.940   0.431 -0.8368  1.8193 -0.4439
 9120TIP3    H248776   1.904   3.855   0.549 -1.1293  0.0109 -1.8322
 9121TIP3   OH248777   0.305   3.817  12.988 -0.7060 -0.2194 -0.5899
 9121TIP3    H148778   0.309   3.913  12.995 -1.2682 -0.2553  0.4668
 9121TIP3    H248779   0.225   3.794  13.035 -1.0206 -1.1503 -1.5794
 9122TIP3   OH248780   4.519   1.801   0.886  0.7789  0.3767  0.7078
 9122TIP3    H148781   4.431   1.770   0.868  0.8811 -0.4732  1.6702
 9122TIP3    H248782   4.577   1.738   0.843  0.9437  0.3644  0.9467
 9123TIP3   OH248783   5.913   3.069  12.502  0.1066  0.0562  0.0296
 9123TIP3    H148784   5.840   3.120  12.469 -1.5494 -2.7001 -0.7348
 9123TIP3    H248785   5.877   3.022  12.577  1.2453 -0.9288 -0.0307
 9124TIP3   OH248786   6.118   2.176  16.135  0.2772 -0.8009 -0.1988
 9124TIP3    H148787   6.107   2.111  16.204  0.5011 -1.3020 -0.6412
 9124TIP3    H248788   6.029   2.206  16.115  0.0769 -1.7608 -0.7638
 9125TIP3   OH248789   2.646   4.245   4.183  0.5462  0.3801 -0.4790
 9125TIP3    H148790   2.688   4.168   4.221 -0.0023 -0.2964 -1.2366
 9125TIP3    H248791   2.695   4.261   4.102  0.3473  0.5416 -0.5667
 9126TIP3   OH248792   2.424   2.497  12.660 -0.3884 -0.0190  0.2977
 9126TIP3    H148793   2.495   2.561  12.649 -1.0517  2.2382  6.4526
 9126TIP3    H248794   2.464   2.426  12.710 -1.3462 -1.0529 -0.4035
 9127TIP3   OH248795   0.388   6.476   1.833 -0.0974 -0.4012  0.3320
 9127TIP3    H148796   0.355   6.422   1.761  2.0730 -0.8006 -0.4134
 9127TIP3    H248797   0.384   6.420   1.910  3.9728 -2.4175 -0.7863
 9128TIP3   OH248798   1.918   1.364  10.877  0.1160  0.0053  0.1073
 9128TIP3    H148799   1.993   1.422  10.889  0.4242 -0.1683 -0.9061
 9128TIP3    H248800   1.957   1.277  10.867 -0.2681 -0.1869  0.2910
 9129TIP3   OH248801   1.676   1.542   0.987 -1.0177  0.2769  0.5311
 9129TIP3    H148802   1.687   1.579   1.075 -0.1381 -0.5341  0.7710
 9129TIP3    H248803   1.704   1.451   0.996  0.3982  0.5497 -0.8894
 9130TIP3   OH248804   4.239   5.444   5.825  0.4718 -0.1906  0.3307
 9130TIP3    H148805   4.273   5.494   5.899 -0.8985  0.3572  0.6124
 9130TIP3    H248806   4.152   5.481   5.810  0.5274 -0.6594 -1.2117
 9131TIP3   OH248807   3.316   2.864  13.098 -0.2671 -0.2365 -0.2381
 9131TIP3    H148808   3.367   2.847  13.177 -1.2011  1.8141  0.8568
 9131TIP3    H248809   3.238   2.808  13.108  0.3258 -1.1130 -0.4580
 9132TIP3   OH248810   3.916   2.170  16.220  0.3377 -0.0502 -0.0784
 9132TIP3    H148811   3.863   2.098  16.187 -0.1395  0.4411 -0.3924
 9132TIP3    H248812   4.004   2.153  16.186 -0.2781  0.8096 -2.2049
 9133TIP3   OH248813   4.594   2.772   1.902  0.4993  0.0847  0.0409
 9133TIP3    H148814   4.688   2.765   1.913  0.7878  0.2233 -2.2206
 9133TIP3    H248815   4.582   2.804   1.813 -1.6571  0.9300  0.6000
 9134TIP3   OH248816   2.000   1.327  11.948  0.0466 -0.2249 -0.2554
 9134TIP3    H148817   1.917   1.289  11.919  0.9399 -2.0676 -0.4698
 9134TIP3    H248818   1.975   1.393  12.012 -1.5529 -1.2827  0.2376
 9135TIP3   OH248819   5.954   4.541   5.004 -0.2030 -0.3895  0.1032
 9135TIP3    H148820   5.998   4.540   4.919  0.2329  1.7501  0.2569
 9135TIP3    H248821   5.929   4.633   5.017 -0.0846 -0.6313  2.3539
 9136TIP3   OH248822   6.202   0.921  15.141  1.0253 -0.2564  0.4060
 9136TIP3    H148823   6.138   0.951  15.205  2.2331  0.4524  1.2907
 9136TIP3    H248824   6.206   0.991  15.076 -0.4356 -1.1150 -0.6550
 9137TIP3   OH248825   1.244   6.207  15.794  0.6148 -0.3379 -0.6396
 9137TIP3    H148826   1.240   6.295  15.757  1.8244 -0.0418 -0.0913
 9137TIP3    H248827   1.212   6.150  15.724 -1.1577  0.6114 -0.6519
 9138TIP3   OH248828   5.025   2.113  14.292 -0.0754 -0.3732  0.1082
 9138TIP3    H148829   4.997   2.188  14.238  0.6704 -0.3404 -0.2360
 9138TIP3    H248830   5.080   2.061  14.234 -0.5056 -1.1401  0.3853
 9139TIP3   OH248831   1.557   6.427  13.466 -0.6693 -0.4908 -0.7740
 9139TIP3    H148832   1.533   6.357  13.406 -1.0464  0.2619 -1.5052
 9139TIP3    H248833   1.591   6.381  13.543 -0.9855 -1.4768 -1.2095
 9140TIP3   OH248834   5.035   0.372   1.834 -0.2167  0.6804 -0.1762
 9140TIP3    H148835   5.122   0.404   1.859 -0.9451  2.9238 -0.3674
 9140TIP3    H248836   5.053   0.296   1.779  1.6431  1.2021 -0.3481
 9141TIP3   OH248837   0.104   6.027   4.735  0.2221  0.5624  0.0829
 9141TIP3    H148838   0.111   5.993   4.646 -0.1280 -0.3418  0.4014
 9141TIP3    H248839   0.012   6.019   4.757  0.8545 -2.5993  1.8353
 9142TIP3   OH248840   5.626   5.731   4.022 -0.6320  0.6531  0.4003
 9142TIP3    H148841   5.709   5.714   4.067 -0.8892  1.8665  1.3517
 9142TIP3    H248842   5.592   5.644   4.000  2.2875  0.1807 -2.6469
 9143TIP3   OH248843   1.945   5.622  11.535  0.5006  0.1068 -0.1533
 9143TIP3    H148844   2.007   5.570  11.483  1.8554  0.3633  1.1984
 9143TIP3    H248845   1.875   5.560  11.556  1.5724 -0.9006  0.5366
 9144TIP3   OH248846   0.079   0.513  11.598 -0.0689 -0.3948  0.1236
 9144TIP3    H148847   0.041   0.510  11.686 -0.0717  2.1346  0.2616
 9144TIP3    H248848   0.050   0.598  11.564  0.6534 -0.9899 -1.9859
 9145TIP3   OH248849   3.507   1.777   0.264 -0.0765  0.1767 -0.0359
 9145TIP3    H148850   3.580   1.715   0.272  0.4766  0.1976 -3.7184
 9145TIP3    H248851   3.434   1.734   0.307  1.3886 -1.1035  1.2414
 9146TIP3   OH248852   2.697   3.795   2.916 -0.3179 -0.2491 -0.3493
 9146TIP3    H148853   2.746   3.805   2.998  1.9486 -0.2543 -1.6665
 9146TIP3    H248854   2.605   3.806   2.941  0.1319 -2.5407  2.5888
 9147TIP3   OH248855   3.952   2.439  13.398 -0.1156 -0.7158  0.3921
 9147TIP3    H148856   3.906   2.442  13.482  2.0619  0.9012  1.5772
 9147TIP3    H248857   3.912   2.510  13.346  0.0361 -0.2677  0.8826
 9148TIP3   OH248858   1.360   0.425   1.942 -0.4416 -0.0848 -0.3342
 9148TIP3    H148859   1.449   0.393   1.951  0.2663  2.1433  0.6829
 9148TIP3    H248860   1.312   0.384   2.014  0.3328  0.6849  0.6251
 9149TIP3   OH248861   3.091   2.077   2.695  0.0366  0.7331  0.7034
 9149TIP3    H148862   3.134   2.000   2.731 -1.8205 -0.9236 -0.4974
 9149TIP3    H248863   2.998   2.062   2.712 -0.4026  2.4009 -0.1321
 9150TIP3   OH248864   3.368   2.708   2.605  0.5169 -0.2450  0.3045
 9150TIP3    H148865   3.349   2.668   2.689  1.4198 -0.1025  0.5775
 9150TIP3    H248866   3.450   2.668   2.577  1.0099  0.8311  0.2072
 9151TIP3   OH248867   0.011   1.666   4.871  0.0482 -0.4254  0.1546
 9151TIP3    H148868  -0.054   1.663   4.801  0.7065  0.8409 -0.5182
 9151TIP3    H248869   0.095   1.650   4.828  0.7270  2.5411  0.2743
 9152TIP3   OH248870   0.161   2.675  11.926 -0.4906  0.2543 -0.3602
 9152TIP3    H148871   0.245   2.719  11.938 -0.7014  0.8555 -1.0986
 9152TIP3    H248872   0.097   2.731  11.971 -0.5261 -0.1319  0.0842
 9153TIP3   OH248873   2.103   3.251  14.838 -0.0970  0.0335 -0.1469
 9153TIP3    H148874   2.114   3.161  14.809 -0.4779 -0.4045  1.0397
 9153TIP3    H248875   2.071   3.298  14.761 -1.0129 -1.0920 -0.4625
 9154TIP3   OH248876   5.869   5.191   2.632  0.1396  0.2332 -0.4626
 9154TIP3    H148877   5.919   5.254   2.683  0.4383  0.4284 -0.9957
 9154TIP3    H248878   5.777   5.217   2.645  0.0800 -0.9160  1.5609
 9155TIP3   OH248879   2.876   1.074   0.334 -0.3598 -0.1073  0.3877
 9155TIP3    H148880   2.818   1.109   0.267  0.3320  0.4671  0.0846
 9155TIP3    H248881   2.838   0.989   0.356 -0.1346 -0.6702 -1.3243
 9156TIP3   OH248882   3.946   4.492   5.205 -0.4105 -0.0151 -0.5575
 9156TIP3    H148883   4.042   4.493   5.204 -0.4054  1.6877 -0.7138
 9156TIP3    H248884   3.923   4.402   5.227  1.2287 -0.4250 -0.4383
 9157TIP3   OH248885   1.142   3.684   1.066  0.1722  0.3453  0.4974
 9157TIP3    H148886   1.097   3.729   0.994  0.3706  1.6828  1.2140
 9157TIP3    H248887   1.113   3.593   1.058 -2.4745  1.1246  0.7986
 9158TIP3   OH248888   5.906   2.786  13.182  0.0523 -0.1071 -0.6632
 9158TIP3    H148889   5.900   2.794  13.278  1.9440  0.0248 -0.5361
 9158TIP3    H248890   5.955   2.705  13.168 -0.1656 -0.0878 -1.5216
 9159TIP3   OH248891   5.911   5.532   5.674 -0.2527 -0.5707 -0.1660
 9159TIP3    H148892   5.852   5.559   5.745  0.1110 -0.5896  0.1420
 9159TIP3    H248893   5.893   5.439   5.662  0.3493 -0.7715  0.5236
 9160TIP3   OH248894   4.698   4.533   3.200  0.0147  0.4353 -0.2400
 9160TIP3    H148895   4.789   4.519   3.175 -0.4115 -1.2310 -0.9218
 9160TIP3    H248896   4.649   4.467   3.150 -1.3690  0.1814  1.4056
 9161TIP3   OH248897   4.090   5.395  13.188 -0.7115 -0.0970 -0.0265
 9161TIP3    H148898   4.132   5.320  13.230 -0.1149 -0.1463 -0.7108
 9161TIP3    H248899   4.064   5.452  13.261  2.3514  0.9158  0.3293
 9162TIP3   OH248900   2.257   5.120  11.286 -0.3971 -0.1442  0.4530
 9162TIP3    H148901   2.323   5.185  11.263 -0.9326  1.1753  2.4439
 9162TIP3    H248902   2.206   5.108  11.206  1.7339 -0.6172 -0.8906
 9163TIP3   OH248903   4.165   5.195   3.399  0.2018 -0.4030 -0.0976
 9163TIP3    H148904   4.180   5.100   3.400 -0.1013 -0.4523  0.9250
 9163TIP3    H248905   4.072   5.205   3.421  0.3122  0.1436  0.1307
 9164TIP3   OH248906   4.693   5.231  14.398  0.2015 -0.8245 -0.3636
 9164TIP3    H148907   4.604   5.196  14.388  0.0981 -0.9747  0.9321
 9164TIP3    H248908   4.750   5.158  14.377 -0.0053 -1.3904  0.9880
 9165TIP3   OH248909   0.795   6.410  14.143  0.6415  0.0846  0.6487
 9165TIP3    H148910   0.711   6.410  14.096  1.3419  0.3122 -0.6445
 9165TIP3    H248911   0.826   6.320  14.137  0.3185 -0.0787  1.4405
 9166TIP3   OH248912   0.168   1.965  15.174  0.7565  0.0013 -0.5009
 9166TIP3    H148913   0.260   1.991  15.184  0.8365 -0.4896  0.0340
 9166TIP3    H248914   0.164   1.923  15.089  1.6404 -2.6206  0.7132
 9167TIP3   OH248915   1.573   4.062  10.505 -0.3709 -0.0858  0.1076
 9167TIP3    H148916   1.512   4.041  10.576  0.4918 -1.7284  0.3748
 9167TIP3    H248917   1.610   4.147  10.529 -2.0704  0.6168  0.2634
 9168TIP3   OH248918   2.077   3.427  15.289 -0.0131  0.4162  0.1002
 9168TIP3    H148919   2.132   3.366  15.240 -2.6163 -2.6920  0.8689
 9168TIP3    H248920   2.001   3.441  15.233 -0.7927  0.6137  1.1876
 9169TIP3   OH248921   1.956   4.428   0.683 -0.2887 -0.0370  0.1819
 9169TIP3    H148922   1.967   4.349   0.630 -3.1157  0.7953 -1.8034
 9169TIP3    H248923   1.971   4.500   0.622 -1.9165  0.9414  0.8804
 9170TIP3   OH248924   2.317   2.232  11.865  0.5311  0.0010  0.6720
 9170TIP3    H148925   2.291   2.208  11.954  0.4986 -0.3531  0.5666
 9170TIP3    H248926   2.249   2.195  11.809  0.0684  0.9814  0.5604
 9171TIP3   OH248927   1.170   5.368   3.082 -0.2982  0.1946  0.4022
 9171TIP3    H148928   1.121   5.316   3.145  1.1014 -1.2905  0.2818
 9171TIP3    H248929   1.142   5.336   2.997 -2.0101  2.0390  0.2206
 9172TIP3   OH248930   3.012   3.359  10.486 -0.3127 -0.5394 -0.2577
 9172TIP3    H148931   3.015   3.455  10.476 -1.9205 -0.5264 -0.7909
 9172TIP3    H248932   3.101   3.330  10.467 -0.2053  0.7085 -1.7691
 9173TIP3   OH248933   1.243   4.410  13.478 -0.4405 -0.5892 -0.1084
 9173TIP3    H148934   1.316   4.448  13.430 -1.0322 -1.4155 -1.6823
 9173TIP3    H248935   1.232   4.322  13.441 -1.9560 -0.6365  0.4072
 9174TIP3   OH248936   6.593   6.640   5.923 -0.0631  0.5177  0.2695
 9174TIP3    H148937   6.671   6.632   5.869  0.1915 -0.3192  0.7604
 9174TIP3    H248938   6.520   6.638   5.860  0.2488 -0.0945 -0.0766
 9175TIP3   OH248939   6.355   4.868  16.944 -0.0274  0.0860  0.5077
 9175TIP3    H148940   6.444   4.892  16.918 -0.7593  1.2846 -0.9250
 9175TIP3    H248941   6.366   4.786  16.993  1.7087 -0.5547 -0.9006
 9176TIP3   OH248942   4.010   0.682   1.249  0.1811  0.3101 -0.5984
 9176TIP3    H148943   3.923   0.644   1.239  0.9684 -1.4855 -0.8531
 9176TIP3    H248944   4.037   0.704   1.160  0.4884 -0.3108 -0.6631
 9177TIP3   OH248945   1.444   5.970  13.671  0.8880  0.2611  0.2008
 9177TIP3    H148946   1.521   5.983  13.615  0.6243 -0.9870 -0.4744
 9177TIP3    H248947   1.370   5.973  13.610  0.5349 -0.2609  0.6046
 9178TIP3   OH248948   1.689   3.013  15.146 -0.5800  0.2278 -0.0642
 9178TIP3    H148949   1.740   3.060  15.081  0.7679 -1.3945 -0.2356
 9178TIP3    H248950   1.627   2.961  15.095 -0.0793 -0.4107 -0.0348
 9179TIP3   OH248951   5.394   3.717   1.815  0.0960 -0.6515 -0.0657
 9179TIP3    H148952   5.321   3.779   1.807  1.0791  0.3399 -1.5927
 9179TIP3    H248953   5.355   3.640   1.856 -1.8066 -0.0960 -0.7541
 9180TIP3   OH248954   1.945   1.077  15.667 -0.0665 -0.4023 -0.1482
 9180TIP3    H148955   1.949   1.000  15.724 -0.9257 -0.1800  0.2152
 9180TIP3    H248956   1.855   1.108  15.675 -0.0492 -0.0523 -1.2113
 9181TIP3   OH248957   6.636   0.814   3.150 -0.4120  0.0335 -0.0274
 9181TIP3    H148958   6.684   0.796   3.069  1.2040 -1.6471  1.2430
 9181TIP3    H248959   6.668   0.899   3.179 -0.8041  0.5223 -0.9804
 9182TIP3   OH248960   2.928   6.217   4.010 -0.1562 -0.2446 -0.0620
 9182TIP3    H148961   2.920   6.278   4.083  0.4251 -1.7541  1.2896
 9182TIP3    H248962   2.958   6.136   4.050 -0.1270 -1.1831 -1.9474
 9183TIP3   OH248963   0.994   2.224   3.326  0.1070 -0.2419  0.3041
 9183TIP3    H148964   0.908   2.243   3.363 -1.3139 -3.1753 -1.2994
 9183TIP3    H248965   1.021   2.142   3.368  0.6424 -1.0348 -1.5290
 9184TIP3   OH248966   2.096   0.857   5.665 -0.2381 -0.8042 -0.3601
 9184TIP3    H148967   2.048   0.907   5.599 -0.8186 -0.0258  0.6433
 9184TIP3    H248968   2.049   0.773   5.670 -1.1450 -0.2607  0.2088
 9185TIP3   OH248969   1.125   4.867  16.515  0.6637  0.3510  0.3652
 9185TIP3    H148970   1.187   4.799  16.543 -0.6062 -2.0260 -2.3012
 9185TIP3    H248971   1.040   4.837  16.548 -0.0412  0.1490 -1.5567
 9186TIP3   OH248972   3.061   5.294   3.201 -0.1220  0.3148 -0.3989
 9186TIP3    H148973   3.148   5.326   3.177  0.7716 -2.1556 -0.6946
 9186TIP3    H248974   3.039   5.231   3.132 -2.0271  0.7339 -0.1797
 9187TIP3   OH248975   2.234   5.508  17.156 -0.3328 -0.4019 -0.3717
 9187TIP3    H148976   2.149   5.545  17.178 -0.5691 -0.3984 -1.2617
 9187TIP3    H248977   2.273   5.486  17.240 -1.0890 -0.1233  0.0606
 9188TIP3   OH248978   1.514   1.487   5.143  0.1034 -0.5981 -0.1931
 9188TIP3    H148979   1.468   1.558   5.097  2.4650  0.0877 -1.5591
 9188TIP3    H248980   1.528   1.420   5.075  1.0402 -0.8444  0.2480
 9189TIP3   OH248981   5.129   2.138   5.526  0.0641 -0.3752  0.4030
 9189TIP3    H148982   5.137   2.062   5.469  1.0249  0.1639 -0.2005
 9189TIP3    H248983   5.175   2.208   5.480 -1.6890  0.8601  0.4640
 9190TIP3   OH248984   4.455   4.878  14.606 -0.3173  0.3705  0.3537
 9190TIP3    H148985   4.482   4.969  14.621  0.5328  0.2226 -0.2782
 9190TIP3    H248986   4.375   4.886  14.554  0.5908  0.7372 -1.0035
 9191TIP3   OH248987   5.276   5.894   1.096 -0.1532  0.2154 -0.1342
 9191TIP3    H148988   5.221   5.971   1.113  0.5570  0.8637 -0.7190
 9191TIP3    H248989   5.322   5.879   1.179 -0.3206  0.4071 -0.0063
 9192TIP3   OH248990   6.319   0.220  12.814 -0.7837 -0.3349  0.0154
 9192TIP3    H148991   6.313   0.315  12.820 -1.9369 -0.3823 -0.2399
 9192TIP3    H248992   6.377   0.204  12.739 -2.7391  0.1794 -1.6478
 9193TIP3   OH248993   2.665   4.382   1.649 -0.3436  0.0757 -0.5069
 9193TIP3    H148994   2.648   4.417   1.562  0.8336  1.9641 -0.0046
 9193TIP3    H248995   2.607   4.306   1.656 -2.5856  1.6230 -1.8244
 9194TIP3   OH248996   6.154   1.456   0.784  0.6278 -0.0225  0.3534
 9194TIP3    H148997   6.249   1.470   0.787  0.4786  1.3837 -0.8751
 9194TIP3    H248998   6.143   1.363   0.802  2.4063 -0.7218 -1.9616
 9195TIP3   OH248999   4.893   6.071  12.093 -0.1010 -0.3077 -0.0981
 9195TIP3    H149000   4.910   6.034  12.180 -1.4854 -0.7710 -0.0076
 9195TIP3    H249001   4.906   5.998  12.033  0.2125 -0.1515 -0.2228
 9196TIP3   OH249002   4.424   3.973  15.314  0.5679 -0.3024  0.3375
 9196TIP3    H149003   4.509   4.011  15.335  0.3648  0.8613 -0.8888
 9196TIP3    H249004   4.370   3.992  15.390  0.9693  0.2906  0.4786
 9197TIP3   OH249005   3.068   5.925  11.664 -0.5093  0.2519  0.5976
 9197TIP3    H149006   3.002   5.873  11.710 -0.5939 -0.3509 -0.1886
 9197TIP3    H249007   3.139   5.935  11.728 -0.6803 -0.4758  0.9095
 9198TIP3   OH249008   4.962   1.807   3.890  0.1402  0.7794 -1.3237
 9198TIP3    H149009   4.915   1.756   3.957  2.6348 -0.4540 -0.4252
 9198TIP3    H249010   4.898   1.871   3.860 -1.8544 -0.2930  0.4258
 9199TIP3   OH249011   5.422   0.197   5.210 -0.3153  0.0644 -0.0863
 9199TIP3    H149012   5.458   0.285   5.198 -1.0372  0.3984  0.1223
 9199TIP3    H249013   5.391   0.172   5.123  2.0284 -0.9635 -0.6480
 9200TIP3   OH249014   5.796   1.164   2.335 -0.5625  0.0273  0.2523
 9200TIP3    H149015   5.793   1.099   2.265  2.0986 -0.5051  0.5944
 9200TIP3    H249016   5.885   1.198   2.333 -1.8013  3.4491  0.3060
 9201TIP3   OH249017   2.867   1.622  13.393  0.2310  0.2232 -0.6171
 9201TIP3    H149018   2.844   1.529  13.399  0.4510  0.0814 -2.0054
 9201TIP3    H249019   2.853   1.645  13.301  0.9129  1.3787 -0.4407
 9202TIP3   OH249020   1.374   6.001  12.047 -0.4242  0.4046  0.9615
 9202TIP3    H149021   1.286   5.994  12.085 -0.9951 -0.8119 -0.5361
 9202TIP3    H249022   1.359   6.008  11.952  1.0600  0.8641  0.7477
 9203TIP3   OH249023   4.719   4.171   2.684  0.2638  0.0808 -0.4525
 9203TIP3    H149024   4.771   4.098   2.653 -1.1586 -0.7900 -0.8605
 9203TIP3    H249025   4.632   4.156   2.647 -0.3905  1.2831  0.5261
 9204TIP3   OH249026   5.806   5.050   0.833 -0.7599  0.3375  0.0929
 9204TIP3    H149027   5.827   5.075   0.743  0.4671 -0.1330  0.2404
 9204TIP3    H249028   5.842   5.121   0.887 -0.1879 -0.0979  0.2978
 9205TIP3   OH249029   3.329   0.897   0.323  0.1329  0.3008 -0.1194
 9205TIP3    H149030   3.378   0.841   0.384 -1.0669 -0.5819  0.0534
 9205TIP3    H249031   3.242   0.904   0.362  0.0670  1.7493 -0.4973
 9206TIP3   OH249032   5.144   3.643  14.225  0.4071 -0.0641 -0.1387
 9206TIP3    H149033   5.173   3.554  14.247 -0.7385 -0.2671  0.6150
 9206TIP3    H249034   5.143   3.689  14.309 -2.5256 -0.3914  0.0600
 9207TIP3   OH249035   0.826   4.051   0.559  0.2735 -0.2514 -0.2509
 9207TIP3    H149036   0.827   4.143   0.583  0.2684  0.4050 -2.6569
 9207TIP3    H249037   0.832   4.051   0.463 -1.0110 -2.7091 -0.3650
 9208TIP3   OH249038   0.730   3.867  14.506  0.0115  0.2767 -0.4057
 9208TIP3    H149039   0.721   3.793  14.566  1.2933  0.8039  0.4675
 9208TIP3    H249040   0.642   3.905  14.501  0.0901  0.9201  2.0946
 9209TIP3   OH249041   0.363   0.687  14.245  0.2246  0.6097  0.2501
 9209TIP3    H149042   0.450   0.660  14.217  0.0490 -1.7013  1.8305
 9209TIP3    H249043   0.324   0.609  14.285 -1.3621  2.4206  2.4385
 9210TIP3   OH249044   5.874   3.199   3.364  0.4096 -0.1833 -0.4239
 9210TIP3    H149045   5.881   3.118   3.314  0.8682  0.7732 -1.9509
 9210TIP3    H249046   5.783   3.202   3.393  0.3709 -1.1917 -0.4459
 9211TIP3   OH249047   5.923   1.384  13.182 -0.0741  0.3615  0.4872
 9211TIP3    H149048   5.911   1.318  13.114  1.1145  0.5750  0.0575
 9211TIP3    H249049   6.009   1.365  13.219 -0.1455  1.0684  1.0246
 9212TIP3   OH249050   3.855   1.545  12.665  0.0067  0.4492 -0.4311
 9212TIP3    H149051   3.871   1.461  12.708  0.5293  0.4293 -0.6571
 9212TIP3    H249052   3.818   1.601  12.733  1.5081  0.6429  0.2526
 9213TIP3   OH249053   5.981   3.969   3.387  0.9857 -0.3350 -0.2926
 9213TIP3    H149054   5.903   4.009   3.348  0.0985 -0.2465  1.5220
 9213TIP3    H249055   5.961   3.875   3.390  1.3309 -0.4215 -0.6704
 9214TIP3   OH249056   4.316   1.182   0.253  0.3315 -0.0198 -0.0105
 9214TIP3    H149057   4.259   1.215   0.322 -0.4113  0.2523 -0.7334
 9214TIP3    H249058   4.312   1.087   0.262 -0.9770 -0.0461 -0.6003
 9215TIP3   OH249059   1.000   4.210  13.764 -0.2748 -0.0631  0.5366
 9215TIP3    H149060   0.977   4.120  13.739 -0.8111 -0.1539  1.3161
 9215TIP3    H249061   0.986   4.212  13.859  0.5262  0.6181  0.6421
 9216TIP3   OH249062   1.084   5.599   5.350 -0.1214 -0.3608  0.3772
 9216TIP3    H149063   1.158   5.540   5.364 -1.4538 -1.7057  1.9285
 9216TIP3    H249064   1.115   5.662   5.284  1.7984 -1.9188 -0.2356
 9217TIP3   OH249065   5.347   6.366   5.323 -0.8299 -0.1959 -0.6185
 9217TIP3    H149066   5.440   6.361   5.304 -1.0972 -1.3089 -1.7003
 9217TIP3    H249067   5.341   6.361   5.419  0.1271 -1.7983 -0.6303
 9218TIP3   OH249068   1.720   5.256   6.544 -0.2051 -0.0408  0.0250
 9218TIP3    H149069   1.744   5.211   6.463  0.6011 -1.4585  1.0386
 9218TIP3    H249070   1.673   5.334   6.514  1.1373  0.0966 -1.8404
 9219TIP3   OH249071   5.831   4.110  12.254 -0.0194  0.3934 -0.5191
 9219TIP3    H149072   5.912   4.068  12.225 -0.3092 -0.2338 -0.4465
 9219TIP3    H249073   5.843   4.124  12.348 -0.0728  0.1065 -0.4667
 9220TIP3   OH249074   6.521   3.773  12.685 -0.1101  0.2420 -0.5495
 9220TIP3    H149075   6.608   3.756  12.647  0.0456  0.2925 -0.2132
 9220TIP3    H249076   6.532   3.758  12.779 -0.3998  0.5193 -0.4719
 9221TIP3   OH249077   1.830   4.576   0.264  0.1803  0.6846  0.0363
 9221TIP3    H149078   1.736   4.593   0.266  0.2224  1.1820 -1.6371
 9221TIP3    H249079   1.838   4.483   0.243  0.0538  0.1332  2.2909
 9222TIP3   OH249080   4.619   4.027  10.485  0.3861  0.3501 -0.1003
 9222TIP3    H149081   4.572   4.055  10.564 -2.2354 -2.2519 -0.6732
 9222TIP3    H249082   4.602   3.933  10.479  4.0199 -0.3075 -1.4947
 9223TIP3   OH249083   0.739   0.588  15.274 -0.3210 -0.6663  0.0679
 9223TIP3    H149084   0.774   0.584  15.363 -0.0372  0.4281  0.0077
 9223TIP3    H249085   0.653   0.547  15.281  0.7319 -2.9035  0.3215
 9224TIP3   OH249086   1.676   3.642  13.223  0.1936  0.1022 -0.1422
 9224TIP3    H149087   1.735   3.671  13.292 -0.1057 -2.0899  1.0681
 9224TIP3    H249088   1.730   3.582  13.170 -0.4159 -0.4646 -0.1189
 9225TIP3   OH249089   0.350   3.837   6.679  0.2657  0.1285 -0.2842
 9225TIP3    H149090   0.382   3.920   6.715 -0.1920 -0.6557  1.9702
 9225TIP3    H249091   0.380   3.838   6.588  2.6559  1.5297  0.4579
 9226TIP3   OH249092   2.437   2.200   0.341  0.1845  0.6220  0.3935
 9226TIP3    H149093   2.351   2.235   0.364 -0.2501  0.9305 -1.6563
 9226TIP3    H249094   2.421   2.140   0.269  1.4852 -0.6462  1.1249
 9227TIP3   OH249095   3.011   4.138  13.401 -0.2530 -0.2598  0.6260
 9227TIP3    H149096   3.067   4.062  13.418 -0.3352 -0.2473  0.9565
 9227TIP3    H249097   2.947   4.106  13.336  0.8313  0.0578 -0.6220
 9228TIP3   OH249098   1.778   4.831   5.988 -0.4004 -0.1157  0.3766
 9228TIP3    H149099   1.812   4.759   6.042 -0.6578  0.1187  0.8545
 9228TIP3    H249100   1.724   4.883   6.048 -0.2406  0.4623  0.0280
 9229TIP3   OH249101   2.685   2.327  14.434 -0.2026  0.2442 -0.1487
 9229TIP3    H149102   2.620   2.257  14.438 -0.4851  0.6053  3.6221
 9229TIP3    H249103   2.632   2.407  14.428 -0.0245  0.3750  0.0341
 9230TIP3   OH249104   1.888   4.347  14.575  0.2016  0.4859 -0.1131
 9230TIP3    H149105   1.817   4.339  14.511 -0.2817 -0.3149  0.5188
 9230TIP3    H249106   1.963   4.306  14.533 -0.0637  0.1349 -0.2454
 9231TIP3   OH249107   1.648   5.363  12.584  0.0281 -0.1091  0.0609
 9231TIP3    H149108   1.636   5.273  12.614 -2.3417  0.1116 -0.1675
 9231TIP3    H249109   1.590   5.416  12.638 -0.1353  1.0193 -1.1761
 9232TIP3   OH249110   3.179   0.216  12.821  0.2230 -0.4256  0.5143
 9232TIP3    H149111   3.146   0.135  12.781 -0.4382 -0.5675  1.3366
 9232TIP3    H249112   3.111   0.281  12.802  0.3764 -0.2562  0.5481
 9233TIP3   OH249113   4.811   3.340  10.766 -0.0946 -0.2157  0.1718
 9233TIP3    H149114   4.877   3.407  10.752 -0.5827 -0.1544 -1.9391
 9233TIP3    H249115   4.746   3.381  10.823 -0.2583  1.0218 -0.8939
 9234TIP3   OH249116   6.022   2.705   3.170  0.2564  0.2777  0.1053
 9234TIP3    H149117   6.108   2.744   3.186 -0.3885  2.0464 -0.6820
 9234TIP3    H249118   6.038   2.635   3.107  1.0833  0.7099 -0.1614
 9235TIP3   OH249119   4.463   1.616  11.221  0.7935 -0.0724 -0.1959
 9235TIP3    H149120   4.470   1.581  11.132  0.5946 -0.5061 -0.0441
 9235TIP3    H249121   4.413   1.697  11.212  2.0510  0.6576 -0.6777
 9236TIP3   OH249122   4.254   4.245  12.496  0.5865  0.6615 -0.0394
 9236TIP3    H149123   4.340   4.257  12.454  1.0463 -2.5237 -0.1377
 9236TIP3    H249124   4.271   4.257  12.589  0.7945  1.6532 -0.1970
 9237TIP3   OH249125   2.789   0.530  11.631 -0.0591  0.4119  0.1641
 9237TIP3    H149126   2.728   0.477  11.683 -0.4017  0.5858 -0.0657
 9237TIP3    H249127   2.875   0.496  11.655 -0.1458  1.2009  1.6674
 9238TIP3   OH249128   6.740   4.727  15.099  0.3158  0.2276 -0.0290
 9238TIP3    H149129   6.719   4.809  15.144 -0.4414 -1.3373  2.5391
 9238TIP3    H249130   6.718   4.659  15.162  1.0217 -1.9661 -2.1054
 9239TIP3   OH249131   2.505   2.180  16.152  0.1659 -0.2653 -0.1456
 9239TIP3    H149132   2.437   2.199  16.217 -0.4298  2.0265 -1.3836
 9239TIP3    H249133   2.530   2.266  16.117  1.0870 -1.3668 -2.3001
 9240TIP3   OH249134   2.302   0.411   1.750 -0.3258 -0.3634  0.4778
 9240TIP3    H149135   2.377   0.422   1.691 -0.8166 -0.2692 -0.1284
 9240TIP3    H249136   2.233   0.375   1.695 -1.3576  1.4108  0.5795
 9241TIP3   OH249137   0.096   1.926  11.063  0.6299 -0.1592  0.0457
 9241TIP3    H149138   0.084   1.889  10.975  0.9762  1.1139 -0.5509
 9241TIP3    H249139   0.169   1.987  11.053 -0.5802  1.4299  0.7761
 9242TIP3   OH249140   1.438   0.077   1.740  0.4065 -0.0720  0.2633
 9242TIP3    H149141   1.471   0.021   1.810  1.1412 -0.3579 -0.3128
 9242TIP3    H249142   1.380   0.021   1.688 -0.1630  0.1480  0.6527
 9243TIP3   OH249143   1.260   5.741   5.853 -0.2142  0.3730  0.2000
 9243TIP3    H149144   1.223   5.829   5.855 -1.1792 -0.0214 -0.3927
 9243TIP3    H249145   1.319   5.738   5.929  1.0189  2.0415 -0.6726
 9244TIP3   OH249146   6.243   3.250   3.071  0.3698  0.0515  0.5642
 9244TIP3    H149147   6.200   3.257   3.156 -0.6593 -0.3560  0.0815
 9244TIP3    H249148   6.244   3.339   3.037  1.8385  0.4118  1.5062
 9245TIP3   OH249149   3.847   5.026  14.758  0.8494  0.4503  0.1032
 9245TIP3    H149150   3.897   5.066  14.829 -0.7050  1.5316  0.6112
 9245TIP3    H249151   3.818   5.100  14.705  0.3468 -0.2156 -0.5565
 9246TIP3   OH249152   4.270   3.795   3.628 -0.2034  0.1492 -0.6188
 9246TIP3    H149153   4.332   3.731   3.664 -2.0522 -0.7929  0.9961
 9246TIP3    H249154   4.271   3.867   3.690  0.2983  0.7579 -1.3292
 9247TIP3   OH249155   5.546   4.886   5.969 -0.4015  0.2463  0.5877
 9247TIP3    H149156   5.601   4.823   6.014 -0.0583  0.2484  0.1682
 9247TIP3    H249157   5.457   4.863   5.995 -0.1954  0.3554  1.4055
 9248TIP3   OH249158   4.937   3.565  16.020 -0.1118  0.4739 -0.1477
 9248TIP3    H149159   4.903   3.638  15.968 -0.3188 -0.2447 -1.0228
 9248TIP3    H249160   4.869   3.498  16.015  0.2113  0.1028  0.4025
 9249TIP3   OH249161   6.528   1.679  11.521 -0.2084 -0.1107 -0.8436
 9249TIP3    H149162   6.482   1.757  11.554 -1.6927 -2.5141  3.0967
 9249TIP3    H249163   6.606   1.673  11.575  0.1005 -1.1865 -1.4086
 9250TIP3   OH249164   1.149   2.253   4.879  0.0621  0.1397 -0.4835
 9250TIP3    H149165   1.216   2.193   4.910  0.2663  0.6601  0.1017
 9250TIP3    H249166   1.198   2.325   4.840 -0.1226  0.9662  0.7751
 9251TIP3   OH249167   1.283   1.709  11.802 -0.7105 -0.4701  0.2167
 9251TIP3    H149168   1.196   1.730  11.767 -0.5883 -0.2086  0.0750
 9251TIP3    H249169   1.343   1.729  11.731 -0.5197 -0.5252  0.3632
 9252TIP3   OH249170   1.669   5.296   6.238 -0.5049 -0.1232 -0.2836
 9252TIP3    H149171   1.678   5.220   6.181 -1.7083 -0.3779 -0.1440
 9252TIP3    H249172   1.591   5.341   6.206  0.3442  1.1955 -0.5307
 9253TIP3   OH249173   3.579   0.729  14.435 -0.1007  0.1056 -0.0853
 9253TIP3    H149174   3.586   0.784  14.513  1.2567 -0.5729  0.2843
 9253TIP3    H249175   3.574   0.791  14.363  0.3152  0.7275  0.4165
 9254TIP3   OH249176   3.642   0.746   2.366  0.0246  0.3053 -0.2727
 9254TIP3    H149177   3.619   0.705   2.283 -0.7437  1.4616 -0.6456
 9254TIP3    H249178   3.558   0.767   2.406  0.3968  0.2158  0.5607
 9255TIP3   OH249179   1.955   6.512  13.493 -0.1948  0.6601 -0.1995
 9255TIP3    H149180   1.986   6.496  13.582  1.5396  0.5130 -0.8010
 9255TIP3    H249181   1.882   6.573  13.503  1.0098  1.9264  1.2159
 9256TIP3   OH249182   5.942   3.738  16.543  0.4104  0.2552 -0.1069
 9256TIP3    H149183   6.010   3.686  16.499  0.4658  1.0476 -0.9580
 9256TIP3    H249184   5.990   3.811  16.583  0.0968  0.6895 -0.5190
 9257TIP3   OH249185   2.717   5.999  14.117 -0.3977 -0.2694  0.6398
 9257TIP3    H149186   2.687   5.911  14.140 -1.0009 -0.1578  0.2884
 9257TIP3    H249187   2.645   6.057  14.142 -0.8991 -0.1017 -1.1172
 9258TIP3   OH249188   2.918   0.814  12.516 -0.3304  0.0838  0.4049
 9258TIP3    H149189   3.011   0.822  12.540  0.3224  1.9358 -2.3780
 9258TIP3    H249190   2.871   0.859  12.586  1.0775  1.1681  0.6848
 9259TIP3   OH249191   4.286   6.272   2.428 -0.1291  0.6432  0.4841
 9259TIP3    H149192   4.270   6.293   2.336  0.7956  0.9059  0.3756
 9259TIP3    H249193   4.380   6.254   2.433  0.0154  1.5946  1.5541
 9260TIP3   OH249194   0.569   2.732   0.008 -0.1540  0.0043 -0.1909
 9260TIP3    H149195   0.474   2.727   0.009 -0.0791 -1.6449  0.0220
 9260TIP3    H249196   0.591   2.751  -0.083 -0.6265 -1.1575 -0.5519
 9261TIP3   OH249197   1.527   3.377   4.482  0.0633 -0.4033  0.1012
 9261TIP3    H149198   1.479   3.453   4.449  1.2672  0.2928 -0.0613
 9261TIP3    H249199   1.616   3.408   4.494 -0.0637 -0.9527  2.8730
 9262TIP3   OH249200   0.303   0.000   2.857 -0.0202  0.8668 -0.4699
 9262TIP3    H149201   0.376  -0.027   2.802 -1.3872  0.8088 -2.3134
 9262TIP3    H249202   0.268   0.078   2.814 -2.8855 -0.8254 -1.3438
 9263TIP3   OH249203   6.098   0.947  14.297  0.1897 -0.2047  0.3105
 9263TIP3    H149204   6.122   0.898  14.218  1.4810  0.8793  0.0220
 9263TIP3    H249205   6.023   1.000  14.270  0.5923  0.1204 -0.1825
 9264TIP3   OH249206   1.292   1.291   2.941  0.0197  0.2799 -0.3798
 9264TIP3    H149207   1.343   1.368   2.966 -0.6601  0.5547  0.1992
 9264TIP3    H249208   1.259   1.311   2.853 -0.5385  0.8551 -0.0462
 9265TIP3   OH249209   3.363   1.352   6.545  0.2162 -0.1511  0.6155
 9265TIP3    H149210   3.459   1.360   6.551  0.1922 -0.5834  1.8747
 9265TIP3    H249211   3.336   1.422   6.486  1.2372  0.5488  0.9618
 9266TIP3   OH249212   6.675   2.897   2.525 -0.7079 -0.2375  0.4518
 9266TIP3    H149213   6.699   2.845   2.448 -0.9494 -0.1589  0.3247
 9266TIP3    H249214   6.581   2.884   2.534 -0.6062 -0.5883  0.9864
 9267TIP3   OH249215   1.367   4.846  14.090  0.2689  0.0535 -0.9166
 9267TIP3    H149216   1.414   4.878  14.013 -0.9810  0.1751 -1.6380
 9267TIP3    H249217   1.294   4.795  14.054 -0.7510  0.7275  0.1664
 9268TIP3   OH249218   0.219   4.506  14.720 -0.1161  0.6453 -0.2113
 9268TIP3    H149219   0.158   4.469  14.656 -0.1361  0.5506 -0.1379
 9268TIP3    H249220   0.271   4.569  14.670  0.5505 -0.1588 -0.5339
 9269TIP3   OH249221   3.228   5.106  12.608  0.3466 -0.0430 -0.7857
 9269TIP3    H149222   3.236   5.019  12.569 -0.9300 -0.3263 -0.4346
 9269TIP3    H249223   3.165   5.095  12.679  2.3217  0.5593  1.1039
 9270TIP3   OH249224   3.301   1.271   3.082  0.0405 -0.5951  0.2182
 9270TIP3    H149225   3.358   1.328   3.030 -0.3163 -0.7907 -0.3975
 9270TIP3    H249226   3.318   1.295   3.173 -0.5467  0.9216 -0.0551
 9271TIP3   OH249227   5.852   3.184   4.712 -0.1662 -0.7326 -0.2348
 9271TIP3    H149228   5.879   3.096   4.686  0.6920 -0.2856 -0.8418
 9271TIP3    H249229   5.906   3.243   4.661 -0.6571  0.1611  0.2564
 9272TIP3   OH249230   4.083   0.083  13.457 -0.3693 -0.5808  0.6834
 9272TIP3    H149231   4.129   0.156  13.499  0.0463 -1.0538  1.0598
 9272TIP3    H249232   4.094   0.010  13.518 -0.1006 -1.1668 -0.0609
 9273TIP3   OH249233   5.101   4.821   1.857 -0.1398  0.3083 -0.2505
 9273TIP3    H149234   5.189   4.853   1.876 -0.9151  2.4372 -0.2024
 9273TIP3    H249235   5.045   4.864   1.922 -1.4574  0.2619 -1.3470
 9274TIP3   OH249236   4.055   1.059   2.530 -0.0129  0.2191  0.1091
 9274TIP3    H149237   3.983   1.112   2.563 -0.3465  1.6261 -2.7277
 9274TIP3    H249238   4.134   1.107   2.556 -0.1260 -0.5439  1.9090
 9275TIP3   OH249239   4.550   1.530   3.214  0.0574  0.1637 -0.1470
 9275TIP3    H149240   4.522   1.441   3.193  1.5737 -0.4117  0.1780
 9275TIP3    H249241   4.634   1.540   3.170  0.3020  1.1406  0.5079
 9276TIP3   OH249242   2.468   0.040  13.226  0.0164  0.3428 -0.8942
 9276TIP3    H149243   2.406   0.003  13.289  0.9210 -0.8256 -0.6840
 9276TIP3    H249244   2.449   0.134  13.226  0.2568  0.4232  1.4110
 9277TIP3   OH249245   1.681   1.203  16.735  0.1089  0.0919  0.0264
 9277TIP3    H149246   1.664   1.155  16.817  0.5330 -1.9549 -1.0434
 9277TIP3    H249247   1.595   1.208  16.693 -0.1435  1.3110  0.6640
 9278TIP3   OH249248   6.338   0.430  16.005 -0.0473 -0.4576 -0.0381
 9278TIP3    H149249   6.320   0.513  15.963  1.3621 -0.0591  0.1310
 9278TIP3    H249250   6.423   0.441  16.047 -0.2461 -1.6854  0.7475
 9279TIP3   OH249251   5.095   6.166   0.298 -0.4601 -0.1002  0.4013
 9279TIP3    H149252   5.035   6.131   0.232  0.3268  2.1482 -1.6146
 9279TIP3    H249253   5.101   6.259   0.277  3.6745 -0.2468  0.5758
 9280TIP3   OH249254   3.719   6.427   0.526 -0.0533  0.1089 -0.3272
 9280TIP3    H149255   3.735   6.440   0.620  0.6898 -0.2008 -0.4033
 9280TIP3    H249256   3.745   6.510   0.486 -1.1193  0.5229 -0.1849
 9281TIP3   OH249257   3.743   1.042  15.085  0.1370  0.5763 -0.5025
 9281TIP3    H149258   3.755   1.058  14.991  1.1438  2.4867 -0.0782
 9281TIP3    H249259   3.797   0.965  15.103  1.7807  1.5674 -1.0668
 9282TIP3   OH249260   1.324   0.229   5.200 -0.0319 -0.5665  0.1192
 9282TIP3    H149261   1.280   0.314   5.205 -0.4670 -0.6404 -2.0157
 9282TIP3    H249262   1.407   0.249   5.157 -0.1872 -1.2511 -0.4925
 9283TIP3   OH249263   2.851   3.405  12.219 -0.1408  0.0713 -0.2843
 9283TIP3    H149264   2.889   3.411  12.307  0.5926  0.9113 -0.6503
 9283TIP3    H249265   2.763   3.442  12.228 -0.1976 -0.1633  0.1641
 9284TIP3   OH249266   6.706   1.491  16.615 -0.1399 -0.5905 -0.0357
 9284TIP3    H149267   6.611   1.499  16.607 -0.3805 -2.9823  0.0503
 9284TIP3    H249268   6.737   1.477  16.526 -0.0080 -1.2208  0.1134
 9285TIP3   OH249269   3.174   5.391  16.131 -0.2944  0.4747 -0.1087
 9285TIP3    H149270   3.086   5.413  16.164 -0.3694  0.9818 -0.6466
 9285TIP3    H249271   3.168   5.298  16.108  0.0802 -0.2209  2.3620
 9286TIP3   OH249272   2.485   2.893   1.077 -0.0283 -0.7321  0.1422
 9286TIP3    H149273   2.495   2.988   1.091 -1.3979 -0.1178 -2.5495
 9286TIP3    H249274   2.406   2.870   1.125  1.4749 -0.9682  2.5603
 9287TIP3   OH249275   2.704   6.564  15.477 -0.0075 -0.5901  0.6869
 9287TIP3    H149276   2.665   6.545  15.391 -2.1110 -2.0728  1.9047
 9287TIP3    H249277   2.718   6.478  15.516  1.2776  0.0601  1.6779
 9288TIP3   OH249278   0.511   1.695  17.023 -0.3117 -0.1658 -0.4787
 9288TIP3    H149279   0.547   1.766  17.077  0.1451 -0.5117 -0.3197
 9288TIP3    H249280   0.548   1.710  16.936 -0.9305  0.3067 -0.6649
 9289TIP3   OH249281   1.775   0.523  17.176  0.3608 -0.1922  0.3515
 9289TIP3    H149282   1.712   0.575  17.126  0.9312  0.2433  0.0767
 9289TIP3    H249283   1.818   0.467  17.111  1.1339  0.4078  0.3298
 9290TIP3   OH249284   0.916   4.351   4.042  0.3207 -0.1593 -0.4233
 9290TIP3    H149285   0.846   4.407   4.076 -1.1420 -1.1739 -1.6639
 9290TIP3    H249286   0.944   4.299   4.117 -2.0840 -1.5689 -0.4455
 9291TIP3   OH249287   4.121   1.819   5.310 -0.0903  0.2189 -0.1687
 9291TIP3    H149288   4.152   1.773   5.232 -1.6744 -0.5555 -0.3580
 9291TIP3    H249289   4.148   1.763   5.383 -0.1799  0.0457 -0.2682
 9292TIP3   OH249290   2.057   1.332   4.381 -0.5091 -0.1037  0.3287
 9292TIP3    H149291   2.049   1.378   4.465  1.6130 -1.8858  1.5617
 9292TIP3    H249292   2.075   1.242   4.405 -0.7886 -0.8399 -2.0805
 9293TIP3   OH249293   5.109   5.357   2.889  0.1193  0.0771 -0.2197
 9293TIP3    H149294   5.017   5.335   2.874  0.1296 -1.5552  1.8589
 9293TIP3    H249295   5.108   5.451   2.907 -1.1268  0.0891 -0.2699
 9294TIP3   OH249296   1.385   5.437   0.102 -0.4629 -0.2492 -0.2157
 9294TIP3    H149297   1.319   5.464   0.166 -0.1359 -1.5193  0.6654
 9294TIP3    H249298   1.371   5.343   0.091 -0.7204 -0.0108 -2.2565
 9295TIP3   OH249299   6.696   2.337  14.017 -0.9033 -0.2204 -0.5421
 9295TIP3    H149300   6.707   2.279  13.942 -2.1527 -0.3176 -0.6591
 9295TIP3    H249301   6.602   2.335  14.035 -0.8010  0.9121  0.1392
 9296TIP3   OH249302   0.383   4.612  13.643  0.5442 -0.8150  0.1170
 9296TIP3    H149303   0.350   4.524  13.658  0.1747 -0.7792 -0.4443
 9296TIP3    H249304   0.404   4.646  13.730 -0.0946 -1.1528  0.4061
 9297TIP3   OH249305   0.311   2.593  12.704 -0.4827 -0.2933  0.7905
 9297TIP3    H149306   0.296   2.535  12.629 -0.2801 -2.4416  2.3427
 9297TIP3    H249307   0.247   2.565  12.769  0.2596  0.5940  1.9235
 9298TIP3   OH249308   1.738   4.597  11.489  0.0971  0.3468  0.2379
 9298TIP3    H149309   1.802   4.666  11.510  0.1650  1.0830 -2.2531
 9298TIP3    H249310   1.659   4.623  11.537  1.2885  0.0100  2.4733
 9299TIP3   OH249311   4.665   3.476   4.539  0.5204 -1.0577 -0.8099
 9299TIP3    H149312   4.626   3.532   4.472 -0.2676  0.9200  1.2245
 9299TIP3    H249313   4.597   3.412   4.560 -0.7764  0.8236  0.9293
 9300TIP3   OH249314   3.569   5.084   1.564 -0.3643 -0.1436 -0.0944
 9300TIP3    H149315   3.490   5.080   1.619  1.2195 -3.0409  2.0618
 9300TIP3    H249316   3.597   4.993   1.555  2.7906  0.8449 -0.7651
 9301TIP3   OH249317   4.858   6.716  15.878  0.0447 -0.1523 -0.0798
 9301TIP3    H149318   4.934   6.665  15.905  0.2264 -0.7940 -1.7329
 9301TIP3    H249319   4.797   6.651  15.843 -0.8238  0.4836  0.2297
 9302TIP3   OH249320   1.320   3.578   2.454 -0.2828  0.0306  0.5293
 9302TIP3    H149321   1.256   3.512   2.432 -0.7630  0.7639 -0.3130
 9302TIP3    H249322   1.291   3.613   2.539 -0.7959  0.1161  0.3185
 9303TIP3   OH249323   1.541   4.347  15.491 -0.4509  0.0413  0.3380
 9303TIP3    H149324   1.636   4.357  15.496 -0.7652  3.3484  0.8176
 9303TIP3    H249325   1.527   4.282  15.422  2.1248 -0.1991 -0.0015
 9304TIP3   OH249326   1.049   2.575  12.589 -0.1189  0.1224 -0.0977
 9304TIP3    H149327   0.955   2.570  12.608  0.3184 -1.3557  1.7546
 9304TIP3    H249328   1.078   2.655  12.633 -0.6980  1.2233 -1.6509
 9305TIP3   OH249329   2.350   3.052   1.866  0.6683 -0.0581 -0.1006
 9305TIP3    H149330   2.330   2.959   1.854  0.6742 -0.0117 -0.4869
 9305TIP3    H249331   2.443   3.055   1.887  0.4148 -0.2279  1.0579
 9306TIP3   OH249332   1.837   1.657   1.243 -0.0885 -0.1371  0.7714
 9306TIP3    H149333   1.790   1.577   1.263  3.6825 -2.3738  1.1185
 9306TIP3    H249334   1.798   1.723   1.300 -0.4611 -2.6773  3.5300
 9307TIP3   OH249335   2.672   2.606  13.521 -0.1066  0.0874  0.5890
 9307TIP3    H149336   2.718   2.600  13.438  2.9423  3.1696  1.9417
 9307TIP3    H249337   2.672   2.516  13.555  2.3664 -0.4904 -0.8172
 9308TIP3   OH249338   3.627   2.892  12.380 -0.0029  0.0678 -0.2157
 9308TIP3    H149339   3.699   2.926  12.433 -0.5003 -0.1835  0.6324
 9308TIP3    H249340   3.551   2.894  12.438 -0.1960 -1.8459 -0.3563
 9309TIP3   OH249341   0.053   3.596  15.884 -0.8158 -0.5213 -0.4421
 9309TIP3    H149342   0.147   3.602  15.900 -0.8387 -1.8651  0.3378
 9309TIP3    H249343   0.015   3.584  15.972 -1.4045 -3.1478 -1.0134
 9310TIP3   OH249344   1.324   4.274   1.877 -0.3069  0.2045 -0.5807
 9310TIP3    H149345   1.325   4.369   1.885 -0.1007  0.2584 -1.2191
 9310TIP3    H249346   1.314   4.242   1.967 -1.6807  0.8539 -0.4815
 9311TIP3   OH249347   2.692   5.861  12.728  0.8310  0.1909 -0.1169
 9311TIP3    H149348   2.730   5.872  12.815 -0.9534  1.5014  0.5190
 9311TIP3    H249349   2.700   5.948  12.688  0.2823 -0.0331 -0.7145
 9312TIP3   OH249350   5.408   1.306   4.301 -0.1923  0.0743  0.0937
 9312TIP3    H149351   5.327   1.257   4.314 -0.3832  0.0558 -1.1220
 9312TIP3    H249352   5.428   1.343   4.387 -1.7315  0.4574  0.2910
 9313TIP3   OH249353   0.390   3.845   3.860 -0.3726  0.4457 -0.6605
 9313TIP3    H149354   0.366   3.817   3.948  0.1124  2.3926  0.1086
 9313TIP3    H249355   0.467   3.900   3.872  2.0819 -2.3523 -2.6749
 9314TIP3   OH249356   1.584   0.321  16.926 -0.7244 -0.0509  0.2428
 9314TIP3    H149357   1.544   0.359  17.003 -0.6991 -0.1621  0.3112
 9314TIP3    H249358   1.658   0.378  16.906 -0.8312  0.0724  0.1998
 9315TIP3   OH249359   6.749   3.684   2.565  0.3979  0.4173 -0.1889
 9315TIP3    H149360   6.718   3.602   2.528 -0.3560 -0.1620  1.6541
 9315TIP3    H249361   6.825   3.707   2.513  0.1194 -1.0117 -1.2577
 9316TIP3   OH249362   3.562   4.573   6.266 -0.0159  0.0649 -0.3270
 9316TIP3    H149363   3.500   4.501   6.280 -0.5877  0.8301  1.2802
 9316TIP3    H249364   3.623   4.567   6.340  0.3757  0.7666 -0.5906
 9317TIP3   OH249365   6.092   6.219   1.179  0.2739 -0.9495  0.4529
 9317TIP3    H149366   6.081   6.125   1.167 -1.7911 -0.5132 -1.2212
 9317TIP3    H249367   6.182   6.237   1.150 -0.2166 -1.9933 -1.7573
 9318TIP3   OH249368   0.631   2.996  10.789 -0.5647 -0.4540 -0.0753
 9318TIP3    H149369   0.555   3.022  10.738 -1.4556 -1.0574  0.9358
 9318TIP3    H249370   0.598   2.931  10.851  0.0421  1.6545  2.5951
 9319TIP3   OH249371   3.885   0.297   0.047 -0.0196  0.5234  0.2915
 9319TIP3    H149372   3.812   0.339   0.002  0.6260 -0.8087 -2.1112
 9319TIP3    H249373   3.961   0.352   0.027  0.3103 -0.1917 -0.4347
 9320TIP3   OH249374   2.521   6.524  12.297  0.3643  0.0056 -0.3650
 9320TIP3    H149375   2.466   6.522  12.218  1.6008 -1.0768 -1.2252
 9320TIP3    H249376   2.494   6.447  12.347 -0.1966  0.5125  0.1117
 9321TIP3   OH249377   0.262   6.162   4.103 -0.2711 -0.2808  0.3557
 9321TIP3    H149378   0.247   6.094   4.037 -0.7716  0.7947 -0.6590
 9321TIP3    H249379   0.180   6.165   4.153 -0.1653 -0.5792  0.5478
 9322TIP3   OH249380   4.843   3.457   4.216  0.4629 -0.2128  0.0533
 9322TIP3    H149381   4.826   3.364   4.227 -0.0469 -0.5133 -2.7168
 9322TIP3    H249382   4.776   3.500   4.269 -1.0696 -1.4436 -0.8372
 9323TIP3   OH249383   5.622   2.551  12.353  0.2976 -0.2983  0.0365
 9323TIP3    H149384   5.589   2.483  12.293 -2.1500 -0.0814  1.0697
 9323TIP3    H249385   5.614   2.632  12.304  2.1096 -0.5896 -0.7728
 9324TIP3   OH249386   6.782   4.794  14.834 -0.6253 -0.0111 -0.0801
 9324TIP3    H149387   6.738   4.754  14.909  0.3597 -1.5499 -0.3160
 9324TIP3    H249388   6.864   4.827  14.869  0.3588 -1.7610 -0.7007
 9325TIP3   OH249389   0.358   1.218  12.034 -0.3632  0.1765  0.0731
 9325TIP3    H149390   0.316   1.140  11.999  1.4978 -0.6018 -0.4354
 9325TIP3    H249391   0.402   1.189  12.114 -1.0703  1.0651  0.8023
 9326TIP3   OH249392   3.016   6.408   6.526  0.3671 -0.1944  0.2936
 9326TIP3    H149393   2.939   6.463   6.539  0.3872 -0.4629  1.6559
 9326TIP3    H249394   2.992   6.323   6.564  0.9339 -0.6221 -0.2877
 9327TIP3   OH249395   4.208   3.413  13.827 -0.2128  0.2164  0.6968
 9327TIP3    H149396   4.262   3.365  13.764 -0.2870  0.1835  0.6593
 9327TIP3    H249397   4.119   3.384  13.810 -0.1109 -0.5812  1.5338
 9328TIP3   OH249398   3.754   4.804   2.391  0.3845  0.0804  0.1527
 9328TIP3    H149399   3.782   4.759   2.311 -0.3833 -0.9413  0.4534
 9328TIP3    H249400   3.695   4.873   2.361  0.0598 -0.3331 -0.1474
 9329TIP3   OH249401   2.667   5.029   4.974 -0.3987  0.3783  0.1444
 9329TIP3    H149402   2.605   4.957   4.971 -0.1259  0.1760 -1.5026
 9329TIP3    H249403   2.615   5.106   4.952 -0.6820  0.6842  1.8643
 9330TIP3   OH249404   5.600   1.411   5.451  0.2251 -0.4190 -0.1990
 9330TIP3    H149405   5.593   1.335   5.394  0.5387 -0.0170 -0.7777
 9330TIP3    H249406   5.678   1.457   5.421 -0.2723  0.4276 -0.2238
 9331TIP3   OH249407   5.919   4.978   5.737 -0.3567 -0.4065  0.5398
 9331TIP3    H149408   5.968   5.010   5.661 -2.0044 -0.1935 -0.4691
 9331TIP3    H249409   5.984   4.933   5.790  0.7980 -0.7608 -1.1190
 9332TIP3   OH249410   0.462   4.231   5.609  0.3010 -0.2845  0.3761
 9332TIP3    H149411   0.465   4.218   5.514  1.6104  1.6114  0.1156
 9332TIP3    H249412   0.533   4.177   5.643  0.7109  0.0943  0.1279
 9333TIP3   OH249413   1.967   4.865   0.238 -0.5850 -0.1970 -0.3532
 9333TIP3    H149414   2.017   4.944   0.257 -0.7915 -0.3765  0.9543
 9333TIP3    H249415   1.885   4.898   0.200  0.4033  0.1026 -2.2878
 9334TIP3   OH249416   2.558   5.414  12.610 -0.3715  0.5156 -0.5522
 9334TIP3    H149417   2.647   5.379  12.618  0.4022  2.0244 -2.2717
 9334TIP3    H249418   2.501   5.342  12.635  1.3748 -0.0469  1.9692
 9335TIP3   OH249419   2.002   0.878   5.388 -0.0710 -0.1344  0.0081
 9335TIP3    H149420   2.095   0.855   5.390  0.3904  1.6443  0.0335
 9335TIP3    H249421   1.956   0.794   5.384  1.5576 -1.0078 -0.7193
 9336TIP3   OH249422   4.089   0.704  16.366 -0.0532 -0.2294  0.0522
 9336TIP3    H149423   4.136   0.768  16.314 -2.4765 -0.1061 -2.0766
 9336TIP3    H249424   4.143   0.625  16.361 -0.6265 -0.4761 -3.3943
 9337TIP3   OH249425   2.803   5.169  11.091  0.0375  0.0486 -0.3734
 9337TIP3    H149426   2.733   5.110  11.121  0.5348 -0.5989 -0.4863
 9337TIP3    H249427   2.757   5.249  11.067 -0.5221  0.1086  0.8407
 9338TIP3   OH249428   5.767   6.039   5.296 -0.5082 -0.1556 -0.3973
 9338TIP3    H149429   5.826   6.022   5.370 -1.8593 -1.4741  0.4103
 9338TIP3    H249430   5.680   6.043   5.336 -1.0894  0.7068 -1.7162
 9339TIP3   OH249431   2.468   1.048  16.365 -0.4970 -0.2409 -0.3094
 9339TIP3    H149432   2.469   1.090  16.451  2.8904 -1.2254  0.1989
 9339TIP3    H249433   2.446   1.118  16.304  2.2474  1.6710  0.8244
 9340TIP3   OH249434   0.853   0.538   4.533  0.1930 -0.3076 -0.1969
 9340TIP3    H149435   0.764   0.520   4.505  0.1437  0.4089 -0.5140
 9340TIP3    H249436   0.865   0.484   4.611 -1.0286  0.7100  0.7247
 9341TIP3   OH249437   6.618   5.899   3.226 -1.1800 -0.5754  0.2313
 9341TIP3    H149438   6.630   5.881   3.133 -1.4906 -0.5477  0.1871
 9341TIP3    H249439   6.530   5.937   3.233 -1.0397 -0.2945  0.4952
 9342TIP3   OH249440   3.792   6.355  14.072  0.0049 -0.0326  0.1730
 9342TIP3    H149441   3.810   6.384  13.983  0.0417 -1.2613 -0.2300
 9342TIP3    H249442   3.821   6.427  14.127  1.5524  0.0613 -0.7223
 9343TIP3   OH249443   4.118   3.257  12.644  0.2480 -0.8007 -0.2731
 9343TIP3    H149444   4.108   3.216  12.558 -0.5559  0.8769 -0.9987
 9343TIP3    H249445   4.210   3.282  12.647 -0.2317  1.2714 -1.6601
 9344TIP3   OH249446   0.781   0.254  13.201 -0.0364 -0.3780 -0.2187
 9344TIP3    H149447   0.723   0.329  13.215 -0.1095 -0.3184 -0.8237
 9344TIP3    H249448   0.727   0.177  13.223  0.2282 -0.2222  0.9888
 9345TIP3   OH249449   6.529   5.806  13.381 -0.0228 -0.3326  0.0150
 9345TIP3    H149450   6.477   5.736  13.421 -0.9506 -0.0151 -0.6309
 9345TIP3    H249451   6.543   5.778  13.291 -2.3113  1.3436 -0.8966
 9346TIP3   OH249452   2.468   6.113  16.848 -0.0837  0.1549 -0.2122
 9346TIP3    H149453   2.515   6.100  16.931 -0.1999  2.1034  0.1806
 9346TIP3    H249454   2.497   6.041  16.793  0.0393 -1.1401  1.5046
 9347TIP3   OH249455   6.239   6.497   2.111 -0.4035 -0.2964  0.3039
 9347TIP3    H149456   6.173   6.555   2.073 -0.3111 -0.6688 -0.4355
 9347TIP3    H249457   6.189   6.426   2.152 -0.5355  0.5909  1.6922
 9348TIP3   OH249458   3.799   6.250   0.327 -0.0208 -0.5334 -0.4136
 9348TIP3    H149459   3.775   6.289   0.411 -0.7803 -2.0377  0.0920
 9348TIP3    H249460   3.867   6.187   0.349 -1.5722 -2.3234 -0.6227
 9349TIP3   OH249461   4.819   5.293  11.131 -0.2378  0.0342  0.2725
 9349TIP3    H149462   4.772   5.301  11.048  0.4803 -0.0628 -0.1433
 9349TIP3    H249463   4.770   5.226  11.179  0.0137 -0.7317 -0.5273
 9350TIP3   OH249464   5.868   0.054  15.890  0.5356  1.0160 -0.3324
 9350TIP3    H149465   5.861   0.067  15.795 -0.9174 -0.1258 -0.3986
 9350TIP3    H249466   5.793  -0.001  15.912  2.3212 -0.9344  1.0732
 9351TIP3   OH249467   1.745   1.436  12.496 -0.3174  0.8333 -0.0245
 9351TIP3    H149468   1.736   1.525  12.531 -1.9468  0.2269  1.1717
 9351TIP3    H249469   1.681   1.432  12.424  0.9688  1.1533 -1.2098
 9352TIP3   OH249470   5.239   3.449   4.417 -0.4672  0.6882 -0.2737
 9352TIP3    H149471   5.334   3.455   4.429 -0.4870  0.4664  0.0097
 9352TIP3    H249472   5.212   3.381   4.478 -0.5482 -0.7254 -1.8589
 9353TIP3   OH249473   1.745   1.400   3.371  0.3205  0.4299  0.2672
 9353TIP3    H149474   1.764   1.461   3.442  0.0570  0.9873 -0.1329
 9353TIP3    H249475   1.716   1.456   3.299  2.6352  0.0810 -0.9896
 9354TIP3   OH249476   4.615   6.082  15.001  0.1732 -0.2781 -0.8033
 9354TIP3    H149477   4.606   5.989  14.980 -3.2344 -0.4878  1.2270
 9354TIP3    H249478   4.609   6.085  15.097 -0.4265  2.0927 -0.8931
 9355TIP3   OH249479   0.561   1.243   4.854  0.0178  0.0337  0.5001
 9355TIP3    H149480   0.606   1.164   4.885  0.9891  0.7320  0.8941
 9355TIP3    H249481   0.626   1.288   4.800 -0.3764  0.7904  0.6510
 9356TIP3   OH249482   5.558   4.309   3.308  0.0764 -0.5281  0.2150
 9356TIP3    H149483   5.485   4.338   3.364  0.2008  2.2096 -0.9711
 9356TIP3    H249484   5.592   4.230   3.352 -2.3889 -0.7768  1.7879
 9357TIP3   OH249485   5.546   4.991  16.586  0.2131 -0.5030  1.0108
 9357TIP3    H149486   5.605   4.957  16.653 -0.3436 -1.2661  1.1258
 9357TIP3    H249487   5.509   5.070  16.624  0.7416 -0.3281  1.1605
 9358TIP3   OH249488   0.783   4.545   2.799  0.1469 -0.0079  0.3708
 9358TIP3    H149489   0.743   4.459   2.808  0.0422  0.1717  1.6933
 9358TIP3    H249490   0.829   4.541   2.715 -0.7504 -0.9776 -0.0847
 9359TIP3   OH249491   4.300   0.727   1.679 -0.0267 -0.0387 -0.3034
 9359TIP3    H149492   4.220   0.745   1.727 -0.6982 -1.1975 -0.9564
 9359TIP3    H249493   4.276   0.738   1.587  0.4762 -0.6438 -0.5170
 9360TIP3   OH249494   3.009   1.799   1.282 -0.2947  0.5704  0.3571
 9360TIP3    H149495   3.083   1.855   1.304 -0.7053  1.4880 -0.5452
 9360TIP3    H249496   3.048   1.725   1.235 -0.1868  2.4699 -2.7142
 9361TIP3   OH249497   4.840   4.009   0.025 -0.4703  0.3951  0.1344
 9361TIP3    H149498   4.894   4.086   0.041 -0.1951  0.5100 -1.2708
 9361TIP3    H249499   4.867   3.979  -0.062 -0.9495 -0.9723  0.4420
 9362TIP3   OH249500   3.411   3.102   1.235  0.3705 -0.8776  0.3904
 9362TIP3    H149501   3.500   3.133   1.253 -0.1771  0.0038  1.6793
 9362TIP3    H249502   3.422   3.014   1.200  1.8184 -0.3038 -0.6379
 9363TIP3   OH249503   4.099   1.428   2.237  0.8452 -0.0917 -0.2965
 9363TIP3    H149504   4.165   1.426   2.167 -0.7701  2.1359 -1.9480
 9363TIP3    H249505   4.031   1.368   2.209  0.1250  0.9147 -0.7263
 9364TIP3   OH249506   4.013   5.308  14.346 -0.3684  0.3112  0.5110
 9364TIP3    H149507   3.957   5.364  14.292 -0.3659 -0.6727 -0.5401
 9364TIP3    H249508   4.099   5.350  14.344 -0.9175  1.5377  1.6886
 9365TIP3   OH249509   6.527   1.241   3.567  0.0953  0.5688  0.0054
 9365TIP3    H149510   6.585   1.316   3.549  1.0477 -0.2936 -0.5881
 9365TIP3    H249511   6.439   1.275   3.550  0.3994  1.9322  1.0255
 9366TIP3   OH249512   4.582   0.630   5.308 -0.0848  0.0674  0.5748
 9366TIP3    H149513   4.594   0.612   5.402 -0.0551 -2.3825  0.1417
 9366TIP3    H249514   4.663   0.599   5.268 -0.3556  0.5332 -0.3266
 9367TIP3   OH249515   0.465   0.658   4.977  0.4360  0.1573 -0.2762
 9367TIP3    H149516   0.434   0.747   4.959  0.1991  0.1152 -0.0756
 9367TIP3    H249517   0.400   0.602   4.934 -0.1801  0.0534  0.7651
 9368TIP3   OH249518   2.395   0.078  14.072 -0.2671  0.0658  0.2770
 9368TIP3    H149519   2.374   0.085  14.165  1.2772 -0.5785  0.6915
 9368TIP3    H249520   2.445  -0.003  14.065 -0.1081  0.2738 -1.0623
 9369TIP3   OH249521   1.395   4.196  14.395  0.3542 -0.4246 -0.4355
 9369TIP3    H149522   1.351   4.120  14.432  1.2267 -0.2423  0.9963
 9369TIP3    H249523   1.327   4.263  14.388  0.2294 -0.3956  1.0226
 9370TIP3   OH249524   3.757   4.066  16.738 -0.2336  0.1952 -0.4015
 9370TIP3    H149525   3.787   4.157  16.732 -0.2660  0.2631  0.3910
 9370TIP3    H249526   3.729   4.056  16.829  2.6085 -1.4902  0.3401
 9371TIP3   OH249527   1.184   5.340  16.224  0.4197 -0.6388 -0.1232
 9371TIP3    H149528   1.100   5.378  16.250  0.5307 -0.7093  0.3451
 9371TIP3    H249529   1.206   5.280  16.295  1.5402  0.4203  0.4454
 9372TIP3   OH249530   4.749   4.553   0.342  0.2542 -0.1781 -0.4219
 9372TIP3    H149531   4.801   4.567   0.263 -0.7644 -0.4332 -1.1455
 9372TIP3    H249532   4.700   4.635   0.353 -1.2799 -0.9405 -1.3318
 9373TIP3   OH249533   6.059   4.727   2.635 -0.1044  0.3812 -0.7642
 9373TIP3    H149534   6.014   4.802   2.596 -1.1529  0.8012  1.1836
 9373TIP3    H249535   5.988   4.668   2.662  0.7275 -1.8291 -3.1791
 9374TIP3   OH249536   5.046   2.627   0.296  0.2100 -0.5400  0.2028
 9374TIP3    H149537   5.053   2.712   0.339 -1.6777 -2.0668  3.6827
 9374TIP3    H249538   4.969   2.635   0.239 -0.6040 -0.2746  1.3421
 9375TIP3   OH249539   4.559   6.182  17.169  0.0786 -0.1246 -0.5440
 9375TIP3    H149540   4.592   6.092  17.173  1.1165  0.2775  0.1785
 9375TIP3    H249541   4.636   6.236  17.188 -0.3829  0.9410 -1.6597
 9376TIP3   OH249542   6.357   2.220  14.380 -0.9251  0.2164  0.0697
 9376TIP3    H149543   6.267   2.211  14.411 -0.9161 -2.0080 -0.4300
 9376TIP3    H249544   6.384   2.130  14.360  1.4950  0.8190  0.4518
 9377TIP3   OH249545   1.984   2.157  12.430  1.0090 -0.3629  0.4801
 9377TIP3    H149546   2.026   2.240  12.409  0.0608 -0.3119 -1.3632
 9377TIP3    H249547   1.932   2.175  12.508 -3.0127  2.1790 -2.5575
 9378TIP3   OH249548   0.590   3.558   1.476  0.5088 -0.7557 -0.5305
 9378TIP3    H149549   0.597   3.639   1.526 -2.7442 -2.0970  2.3375
 9378TIP3    H249550   0.581   3.585   1.385 -1.4180  2.1334  0.4836
 9379TIP3   OH249551   5.374   0.327  13.189 -0.0868  0.0996  0.3153
 9379TIP3    H149552   5.453   0.377  13.167 -0.0041 -0.6191 -1.0669
 9379TIP3    H249553   5.384   0.244  13.142 -1.2013 -0.3849  0.9260
 9380TIP3   OH249554   3.311   6.429   5.457 -0.3196  0.1226 -0.2335
 9380TIP3    H149555   3.365   6.371   5.404 -0.6304 -0.6253  0.2520
 9380TIP3    H249556   3.374   6.477   5.511 -0.0271  0.6422 -1.0438
 9381TIP3   OH249557   1.370   4.420  11.720  0.4537 -0.0425 -0.4258
 9381TIP3    H149558   1.298   4.358  11.734 -1.1312  1.9476  0.4673
 9381TIP3    H249559   1.449   4.370  11.741 -0.8402 -1.5609  1.0023
 9382TIP3   OH249560   0.008   1.494   0.518  0.2159  0.1210 -0.5534
 9382TIP3    H149561   0.017   1.400   0.498 -0.1999  0.3146 -1.7061
 9382TIP3    H249562   0.085   1.534   0.479 -0.0805  0.3750 -0.8841
 9383TIP3   OH249563   3.512   0.125  12.169  1.0714 -0.1527 -0.0088
 9383TIP3    H149564   3.477   0.050  12.121  0.8500  0.6142 -1.0395
 9383TIP3    H249565   3.592   0.149  12.121  0.3195  1.2330 -0.5714
 9384TIP3   OH249566   5.541   1.244  10.309 -0.2960 -0.0774 -0.2308
 9384TIP3    H149567   5.621   1.291  10.288 -0.0605  0.2667  1.3647
 9384TIP3    H249568   5.537   1.243  10.405 -1.6509 -1.0122 -0.2627
 9385TIP3   OH249569   5.233   6.165   0.767  0.0628 -0.1898 -0.4485
 9385TIP3    H149570   5.215   6.202   0.680  0.1879  0.3871 -0.2253
 9385TIP3    H249571   5.320   6.126   0.758  0.0148 -0.2598 -0.6257
 9386TIP3   OH249572   0.981   3.762   2.583  0.1982  0.0957 -0.0338
 9386TIP3    H149573   0.939   3.775   2.498 -0.5642 -1.1445  0.1270
 9386TIP3    H249574   0.973   3.846   2.627 -0.0835  0.5291 -0.9031
 9387TIP3   OH249575   5.736   2.315  16.759 -0.2280 -0.2203  0.3080
 9387TIP3    H149576   5.642   2.317  16.740 -0.2541  1.9321  0.5654
 9387TIP3    H249577   5.742   2.333  16.852  0.4063 -1.0843  0.4334
 9388TIP3   OH249578   0.559   3.907   1.103  0.4760 -0.0831 -0.0463
 9388TIP3    H149579   0.628   3.938   1.161  0.8259 -2.4390  0.8579
 9388TIP3    H249580   0.547   3.815   1.127 -2.8613  0.2157 -0.2860
 9389TIP3   OH249581   6.597   0.181   6.672 -0.9897 -0.4238 -0.5246
 9389TIP3    H149582   6.662   0.192   6.602  0.6575  1.6228  1.2813
 9389TIP3    H249583   6.531   0.122   6.634  0.5355 -0.4015 -3.3315
 9390TIP3   OH249584   3.874   3.258   3.302 -0.0813  0.6276 -0.1882
 9390TIP3    H149585   3.793   3.298   3.270 -0.4875 -0.8825 -1.1067
 9390TIP3    H249586   3.858   3.163   3.295  1.2966  0.3092  0.8059
 9391TIP3   OH249587   5.499   5.959   1.991 -0.3156 -0.0545 -0.0693
 9391TIP3    H149588   5.460   5.943   1.905 -2.8777 -0.3711  1.1226
 9391TIP3    H249589   5.475   5.882   2.043  1.1012  0.1962  0.9817
 9392TIP3   OH249590   5.596   2.650   3.115 -0.0063  0.4023  0.1494
 9392TIP3    H149591   5.624   2.740   3.103  0.1895  0.3902  0.5185
 9392TIP3    H249592   5.618   2.629   3.206 -2.5947  0.8938  0.9241
 9393TIP3   OH249593   1.596   0.414  11.428  0.0610  0.1043 -0.3603
 9393TIP3    H149594   1.531   0.385  11.364 -0.0054  2.1186 -1.2300
 9393TIP3    H249595   1.545   0.460  11.495  0.1573 -1.7691  1.0340
 9394TIP3   OH249596   5.777   0.267  11.184  0.1043  0.0501  0.1628
 9394TIP3    H149597   5.852   0.271  11.124  0.2737 -0.1018  0.3652
 9394TIP3    H249598   5.732   0.186  11.160 -1.2835  1.2561 -1.5002
 9395TIP3   OH249599   0.556   4.202   6.207 -0.2005 -0.1938 -0.2636
 9395TIP3    H149600   0.520   4.178   6.122  1.6100 -0.3651 -0.9980
 9395TIP3    H249601   0.489   4.257   6.247 -0.6208  0.7482 -2.2340
 9396TIP3   OH249602   6.105   5.403   4.620 -0.1514  0.1377  0.7208
 9396TIP3    H149603   6.044   5.452   4.565 -0.1817  0.9185  1.4412
 9396TIP3    H249604   6.171   5.370   4.560 -2.1423 -2.0790 -0.3434
 9397TIP3   OH249605   4.993   4.783  17.011  0.1288  0.0571  0.3117
 9397TIP3    H149606   5.027   4.699  16.982 -1.2205 -0.6278  0.6836
 9397TIP3    H249607   4.901   4.766  17.032 -0.2125  1.6614  0.1915
 9398TIP3   OH249608   3.584   2.869  16.056 -0.0903 -0.0535 -0.6766
 9398TIP3    H149609   3.627   2.784  16.060 -0.8666 -0.5099 -1.7838
 9398TIP3    H249610   3.593   2.905  16.145  0.4877 -1.1551 -0.2832
 9399TIP3   OH249611   4.580   5.708   4.750 -0.2622  0.7437  0.8604
 9399TIP3    H149612   4.661   5.687   4.796 -0.2728 -0.2380  0.4389
 9399TIP3    H249613   4.577   5.803   4.749  1.7685  0.8209 -0.6387
 9400TIP3   OH249614   2.653   3.194   2.203  0.4583  0.6182  0.2318
 9400TIP3    H149615   2.567   3.236   2.213  0.2640  0.1538  0.4930
 9400TIP3    H249616   2.639   3.104   2.231  1.4184  0.9586  1.8685
 9401TIP3   OH249617   3.483   3.111   3.279 -0.1281  0.6097  0.3809
 9401TIP3    H149618   3.529   3.140   3.357  2.3900  0.9056 -1.1559
 9401TIP3    H249619   3.491   3.183   3.217 -3.6458  1.1206  0.3895
 9402TIP3   OH249620   1.939   0.401  15.136  0.3684  0.3061  0.1364
 9402TIP3    H149621   1.938   0.400  15.231 -0.3040 -0.2038  0.1366
 9402TIP3    H249622   1.922   0.492  15.112 -1.5735  0.0783  0.5159
 9403TIP3   OH249623   3.071   3.425   4.801 -0.1901  0.1021  0.5496
 9403TIP3    H149624   3.116   3.501   4.839  1.6482 -0.3664 -0.6488
 9403TIP3    H249625   3.115   3.349   4.839  0.5981 -0.3656 -1.2574
 9404TIP3   OH249626   1.368   4.798   2.064  0.7564 -0.3355 -0.5860
 9404TIP3    H149627   1.274   4.813   2.074  0.9335 -0.2991  1.2126
 9404TIP3    H249628   1.405   4.820   2.149  2.3585 -0.6893 -1.1699
 9405TIP3   OH249629   2.284   5.702   2.476  0.2597  0.0188 -0.4295
 9405TIP3    H149630   2.292   5.698   2.571  0.6262 -0.4077 -0.4778
 9405TIP3    H249631   2.190   5.709   2.460  0.2352  0.6572 -0.0165
 9406TIP3   OH249632   5.381   6.140  12.215 -0.2919 -0.2732  0.5678
 9406TIP3    H149633   5.404   6.056  12.255 -1.4005 -0.3716  1.0432
 9406TIP3    H249634   5.316   6.177  12.275  0.2302  0.9541  0.3834
 9407TIP3   OH249635   3.178   2.362   4.027  0.1048  0.0186 -0.1409
 9407TIP3    H149636   3.200   2.319   3.945  1.7124 -0.6085  0.5990
 9407TIP3    H249637   3.083   2.352   4.036 -0.1461  0.4995 -2.1286
 9408TIP3   OH249638   2.011   3.314  11.858 -0.4798 -0.1595 -0.2178
 9408TIP3    H149639   2.076   3.366  11.906 -1.4362  1.5637 -0.7186
 9408TIP3    H249640   1.969   3.260  11.924 -0.3358  0.6608  0.5501
 9409TIP3   OH249641   4.198   4.280  13.275  0.0399 -0.0374  0.2069
 9409TIP3    H149642   4.169   4.336  13.203  0.1377  0.9543  0.9316
 9409TIP3    H249643   4.159   4.194  13.256  0.0425  0.2296 -1.0039
 9410TIP3   OH249644   2.969   2.064  11.450  0.2099  0.0695 -0.7223
 9410TIP3    H149645   2.965   2.142  11.506  0.9011 -0.8734  0.6737
 9410TIP3    H249646   2.878   2.035  11.444  0.1453  0.1211 -0.0091
 9411TIP3   OH249647   3.962   2.435  14.256 -0.2297 -0.3697  0.1356
 9411TIP3    H149648   3.949   2.391  14.172  0.5458 -1.7905  0.7409
 9411TIP3    H249649   3.905   2.388  14.316 -1.4351  1.2052  0.2261
 9412TIP3   OH249650   1.881   6.403  15.444 -0.3929  0.5628 -0.4755
 9412TIP3    H149651   1.797   6.408  15.400  0.2931 -0.4534 -1.9376
 9412TIP3    H249652   1.930   6.479  15.412 -0.1745  0.2577 -0.8689
 9413TIP3   OH249653   4.932   5.416  12.856  0.1551 -0.0153  0.0486
 9413TIP3    H149654   4.848   5.401  12.899  0.5024  1.1772  1.1615
 9413TIP3    H249655   4.915   5.484  12.792  0.3529  0.4965  0.5379
 9414TIP3   OH249656   0.447   0.512  10.303  0.3196 -0.1006  0.1403
 9414TIP3    H149657   0.496   0.588  10.336  0.8917 -0.3267 -0.1718
 9414TIP3    H249658   0.367   0.512  10.354  0.5720  0.3782  0.5530
 9415TIP3   OH249659   2.926   6.369   5.436 -0.3323 -0.0760 -0.8032
 9415TIP3    H149660   2.961   6.295   5.387  0.1384 -0.4509  0.0980
 9415TIP3    H249661   2.992   6.389   5.502  0.0012  1.7795 -1.6628
 9416TIP3   OH249662   4.724   0.288   6.176  0.5680 -0.4386  0.0098
 9416TIP3    H149663   4.666   0.240   6.235 -0.6886  0.8128 -0.1946
 9416TIP3    H249664   4.802   0.305   6.229 -0.4908  0.5636  1.2781
 9417TIP3   OH249665   1.532   1.533  14.235 -0.5004  0.4581  0.6656
 9417TIP3    H149666   1.454   1.535  14.290 -1.2196  0.9889 -0.3742
 9417TIP3    H249667   1.594   1.590  14.280 -0.4376 -0.5553  1.8900
 9418TIP3   OH249668   6.219   0.518  17.173 -0.1431 -0.3607 -0.0583
 9418TIP3    H149669   6.148   0.531  17.235  0.4042  1.3005  0.2605
 9418TIP3    H249670   6.178   0.479  17.096 -1.5782  1.4248 -0.2295
 9419TIP3   OH249671   4.556   0.914  15.021 -0.4041 -0.3564 -0.1986
 9419TIP3    H149672   4.647   0.933  14.999  0.0746 -0.5510  1.5500
 9419TIP3    H249673   4.538   0.968  15.098 -1.3164 -1.4134  0.3443
 9420TIP3   OH249674   4.926   3.659   0.929 -0.1046  0.4429 -0.1251
 9420TIP3    H149675   4.857   3.696   0.875  2.0797  3.0147 -1.2842
 9420TIP3    H249676   5.006   3.669   0.876  1.2715 -1.8471  1.4228
 9421TIP3   OH249677   2.041   6.601  13.849 -0.3929  0.4665  0.1721
 9421TIP3    H149678   2.056   6.695  13.860 -1.5757  0.5205  1.5179
 9421TIP3    H249679   2.126   6.565  13.823  0.9129  1.3873  3.0200
 9422TIP3   OH249680   3.340   4.116  13.393 -0.0079  0.4145 -0.0493
 9422TIP3    H149681   3.303   4.029  13.376 -2.4039  1.4217 -0.2577
 9422TIP3    H249682   3.357   4.152  13.306 -0.6851  0.8150 -0.0236
 9423TIP3   OH249683   1.666   6.039  11.823  0.0859  0.8278 -0.0809
 9423TIP3    H149684   1.702   6.057  11.736  0.7728 -0.2658 -0.0270
 9423TIP3    H249685   1.582   5.997  11.805 -0.4625  1.9460 -0.2023
 9424TIP3   OH249686   3.877   5.038  11.795  0.1182  0.3467 -0.6981
 9424TIP3    H149687   3.888   4.946  11.770 -0.1205 -0.2473  1.3162
 9424TIP3    H249688   3.962   5.064  11.830 -0.8479 -0.2279  2.1890
 9425TIP3   OH249689   3.471   3.176  12.456 -0.1574  0.3677  0.4813
 9425TIP3    H149690   3.417   3.253  12.470 -0.7716 -0.0111  0.1972
 9425TIP3    H249691   3.459   3.124  12.535  0.2072  0.5262  0.6448
 9426TIP3   OH249692   2.928   2.277   6.393  0.0834 -0.2495 -0.1304
 9426TIP3    H149693   2.961   2.237   6.474  0.4394  0.0708 -0.1205
 9426TIP3    H249694   2.984   2.353   6.379 -0.2945 -0.0231 -0.4116
 9427TIP3   OH249695   6.218   0.981  13.762  0.1112  0.1663 -0.3820
 9427TIP3    H149696   6.212   1.062  13.711 -2.4084  0.3943  0.2279
 9427TIP3    H249697   6.219   0.911  13.696 -1.7687  0.5228 -0.8258
 9428TIP3   OH249698   4.575   2.289   4.426 -0.2548 -0.0200 -0.4679
 9428TIP3    H149699   4.668   2.299   4.408  0.2558 -1.2630  1.3322
 9428TIP3    H249700   4.561   2.334   4.509 -1.5820  1.4465 -1.4445
 9429TIP3   OH249701   5.691   1.251  13.288 -0.2494  0.0666 -0.0444
 9429TIP3    H149702   5.768   1.307  13.281 -0.2072  0.2154  1.5210
 9429TIP3    H249703   5.707   1.195  13.364 -1.5267 -0.1355  0.0988
 9430TIP3   OH249704   2.594   6.723  12.754  0.4055  0.3620 -0.3972
 9430TIP3    H149705   2.673   6.765  12.787  0.2320  0.0811  0.3849
 9430TIP3    H249706   2.590   6.748  12.662  1.1751  0.7266 -0.3332
 9431TIP3   OH249707   2.616   0.434   3.222 -0.2658  0.2503  0.3621
 9431TIP3    H149708   2.590   0.355   3.176 -0.2224 -0.0279  0.8068
 9431TIP3    H249709   2.545   0.450   3.285 -0.2986  0.5900  0.2428
 9432TIP3   OH249710   2.014   1.933   1.855 -0.4347  0.5617 -0.6429
 9432TIP3    H149711   2.011   1.946   1.760 -0.9485 -2.5336 -1.1063
 9432TIP3    H249712   2.081   1.866   1.868  0.2136  1.5389  1.2805
 9433TIP3   OH249713   0.623   1.403  16.669 -0.4649  0.8328  0.3771
 9433TIP3    H149714   0.636   1.417  16.763  1.7491 -1.9552  0.5662
 9433TIP3    H249715   0.528   1.398  16.659 -0.7309  0.7787  2.5571
 9434TIP3   OH249716   1.153   1.910   5.151  0.4325  0.3956  0.3569
 9434TIP3    H149717   1.088   1.947   5.210  0.7297  0.9085  0.3705
 9434TIP3    H249718   1.213   1.983   5.133  1.0078 -0.0749  0.3571
 9435TIP3   OH249719   0.463   3.987  16.007  0.4092  0.2039 -0.3595
 9435TIP3    H149720   0.400   4.055  15.984  1.7099  1.0880 -1.3990
 9435TIP3    H249721   0.497   3.957  15.922  0.8149 -0.7945  0.1569
 9436TIP3   OH249722   3.394   1.259  14.047 -0.6388 -0.6482 -0.4482
 9436TIP3    H149723   3.406   1.169  14.017  1.7696  0.1217 -2.0158
 9436TIP3    H249724   3.439   1.312  13.981 -1.8986  1.6993  0.5170
 9437TIP3   OH249725   1.618   6.358   1.851 -0.4335  0.1871  0.5117
 9437TIP3    H149726   1.589   6.368   1.941  0.2427 -0.4436  0.8021
 9437TIP3    H249727   1.542   6.324   1.805 -0.7116  0.3002  0.8856
 9438TIP3   OH249728   6.594   1.481   3.984 -1.3079 -0.4270 -0.2482
 9438TIP3    H149729   6.550   1.510   3.904 -1.1351  3.3543  0.9037
 9438TIP3    H249730   6.687   1.486   3.963 -1.2779 -0.1296 -0.0510
 9439TIP3   OH249731   3.743   4.319   2.080 -0.2975 -0.4297  0.1167
 9439TIP3    H149732   3.757   4.369   1.999 -0.9407  2.1687  1.5682
 9439TIP3    H249733   3.825   4.271   2.093 -0.1249 -0.7490 -1.9673
 9440TIP3   OH249734   3.790   2.551   6.132 -0.9233  0.2768 -0.6590
 9440TIP3    H149735   3.802   2.523   6.042  2.0550  1.5297 -0.7063
 9440TIP3    H249736   3.795   2.647   6.129 -1.8483  0.3882  0.7070
 9441TIP3   OH249737   2.900   2.723  14.426  0.1499  0.0636  0.1985
 9441TIP3    H149738   2.892   2.653  14.361 -1.9977  0.4782 -0.0208
 9441TIP3    H249739   2.951   2.791  14.382  1.1451 -0.8438 -0.0411
 9442TIP3   OH249740   3.737   4.662   0.118  0.7067 -0.0212  0.0216
 9442TIP3    H149741   3.792   4.739   0.135  0.6302 -0.0642  0.4582
 9442TIP3    H249742   3.693   4.645   0.201  0.0770 -0.0227 -0.3040
 9443TIP3   OH249743   4.757   4.245  13.226 -0.1070 -0.1511 -0.0451
 9443TIP3    H149744   4.726   4.184  13.293 -2.5149  0.5343 -0.4776
 9443TIP3    H249745   4.699   4.230  13.151  1.0455  0.7365 -1.1445
 9444TIP3   OH249746   5.482   2.166  10.860 -0.4964  0.2432  0.5160
 9444TIP3    H149747   5.575   2.157  10.840 -0.2660  1.8697  0.7661
 9444TIP3    H249748   5.476   2.248  10.909 -1.7725 -0.9792  2.4836
 9445TIP3   OH249749   6.043   0.884   0.692  0.0814 -0.7027 -0.6571
 9445TIP3    H149750   6.135   0.908   0.703 -0.2997  0.2283  0.6706
 9445TIP3    H249751   6.034   0.802   0.741  0.0253 -0.3465 -0.0582
 9446TIP3   OH249752   2.848   2.397  12.234  0.6532  0.4264  0.2983
 9446TIP3    H149753   2.852   2.377  12.141  1.1629 -1.1592  0.6366
 9446TIP3    H249754   2.832   2.312  12.276 -2.0697  1.4983  1.4946
 9447TIP3   OH249755   1.967   0.070  16.225 -0.2122 -0.3904 -0.2613
 9447TIP3    H149756   1.923   0.016  16.292 -1.4253  1.1362  0.1928
 9447TIP3    H249757   2.030   0.122  16.275 -0.0287 -0.3660 -0.5192
 9448TIP3   OH249758   5.059   4.701   1.401 -0.3355 -0.3521  0.0463
 9448TIP3    H149759   5.138   4.685   1.349 -0.3685 -0.8876  0.1663
 9448TIP3    H249760   5.032   4.615   1.431 -0.6874 -0.1116  0.4172
 9449TIP3   OH249761   3.474   4.588  11.531  0.1225  0.4670 -0.0209
 9449TIP3    H149762   3.544   4.562  11.591 -1.2909 -2.0224  0.6539
 9449TIP3    H249763   3.418   4.646  11.582  0.2671  0.3245  0.3012
 9450TIP3   OH249764   4.251   5.182  16.285 -0.1692  0.2123 -0.1461
 9450TIP3    H149765   4.335   5.154  16.249  0.1892  1.9957 -0.7239
 9450TIP3    H249766   4.255   5.277  16.284 -2.1731  0.3152 -0.1069
 9451TIP3   OH249767   3.142   0.006   0.991  0.5148 -0.3340 -0.0262
 9451TIP3    H149768   3.136   0.043   1.080  4.2430  0.0561  0.1467
 9451TIP3    H249769   3.146   0.083   0.934 -0.8242 -0.5777 -0.4568
 9452TIP3   OH249770   6.232   4.484   5.636 -0.0310 -0.3620 -0.3028
 9452TIP3    H149771   6.276   4.467   5.719 -2.4964 -0.9747  0.9434
 9452TIP3    H249772   6.165   4.549   5.657 -1.4685 -1.4114 -1.5460
 9453TIP3   OH249773   3.385   2.701   4.337  0.1616 -0.2921 -0.2174
 9453TIP3    H149774   3.395   2.796   4.340 -0.2729 -0.2901  1.4594
 9453TIP3    H249775   3.332   2.680   4.413 -0.2166 -1.8318 -0.8957
 9454TIP3   OH249776   0.170   4.733  11.837 -0.3213  0.1549 -0.2494
 9454TIP3    H149777   0.118   4.764  11.911 -0.0796 -0.6639  0.2651
 9454TIP3    H249778   0.212   4.812  11.803 -2.6428  0.9989 -1.2917
 9455TIP3   OH249779   4.530   2.415   1.555 -0.1699 -0.3642 -0.0321
 9455TIP3    H149780   4.539   2.426   1.650 -0.2111 -1.4842  0.1115
 9455TIP3    H249781   4.511   2.321   1.544  1.4676 -0.5563 -1.2715
 9456TIP3   OH249782   5.925   3.960   1.152  0.8479  0.2352 -0.0578
 9456TIP3    H149783   5.963   3.873   1.141  2.5487  1.0621 -1.0507
 9456TIP3    H249784   5.963   4.012   1.081 -0.1107  1.7901  0.5341
 9457TIP3   OH249785   3.812   2.873  13.902 -0.3371  0.1355  0.2249
 9457TIP3    H149786   3.721   2.845  13.899 -0.3919  0.3256  0.1251
 9457TIP3    H249787   3.829   2.910  13.815 -0.2649  0.4203  0.3609
 9458TIP3   OH249788   4.140   0.996  15.554  0.0196  0.8812  0.4243
 9458TIP3    H149789   4.066   1.011  15.613 -0.7677 -0.5164 -0.1876
 9458TIP3    H249790   4.188   0.924  15.594  0.1993  0.7806  0.0288
 9459TIP3   OH249791   1.977   4.846   4.450 -0.6402  0.0436 -0.4358
 9459TIP3    H149792   1.946   4.777   4.391  1.0394 -0.1419 -1.1178
 9459TIP3    H249793   1.926   4.923   4.425 -1.9610 -0.7386 -0.2039
 9460TIP3   OH249794   2.473   3.751   1.616 -0.0073 -0.5298  0.2376
 9460TIP3    H149795   2.525   3.784   1.543  1.5562 -1.3847  0.9368
 9460TIP3    H249796   2.465   3.825   1.676  3.9355 -1.4267  2.0538
 9461TIP3   OH249797   1.936   5.152   1.837  0.3247  0.0298  0.5784
 9461TIP3    H149798   1.846   5.159   1.869  0.4526 -0.4743  1.0408
 9461TIP3    H249799   1.956   5.239   1.802 -0.9075 -0.3102 -1.0198
 9462TIP3   OH249800   5.979   0.602  11.876  0.6055  0.1771 -0.1994
 9462TIP3    H149801   6.039   0.528  11.878  1.7534  1.1031  0.2574
 9462TIP3    H249802   6.019   0.664  11.815 -0.4261  0.3613 -0.7067
 9463TIP3   OH249803   5.991   0.331   1.498  0.0176 -0.3328 -0.5500
 9463TIP3    H149804   6.070   0.283   1.473  0.4912 -0.3686  0.9826
 9463TIP3    H249805   6.022   0.404   1.551 -0.8046  1.0160 -1.8923
 9464TIP3   OH249806   3.856   0.188  12.341  0.2249 -0.0487  0.8297
 9464TIP3    H149807   3.847   0.114  12.401  0.1986  0.2410  1.1905
 9464TIP3    H249808   3.940   0.173  12.298  0.0457 -0.4808  0.6291
 9465TIP3   OH249809   2.513   4.353   5.107 -0.0660 -0.5753  0.4083
 9465TIP3    H149810   2.521   4.299   5.028 -0.1748 -2.2358  1.5078
 9465TIP3    H249811   2.421   4.347   5.131 -0.1238  0.3022  0.4160
 9466TIP3   OH249812   1.991   4.327  15.362  0.5808 -0.1876  0.6271
 9466TIP3    H149813   1.927   4.390  15.395  3.0243  1.5178  2.3394
 9466TIP3    H249814   1.939   4.252  15.334 -2.1792  1.3389  1.4786
 9467TIP3   OH249815   1.874   1.606  15.722 -0.2796 -0.9043  0.2181
 9467TIP3    H149816   1.897   1.686  15.674 -1.1431 -0.8428 -0.0895
 9467TIP3    H249817   1.780   1.610  15.733 -0.3814 -2.0597 -0.1232
 9468TIP3   OH249818   5.100   4.717  12.515  0.4466  0.2673 -0.1171
 9468TIP3    H149819   5.082   4.630  12.550 -1.7543  1.1723  1.0695
 9468TIP3    H249820   5.109   4.773  12.592  0.7664  1.3096 -0.8974
 9469TIP3   OH249821   5.508   5.899  11.742 -0.6330 -0.2006  0.3865
 9469TIP3    H149822   5.484   5.878  11.832 -2.0660  0.0754  0.0822
 9469TIP3    H249823   5.445   5.850  11.688  0.2505 -0.4121 -0.4566
 9470TIP3   OH249824   1.129   1.809   3.393 -0.3376 -0.3601 -0.0417
 9470TIP3    H149825   1.111   1.735   3.451  0.1111  0.2665  0.9148
 9470TIP3    H249826   1.225   1.817   3.394 -0.1260 -1.9115 -2.8531
 9471TIP3   OH249827   5.117   5.500  12.446  0.1200  0.0152  0.0080
 9471TIP3    H149828   5.137   5.549  12.526  2.4546 -0.4057 -0.2822
 9471TIP3    H249829   5.021   5.496  12.444 -0.0260  1.6012  1.8195
 9472TIP3   OH249830   6.434   0.125  10.677 -0.5012 -0.3359 -0.4681
 9472TIP3    H149831   6.442   0.041  10.633  0.3338 -1.2974  1.4438
 9472TIP3    H249832   6.366   0.111  10.743 -0.4717  0.5394 -0.2473
 9473TIP3   OH249833   5.881   1.758   5.841  0.0088  0.3565  0.3228
 9473TIP3    H149834   5.826   1.757   5.763 -0.8030  3.3560  0.7836
 9473TIP3    H249835   5.915   1.669   5.848 -3.3836 -1.1166 -0.9667
 9474TIP3   OH249836   3.179   4.378  17.048  1.0503 -0.2878  0.0785
 9474TIP3    H149837   3.096   4.423  17.055  0.3646 -1.5688  0.3293
 9474TIP3    H249838   3.183   4.321  17.124  0.9852 -2.1140 -1.2492
 9475TIP3   OH249839   5.744   3.722   2.794 -0.1260  0.5069  0.0652
 9475TIP3    H149840   5.762   3.637   2.755 -0.9008  0.5337 -0.3758
 9475TIP3    H249841   5.794   3.723   2.876  0.1947 -0.2109 -0.1204
 9476TIP3   OH249842   2.751   0.297  12.629 -0.0905  0.1344  0.1079
 9476TIP3    H149843   2.812   0.235  12.587  0.5140  1.3267 -0.8206
 9476TIP3    H249844   2.771   0.291  12.722  0.0997 -0.9136  0.0118
 9477TIP3   OH249845   3.708   2.941  14.202 -0.1012  0.0922 -0.0070
 9477TIP3    H149846   3.683   3.033  14.215  0.4646  0.1165  0.9284
 9477TIP3    H249847   3.804   2.943  14.195  0.2959 -0.8983  4.1598
 9478TIP3   OH249848   1.830   6.264  14.492  0.4009 -0.0590 -0.0478
 9478TIP3    H149849   1.854   6.182  14.450  0.2995  0.1403 -0.4937
 9478TIP3    H249850   1.909   6.292  14.538 -0.0325 -1.2441  1.4722
 9479TIP3   OH249851   6.601   0.536   4.275  0.1689 -0.3699  0.0637
 9479TIP3    H149852   6.506   0.544   4.282  0.2921  0.6817  0.7164
 9479TIP3    H249853   6.622   0.581   4.194  0.1663 -0.0104  0.2574
 9480TIP3   OH249854   2.188   5.943   0.977 -0.1895  0.1255  0.7283
 9480TIP3    H149855   2.192   5.983   1.064 -0.1632 -0.5957  1.0677
 9480TIP3    H249856   2.143   5.859   0.992 -2.8810  1.3077 -0.4267
 9481TIP3   OH249857   0.376   4.561  15.543 -0.6137 -0.0961  0.0011
 9481TIP3    H149858   0.303   4.571  15.481 -0.5994 -1.3178 -0.2345
 9481TIP3    H249859   0.444   4.515  15.492 -0.9480 -1.9406  1.1576
 9482TIP3   OH249860   6.314   0.401   3.757  0.2356 -0.2615  0.0302
 9482TIP3    H149861   6.405   0.416   3.730  0.2128  1.6679  0.9179
 9482TIP3    H249862   6.312   0.310   3.787  1.5244 -0.7578 -1.3222
 9483TIP3   OH249863   0.223   4.731   0.741 -0.1260 -0.2250 -0.4784
 9483TIP3    H149864   0.135   4.697   0.760  0.2640 -0.1678  1.5017
 9483TIP3    H249865   0.210   4.825   0.728 -0.1960 -0.0324  0.9585
 9484TIP3   OH249866   5.896   2.978   1.741 -0.6081  0.2968  0.0992
 9484TIP3    H149867   5.902   2.885   1.764  0.9629  0.0084 -1.3281
 9484TIP3    H249868   5.948   2.986   1.661  0.8584  2.7564  1.2357
 9485TIP3   OH249869   3.516   0.770  12.421 -0.3359 -0.1889  0.0331
 9485TIP3    H149870   3.441   0.711  12.431 -1.2016  0.8507 -0.0905
 9485TIP3    H249871   3.591   0.720  12.451 -1.5210 -0.2661  3.0917
 9486TIP3   OH249872   5.296   5.398  16.833 -0.0657 -0.5603 -0.2555
 9486TIP3    H149873   5.209   5.431  16.811 -0.0182  1.6515  2.5826
 9486TIP3    H249874   5.352   5.475  16.832  1.7578 -1.8547 -1.3847
 9487TIP3   OH249875   2.405   6.448  13.324  0.1314 -0.3006 -0.0410
 9487TIP3    H149876   2.313   6.455  13.348  0.2012  0.6641 -0.0498
 9487TIP3    H249877   2.405   6.400  13.241 -0.3450 -0.4546  0.0477
 9488TIP3   OH249878   5.583   5.995   4.026 -0.0750  0.0584 -0.9331
 9488TIP3    H149879   5.599   5.903   4.007  0.6260 -0.2405  1.0479
 9488TIP3    H249880   5.670   6.033   4.038 -0.4825  0.2471  1.5495
 9489TIP3   OH249881   2.648   1.427  16.563  0.1495 -0.8242 -0.3771
 9489TIP3    H149882   2.638   1.497  16.498  0.0138 -0.2670  0.2338
 9489TIP3    H249883   2.711   1.462  16.626  0.9738 -1.7174 -0.6885
 9490TIP3   OH249884   1.118   0.385  15.444  0.4033  0.1366 -0.0233
 9490TIP3    H149885   1.071   0.338  15.375  0.4745 -0.5241  0.3705
 9490TIP3    H249886   1.137   0.318  15.510  1.6681  0.4527 -0.0591
 9491TIP3   OH249887   4.824   4.004  16.752  0.2026 -0.3673 -0.2515
 9491TIP3    H149888   4.886   3.993  16.679 -0.3497  0.8534 -0.9273
 9491TIP3    H249889   4.868   4.066  16.811  0.7668 -1.5611  0.6086
 9492TIP3   OH249890   2.430   3.760  10.873 -0.1623  0.0050  0.2203
 9492TIP3    H149891   2.445   3.846  10.912  0.6868  0.2782 -0.6634
 9492TIP3    H249892   2.517   3.731  10.844 -0.4886 -0.9989  0.1960
 9493TIP3   OH249893   2.999   2.334   4.434 -0.6938 -0.2203 -0.0241
 9493TIP3    H149894   3.082   2.302   4.471 -0.3534  0.9762  0.2915
 9493TIP3    H249895   3.017   2.425   4.411 -1.2830 -0.5858 -2.0217
 9494TIP3   OH249896   1.995   3.160   4.141  0.2560  0.0973 -0.2275
 9494TIP3    H149897   2.036   3.207   4.214  0.5306 -1.1956  0.4606
 9494TIP3    H249898   1.908   3.136   4.174 -0.0241  0.4431 -0.7093
 9495TIP3   OH249899   0.875   3.774  15.861  0.0354  0.2959 -0.1873
 9495TIP3    H149900   0.860   3.862  15.896 -0.6046 -0.7091  2.1396
 9495TIP3    H249901   0.800   3.759  15.803 -0.0169  1.1319 -0.3494
 9496TIP3   OH249902   0.036   5.715   2.998 -0.1649  0.1677  0.1843
 9496TIP3    H149903   0.119   5.691   3.041 -0.3703 -1.4525 -0.2923
 9496TIP3    H249904   0.062   5.743   2.910 -0.0738  0.1337  0.2001
 9497TIP3   OH249905   3.603   2.568   1.039 -0.0230  0.2583 -0.5553
 9497TIP3    H149906   3.635   2.501   1.099 -1.0431  1.1451  1.0062
 9497TIP3    H249907   3.677   2.585   0.980  0.9954 -0.6061  0.4619
 9498TIP3   OH249908   2.033   6.559  14.569  0.3121 -0.1209  0.7437
 9498TIP3    H149909   1.981   6.542  14.647  1.9246 -0.5356  1.7359
 9498TIP3    H249910   1.977   6.616  14.516 -2.1788 -2.5054  0.6512
 9499TIP3   OH249911   6.440   1.477   2.459  0.0669  0.3385  0.2723
 9499TIP3    H149912   6.460   1.494   2.551  1.4876 -0.3967  0.1186
 9499TIP3    H249913   6.523   1.491   2.413 -0.3618 -0.3574 -0.7482
 9500TIP3   OH249914   5.236   2.830   1.957 -0.4238  0.7578 -0.2391
 9500TIP3    H149915   5.143   2.835   1.935 -0.4069  0.8157 -0.3001
 9500TIP3    H249916   5.265   2.922   1.957 -0.7562  0.8793  1.4702
 9501TIP3   OH249917   6.128   4.531  17.223 -0.1718  0.4035 -0.3985
 9501TIP3    H149918   6.064   4.591  17.185 -0.5896  0.6299  0.6530
 9501TIP3    H249919   6.110   4.533  17.317  0.4636 -0.6101 -0.2512
 9502TIP3   OH249920   0.494   2.094   2.871 -0.4229 -0.5886  0.7269
 9502TIP3    H149921   0.571   2.149   2.855 -2.1126  1.8826  0.8753
 9502TIP3    H249922   0.493   2.080   2.966  0.6041 -1.8146  0.5726
 9503TIP3   OH249923   4.831   2.053  11.312  0.4322 -0.3013 -0.6755
 9503TIP3    H149924   4.861   2.091  11.230 -2.4703  3.0698 -0.2990
 9503TIP3    H249925   4.821   1.960  11.293  2.6633 -0.0893 -3.2114
 9504TIP3   OH249926   1.413   1.004   2.912  0.2269 -0.2060  0.1098
 9504TIP3    H149927   1.426   1.097   2.895 -0.5928 -0.0072  0.5213
 9504TIP3    H249928   1.498   0.964   2.894  0.8255  0.7418  0.7896
 9505TIP3   OH249929   4.541   3.373   3.010  0.2678 -0.1587 -0.1124
 9505TIP3    H149930   4.576   3.291   3.044  0.1029  0.6230  2.0116
 9505TIP3    H249931   4.618   3.427   2.992  0.3173 -0.1426  0.1459
 9506TIP3   OH249932   4.413   1.010   2.910 -0.0159 -0.2191  0.1039
 9506TIP3    H149933   4.430   0.992   2.818  0.8520  1.1307 -0.0261
 9506TIP3    H249934   4.494   1.051   2.942 -1.6740  2.9772  0.4400
 9507TIP3   OH249935   2.140   4.438   4.495 -0.0182 -0.3857  0.0665
 9507TIP3    H149936   2.104   4.361   4.450  0.2581  0.8524 -2.3406
 9507TIP3    H249937   2.146   4.505   4.427  1.9492  1.0572  1.6070
 9508TIP3   OH249938   2.208   2.420  15.542  0.4106 -0.4455  0.2409
 9508TIP3    H149939   2.184   2.328  15.525  3.0775 -1.6436  2.5286
 9508TIP3    H249940   2.251   2.448  15.461 -1.1277 -0.9341 -0.7728
 9509TIP3   OH249941   5.492   3.154   1.589 -0.1459  0.0414 -0.3387
 9509TIP3    H149942   5.398   3.136   1.591 -0.0671 -0.3556 -0.1260
 9509TIP3    H249943   5.527   3.093   1.525  0.0076 -0.0090 -0.2076
 9510TIP3   OH249944   3.260   3.080  12.787  0.2640 -0.6793 -0.1193
 9510TIP3    H149945   3.232   3.102  12.875 -2.1761  1.4062 -1.3489
 9510TIP3    H249946   3.179   3.056  12.741  1.0693  1.0134 -2.5172
 9511TIP3   OH249947   6.778   4.450   5.866 -0.6515  0.2401 -0.1315
 9511TIP3    H149948   6.798   4.398   5.788  1.3854  0.0642  0.4756
 9511TIP3    H249949   6.788   4.541   5.837  1.2519  0.1542  0.1884
 9512TIP3   OH249950   6.221   4.414  13.441  0.4589 -0.0813  0.6971
 9512TIP3    H149951   6.283   4.485  13.424  1.4709 -1.0781  0.1676
 9512TIP3    H249952   6.141   4.458  13.472  1.6342  1.1889  2.0044
 9513TIP3   OH249953   1.750   2.386  13.695  0.1549 -0.2341  0.5529
 9513TIP3    H149954   1.810   2.313  13.682 -0.7649 -0.9344  0.2346
 9513TIP3    H249955   1.751   2.400  13.790  1.2747  0.1582  0.4990
 9514TIP3   OH249956   6.308   5.543   0.229 -0.5443  0.3483  0.6823
 9514TIP3    H149957   6.396   5.554   0.192 -1.0850  1.7617 -0.2332
 9514TIP3    H249958   6.319   5.478   0.297  1.0609 -0.1342 -0.0028
 9515TIP3   OH249959   0.155   4.095   2.218 -0.2393 -0.7257 -0.0382
 9515TIP3    H149960   0.126   4.174   2.171 -1.2819 -1.4678 -0.6406
 9515TIP3    H249961   0.235   4.069   2.172  0.1978  0.0539  0.2554
 9516TIP3   OH249962   1.535   3.128  12.807 -0.5834 -0.1414  0.2946
 9516TIP3    H149963   1.544   3.152  12.715  0.5379  1.7257  0.8535
 9516TIP3    H249964   1.445   3.153  12.830 -0.7672 -0.3373 -0.2141
 9517TIP3   OH249965   0.112   2.647   2.321  0.2088  0.7233 -0.2797
 9517TIP3    H149966   0.031   2.695   2.308  0.0151  0.5198  0.1501
 9517TIP3    H249967   0.181   2.714   2.317  0.0151  0.9076 -0.5529
 9518TIP3   OH249968   4.397   5.891   5.062  0.1338 -0.2023  0.1188
 9518TIP3    H149969   4.310   5.911   5.097 -0.3297 -0.9437 -0.6160
 9518TIP3    H249970   4.457   5.929   5.126 -0.7241 -0.1759  0.9220
 9519TIP3   OH249971   2.367   6.775  16.760  0.0340  0.0140 -0.1423
 9519TIP3    H149972   2.282   6.784  16.717  0.2756  0.5067 -0.5305
 9519TIP3    H249973   2.404   6.864  16.759 -0.6105  0.3265  2.4773
 9520TIP3   OH249974   5.247   1.695   0.673 -0.1104 -0.3551 -0.2509
 9520TIP3    H149975   5.202   1.749   0.608  0.9943  0.9761  0.0653
 9520TIP3    H249976   5.338   1.725   0.670  0.1444 -0.9355  1.2282
 9521TIP3   OH249977   5.391   6.482   2.348  0.5503  0.3338 -0.3979
 9521TIP3    H149978   5.379   6.574   2.326  0.5215  0.0629 -1.5916
 9521TIP3    H249979   5.449   6.448   2.279  1.9158 -0.1574  0.9703
 9522TIP3   OH249980   4.200   0.803   0.569 -0.3237  0.0935 -0.2695
 9522TIP3    H149981   4.228   0.812   0.477  2.2890  0.8701  0.5593
 9522TIP3    H249982   4.231   0.883   0.611 -1.2652 -0.3990  1.3772
 9523TIP3   OH249983   1.823   0.470   2.115  0.0510 -0.0266 -0.5273
 9523TIP3    H149984   1.813   0.539   2.180  0.9452 -1.1278  0.7874
 9523TIP3    H249985   1.817   0.515   2.031  1.2044  1.7491  0.3196
 9524TIP3   OH249986   4.564   5.817   1.506 -0.1561 -0.6502  0.0437
 9524TIP3    H149987   4.607   5.796   1.589 -2.1543  0.0715  1.2670
 9524TIP3    H249988   4.581   5.910   1.493 -0.3111 -0.6395 -0.0843
 9525TIP3   OH249989   2.035   2.415  12.578 -0.3609 -0.0538  0.0738
 9525TIP3    H149990   2.057   2.387  12.667 -1.1944 -0.1666  0.2474
 9525TIP3    H249991   2.106   2.474  12.553 -0.4887  0.5281  1.0718
 9526TIP3   OH249992   5.225   0.300   2.937 -0.5620  0.0560  0.4252
 9526TIP3    H149993   5.176   0.367   2.985  0.4974  0.2084  1.3041
 9526TIP3    H249994   5.317   0.320   2.954 -0.2224 -1.2007  0.1247
 9527TIP3   OH249995   3.916   5.240  15.936  0.0313 -0.1274 -0.2928
 9527TIP3    H149996   3.902   5.154  15.897 -1.2006 -0.9469  1.8736
 9527TIP3    H249997   3.832   5.285  15.925  0.5088  0.6323 -0.9461
 9528TIP3   OH249998   3.775   2.966  15.525 -0.0970 -0.4484 -0.4927
 9528TIP3    H149999   3.811   2.992  15.611  0.6590 -1.4097 -0.4995
 9528TIP3    H250000   3.699   2.912  15.547  0.3272 -1.0160 -0.4233
 9529TIP3   OH250001   0.101   0.847  14.959  0.5337 -0.2929  0.4209
 9529TIP3    H150002   0.072   0.900  15.033  0.8646 -0.6471  0.8141
 9529TIP3    H250003   0.042   0.772  14.959  2.6072 -2.0028  2.4262
 9530TIP3   OH250004   1.674   0.710   5.391 -0.3771  0.1536  0.2575
 9530TIP3    H150005   1.763   0.691   5.362  0.0438 -0.1074  1.6680
 9530TIP3    H250006   1.645   0.781   5.334  0.4836 -0.2206 -0.6658
 9531TIP3   OH250007   5.703   2.342   6.361 -0.0066 -0.1858  0.1244
 9531TIP3    H150008   5.699   2.412   6.426  1.3184 -0.7897  0.8651
 9531TIP3    H250009   5.613   2.311   6.354 -0.0270 -0.6757  2.2941
 9532TIP3   OH250010   1.681   0.611  16.075  0.1051 -0.9421 -0.0182
 9532TIP3    H150011   1.681   0.698  16.035  3.0127 -0.7147  0.3678
 9532TIP3    H250012   1.672   0.550  16.001 -0.3186 -0.3670 -0.4417
 9533TIP3   OH250013   3.776   3.433  14.759  0.0114  0.0819 -0.2484
 9533TIP3    H150014   3.693   3.470  14.730 -0.4389 -0.4815  0.3163
 9533TIP3    H250015   3.755   3.387  14.839  0.8113 -0.3427 -0.2793
 9534TIP3   OH250016   3.339   4.949  13.460  0.3899 -0.2325  0.5906
 9534TIP3    H150017   3.426   4.981  13.481 -0.0643  0.1376  1.9347
 9534TIP3    H250018   3.325   4.875  13.520 -0.4242  0.0429  0.7517
 9535TIP3   OH250019   5.843   6.308   3.700 -0.5778  0.7293 -0.5557
 9535TIP3    H150020   5.860   6.214   3.690 -0.6516  0.7741 -1.1144
 9535TIP3    H250021   5.829   6.339   3.611 -0.0394  1.3727 -0.4200
 9536TIP3   OH250022   5.069   3.554  17.098 -0.2733  0.0864 -0.2888
 9536TIP3    H150023   5.047   3.510  17.016  0.2455  1.9433 -1.4453
 9536TIP3    H250024   4.984   3.572  17.139 -0.5903  0.4539 -1.1099
 9537TIP3   OH250025   3.730   4.827   1.830 -0.2353  0.6723 -0.3473
 9537TIP3    H150026   3.792   4.900   1.830 -0.0114  0.4842  0.7507
 9537TIP3    H250027   3.677   4.839   1.908  0.1370 -0.6100  0.1294
 9538TIP3   OH250028   3.882   5.991  15.660  0.7890 -0.0764 -0.2511
 9538TIP3    H150029   3.974   6.005  15.636  0.5461 -1.1727 -1.8711
 9538TIP3    H250030   3.884   5.907  15.708  0.8940  0.8498  1.4173
 9539TIP3   OH250031   1.006   3.000   6.049  0.4655 -0.7076 -0.0361
 9539TIP3    H150032   0.931   2.955   6.087 -1.0003  0.4749 -1.4346
 9539TIP3    H250033   1.062   3.023   6.123 -1.8348  0.7036  1.3050
 9540TIP3   OH250034   1.902   3.156  16.408 -0.6315 -0.0969  0.0728
 9540TIP3    H150035   1.871   3.099  16.478 -0.8697  2.3088  1.9661
 9540TIP3    H250036   1.917   3.240  16.450  1.2474  0.8328 -2.3502
 9541TIP3   OH250037   1.632   4.379   1.066  0.3584 -0.3020  0.0994
 9541TIP3    H150038   1.665   4.460   1.104 -0.1553  1.4493 -3.0346
 9541TIP3    H250039   1.709   4.324   1.056  0.6725 -0.3581  2.4800
 9542TIP3   OH250040   1.689   2.523   6.166 -0.1954  0.1527  0.9945
 9542TIP3    H150041   1.608   2.482   6.195  1.0926 -2.0718  1.5814
 9542TIP3    H250042   1.758   2.468   6.202  1.6256  2.5957  1.4265
 9543TIP3   OH250043   0.254   4.162  15.981  0.1566 -0.5868  0.4829
 9543TIP3    H150044   0.190   4.103  15.941 -0.7623  0.0384  0.9933
 9543TIP3    H250045   0.206   4.204  16.052  1.1505 -0.1176  0.8820
 9544TIP3   OH250046   3.971   2.960  14.113 -0.4432  0.3588  0.2886
 9544TIP3    H150047   3.910   2.948  14.040 -2.2329  1.9257  1.4853
 9544TIP3    H250048   4.043   3.010  14.075 -0.8801  0.2964 -0.6530
 9545TIP3   OH250049   6.237   6.053  11.268 -0.0749 -0.4486 -0.3137
 9545TIP3    H150050   6.200   6.016  11.348 -1.1155 -0.2203 -0.6878
 9545TIP3    H250051   6.179   6.024  11.198  0.6275 -0.3530 -0.9496
 9546TIP3   OH250052   2.181   4.786   1.795  0.0059 -0.2753  0.0075
 9546TIP3    H150053   2.186   4.848   1.868 -0.6561 -0.6079  0.3399
 9546TIP3    H250054   2.250   4.723   1.813 -0.5407 -0.6916  0.6685
 9547TIP3   OH250055   0.465   0.914   0.114  0.4256 -0.6662  0.2289
 9547TIP3    H150056   0.386   0.876   0.075  0.9503 -0.9196 -0.5894
 9547TIP3    H250057   0.442   1.006   0.129  0.4948 -0.3523 -1.4731
 9548TIP3   OH250058   4.395   6.001   0.111  0.5441 -0.9636  0.1997
 9548TIP3    H150059   4.462   5.963   0.054  0.3615 -2.5316  0.9967
 9548TIP3    H250060   4.372   5.930   0.171 -2.3816 -0.6983 -0.5365
 9549TIP3   OH250061   5.448   5.669  12.683  0.1097  0.3774 -0.3477
 9549TIP3    H150062   5.521   5.725  12.708 -0.6207 -0.2729  3.5599
 9549TIP3    H250063   5.487   5.582  12.673  0.0190  0.1653  1.0447
 9550TIP3   OH250064   2.716   1.965   1.004 -0.0360 -0.4033 -0.2089
 9550TIP3    H150065   2.665   1.886   1.020  0.6732 -1.0098 -0.8392
 9550TIP3    H250066   2.658   2.023   0.955  1.0752 -2.6720 -4.4748
 9551TIP3   OH250067   3.479   1.823  11.141  0.1359 -0.2281 -0.4058
 9551TIP3    H150068   3.505   1.829  11.233  1.5100 -2.7506 -0.5942
 9551TIP3    H250069   3.539   1.882  11.096 -0.2951  0.7313  0.2519
 9552TIP3   OH250070   2.740   4.067   3.576 -0.0787  0.4820 -0.3852
 9552TIP3    H150071   2.740   4.041   3.484  0.1795  1.5043 -0.6762
 9552TIP3    H250072   2.664   4.125   3.584  1.3603  2.4362 -0.5476
 9553TIP3   OH250073   3.767   3.289   2.448  0.9386  0.2122  0.3065
 9553TIP3    H150074   3.702   3.328   2.390  2.7541 -1.7573 -3.2294
 9553TIP3    H250075   3.829   3.360   2.465 -0.7599  1.4153  1.7365
 9554TIP3   OH250076   5.742   5.231   6.126 -0.1228 -0.1649  0.4610
 9554TIP3    H150077   5.655   5.247   6.090 -0.6725 -2.1493  0.8604
 9554TIP3    H250078   5.763   5.141   6.100  1.5817  0.1080  0.8133
 9555TIP3   OH250079   2.702   4.503   5.489 -0.6823 -0.1554 -0.4143
 9555TIP3    H150080   2.703   4.422   5.438 -1.9020  0.3766 -1.3236
 9555TIP3    H250081   2.611   4.512   5.517 -0.9455  1.7936 -1.8238
 9556TIP3   OH250082   5.820   1.549  16.914 -0.0667 -0.6513 -0.6820
 9556TIP3    H150083   5.861   1.527  16.998  0.1042  2.9398  0.2427
 9556TIP3    H250084   5.732   1.577  16.937 -0.2742 -0.3666 -1.7822
 9557TIP3   OH250085   6.746   5.114  11.364  0.5591  0.5356 -0.4130
 9557TIP3    H150086   6.763   5.037  11.418  1.2176  1.2694  0.4450
 9557TIP3    H250087   6.753   5.083  11.274  1.7674 -0.1881 -0.0723
 9558TIP3   OH250088   5.809   4.720  11.321 -0.1777 -0.5388  0.0376
 9558TIP3    H150089   5.805   4.734  11.227 -1.9027  0.0641  0.1782
 9558TIP3    H250090   5.718   4.712  11.348  0.1926  0.8838  1.8620
 9559TIP3   OH250091   5.499   6.787  11.522  0.3075 -0.3280  0.2471
 9559TIP3    H150092   5.581   6.835  11.511  0.4269 -0.4668  0.5374
 9559TIP3    H250093   5.473   6.763  11.433  0.4631 -0.0850  0.1375
 9560TIP3   OH250094   5.844   6.366   5.364 -0.0670  0.8763 -0.4996
 9560TIP3    H150095   5.782   6.332   5.428 -0.8399  1.2030 -1.0695
 9560TIP3    H250096   5.908   6.295   5.352 -1.9782 -0.6497 -2.1121
 9561TIP3   OH250097   1.361   1.299  14.907 -0.2325 -0.3420  0.6828
 9561TIP3    H150098   1.270   1.329  14.906 -0.0812  0.1546 -1.3470
 9561TIP3    H250099   1.355   1.203  14.902 -0.6556 -0.2858 -0.0267
 9562TIP3   OH250100   2.883   4.601   2.933 -0.2623 -0.0132  0.1916
 9562TIP3    H150101   2.879   4.568   3.022  0.9359 -0.2117  0.1768
 9562TIP3    H250102   2.970   4.577   2.902  0.4608  2.6708  0.0015
 9563TIP3   OH250103   5.611   6.746   2.001  0.0757  0.1386  0.1092
 9563TIP3    H150104   5.654   6.687   1.940  0.0760  1.4670 -1.1926
 9563TIP3    H250105   5.652   6.727   2.086  0.7583 -1.0251 -0.4716
 9564TIP3   OH250106   0.145   0.367  12.408 -0.1959  0.3782 -0.1496
 9564TIP3    H150107   0.134   0.378  12.313 -1.4063  2.1549  0.1785
 9564TIP3    H250108   0.240   0.371  12.422 -0.0685  1.1247 -1.1647
 9565TIP3   OH250109   5.632   5.073  12.806 -0.4231 -0.4061  0.0563
 9565TIP3    H150110   5.631   5.123  12.725  1.0941 -1.1243 -0.4347
 9565TIP3    H250111   5.542   5.042  12.817 -0.7219  0.0244 -1.1414
 9566TIP3   OH250112   6.381   2.859   1.720  0.5177  0.5878 -0.0671
 9566TIP3    H150113   6.417   2.800   1.786  0.6011  0.5884 -0.1117
 9566TIP3    H250114   6.300   2.893   1.758 -0.0388 -0.3076 -0.4245
 9567TIP3   OH250115   2.890   1.284  14.973  0.0456 -0.3207  0.0199
 9567TIP3    H150116   2.795   1.286  14.961  0.0988 -1.3216 -0.6404
 9567TIP3    H250117   2.920   1.368  14.938 -0.3320 -1.1035 -2.3018
 9568TIP3   OH250118   4.242   4.517  13.784 -0.2873 -0.1486  0.2820
 9568TIP3    H150119   4.294   4.437  13.797 -0.1487 -0.2223 -0.7461
 9568TIP3    H250120   4.195   4.527  13.867 -0.6328 -1.5446  0.2834
 9569TIP3   OH250121   0.954   4.895  14.792  0.4705  0.1958  0.4840
 9569TIP3    H150122   0.919   4.887  14.881 -1.6711  2.1888 -0.1099
 9569TIP3    H250123   0.893   4.844  14.738  2.4462 -2.0354  0.2416
 9570TIP3   OH250124   5.684   5.569   2.568 -0.1477 -0.3919  0.1322
 9570TIP3    H150125   5.676   5.664   2.554  1.6485 -0.5193 -2.0943
 9570TIP3    H250126   5.728   5.561   2.653 -0.9128  0.7474  0.6460
 9571TIP3   OH250127   3.273   6.086   0.327 -0.7074  0.4170  0.2599
 9571TIP3    H150128   3.349   6.125   0.370 -0.4763  0.9146 -0.5807
 9571TIP3    H250129   3.309   6.012   0.278 -0.6682  1.0009 -0.6035
 9572TIP3   OH250130   6.609   5.377  14.698 -0.4050  0.7951 -0.3037
 9572TIP3    H150131   6.550   5.408  14.767 -0.6121 -0.7151  0.2094
 9572TIP3    H250132   6.630   5.456  14.648 -1.7269  1.5955  0.3622
 9573TIP3   OH250133   5.500   3.091  14.630 -0.0727 -0.3836  0.8609
 9573TIP3    H150134   5.586   3.049  14.632  0.8316  1.3787 -0.1111
 9573TIP3    H250135   5.503   3.153  14.703 -0.0017  0.6824 -0.0524
 9574TIP3   OH250136   5.547   3.968  12.291  0.1186  0.0912 -0.1854
 9574TIP3    H150137   5.510   4.028  12.226 -2.0154 -0.3247  0.5833
 9574TIP3    H250138   5.628   3.936  12.252 -1.0672 -0.0599 -2.5763
 9575TIP3   OH250139   3.755   6.654   4.699 -0.3276 -0.6174 -0.0321
 9575TIP3    H150140   3.781   6.614   4.783  0.5923  0.7750  0.3549
 9575TIP3    H250141   3.836   6.660   4.649 -0.9178 -1.7080 -1.1732
 9576TIP3   OH250142   4.724   5.076  13.266 -0.8576 -0.5578  0.2266
 9576TIP3    H150143   4.694   5.041  13.182  2.6491  0.8553 -1.7332
 9576TIP3    H250144   4.675   5.158  13.277  1.2317  1.1507 -2.3612
 9577TIP3   OH250145   5.454   1.817  13.513 -0.5638 -0.2815 -0.2371
 9577TIP3    H150146   5.391   1.828  13.442 -1.1008  1.6343  0.5357
 9577TIP3    H250147   5.478   1.724  13.509  0.2108  0.0130 -3.5977
 9578TIP3   OH250148   3.475   3.739  11.511 -0.1834 -0.4390  0.3330
 9578TIP3    H150149   3.419   3.668  11.543  0.0436 -1.3483 -1.2144
 9578TIP3    H250150   3.423   3.781  11.442 -0.4160  1.0809  1.4218
 9579TIP3   OH250151   4.325   1.396   2.059 -0.2294  0.2752  0.6288
 9579TIP3    H150152   4.368   1.311   2.070 -1.7923 -0.7876 -1.0487
 9579TIP3    H250153   4.307   1.402   1.965 -2.6160  1.1984  1.0946
 9580TIP3   OH250154   3.902   3.717   1.285  0.2755 -0.1365  0.6421
 9580TIP3    H150155   3.824   3.730   1.339 -0.2100  1.0342 -0.3156
 9580TIP3    H250156   3.894   3.782   1.216  0.6002 -1.9927 -1.1812
 9581TIP3   OH250157   4.150   6.342   4.233 -0.1159 -0.0411 -0.1458
 9581TIP3    H150158   4.245   6.346   4.243 -0.3194  1.3199  1.5758
 9581TIP3    H250159   4.128   6.250   4.249  0.9482 -0.4258 -0.9034
 9582TIP3   OH250160   3.886   4.901   6.003 -0.2046  0.9126 -0.0747
 9582TIP3    H150161   3.949   4.907   6.075 -0.4942 -1.3127  0.3779
 9582TIP3    H250162   3.812   4.853   6.040 -0.8639  0.8018 -1.5320
 9583TIP3   OH250163   6.784   1.667   4.453 -0.8281 -0.3986  0.2188
 9583TIP3    H150164   6.823   1.679   4.366 -0.4498  0.4087  0.4983
 9583TIP3    H250165   6.803   1.576   4.475 -1.9773 -0.9852 -1.0618
 9584TIP3   OH250166   1.455   5.928   0.214  0.2079  0.2504 -0.4858
 9584TIP3    H150167   1.401   5.855   0.184 -0.5457  0.5710  0.0807
 9584TIP3    H250168   1.468   5.911   0.307  1.6269 -0.1631 -0.7396
 9585TIP3   OH250169   6.544   3.901   2.564 -0.4970 -0.0189  0.1678
 9585TIP3    H150170   6.594   3.979   2.540 -0.6209  0.4021  1.2541
 9585TIP3    H250171   6.603   3.828   2.547 -1.1002  0.1343 -2.8645
 9586TIP3   OH250172   5.972   5.070   1.062  0.3263 -0.8135 -1.2228
 9586TIP3    H150173   5.974   5.068   1.158 -1.7894 -1.8486 -1.1623
 9586TIP3    H250174   6.063   5.059   1.036  0.8031 -1.5932  0.6794
 9587TIP3   OH250175   6.551   0.213   3.662 -0.1582  0.4339 -0.0314
 9587TIP3    H150176   6.564   0.243   3.572 -1.6349  0.7884 -0.1368
 9587TIP3    H250177   6.620   0.257   3.712 -1.4830  3.0149 -0.4018
 9588TIP3   OH250178   4.439   0.210  16.314 -0.1675  1.1792  0.1107
 9588TIP3    H150179   4.499   0.193  16.240  0.1055  0.1593  0.5588
 9588TIP3    H250180   4.358   0.240  16.272  0.3287  1.6218 -0.5522
 9589TIP3   OH250181   1.200   2.641  13.276 -1.0004 -0.5120  0.3934
 9589TIP3    H150182   1.238   2.619  13.361 -2.0375 -0.3805  0.8997
 9589TIP3    H250183   1.180   2.735  13.281 -1.6605 -0.6358  0.2563
 9590TIP3   OH250184   4.704   1.968   4.622  0.3525 -0.2460 -0.3964
 9590TIP3    H150185   4.787   1.941   4.660 -0.3760 -0.5714  0.9843
 9590TIP3    H250186   4.691   2.058   4.652  0.4065 -0.0461 -0.9613
 9591TIP3   OH250187   6.041   0.548  15.832 -0.0627  0.3619  0.2367
 9591TIP3    H150188   5.963   0.496  15.814 -0.4483  1.1474 -0.3608
 9591TIP3    H250189   6.035   0.569  15.925 -0.2439 -0.1000  0.3310
 9592TIP3   OH250190   3.731   3.002   4.712  0.0350 -0.7709  0.2135
 9592TIP3    H150191   3.739   2.970   4.622  0.7604  0.1550 -0.0525
 9592TIP3    H250192   3.706   3.094   4.702  3.9323  0.4254  0.9089
 9593TIP3   OH250193   3.485   2.087  16.015  0.0102 -0.1833 -0.4020
 9593TIP3    H150194   3.400   2.081  16.058  0.2211  1.6698  0.3289
 9593TIP3    H250195   3.531   2.157  16.062  1.5313 -0.4202 -1.4789
 9594TIP3   OH250196   2.567   2.222   4.696  0.5762 -0.0913  0.4977
 9594TIP3    H150197   2.622   2.264   4.630 -1.2573  2.3235  0.4747
 9594TIP3    H250198   2.539   2.293   4.753  0.8745 -1.9094  3.0193
 9595TIP3   OH250199   6.355   5.387   2.517  0.5516  0.2060  0.2422
 9595TIP3    H150200   6.311   5.402   2.433  0.9488  1.1032  0.1873
 9595TIP3    H250201   6.319   5.304   2.548 -0.5552  0.5032 -0.2070
 9596TIP3   OH250202   3.394   6.415  12.694 -0.2394 -0.8437 -0.2497
 9596TIP3    H150203   3.488   6.404  12.680 -0.3985 -2.2425 -0.2444
 9596TIP3    H250204   3.354   6.398  12.609 -0.3804  1.5900 -0.7231
 9597TIP3   OH250205   3.225   5.963  11.902 -0.3813 -0.0665 -0.1687
 9597TIP3    H150206   3.233   6.058  11.893 -2.6291  0.1319 -0.3974
 9597TIP3    H250207   3.160   5.950  11.971  0.3881 -1.4478  0.3217
 9598TIP3   OH250208   3.246   3.290   0.885  0.0647  0.0860  0.4799
 9598TIP3    H150209   3.280   3.208   0.919  1.4787  0.4000 -0.1252
 9598TIP3    H250210   3.317   3.353   0.898  0.0179  0.5922 -1.5090
 9599TIP3   OH250211   3.145   4.225  14.326  0.1242  0.4536  0.2831
 9599TIP3    H150212   3.238   4.245  14.322 -0.1759  1.5939 -1.9800
 9599TIP3    H250213   3.125   4.190  14.239 -1.9021  1.8452  0.1691
 9600TIP3   OH250214   6.750   6.649   1.410  0.1050  0.1718  0.0592
 9600TIP3    H150215   6.742   6.742   1.432  1.4407  0.3088 -0.0009
 9600TIP3    H250216   6.823   6.617   1.463  0.7701 -0.4337 -1.1843
 9601TIP3   OH250217   2.714   6.080   3.198 -0.3558  0.5680 -0.0373
 9601TIP3    H150218   2.777   6.082   3.127  0.7872 -0.2804  0.9312
 9601TIP3    H250219   2.767   6.079   3.278 -1.5786 -0.5105  0.7955
 9602TIP3   OH250220   6.409   4.571  13.781 -0.0040  0.2297 -0.8237
 9602TIP3    H150221   6.318   4.596  13.765  0.9024  2.4122 -2.8136
 9602TIP3    H250222   6.427   4.504  13.715 -0.1808 -0.2791 -0.3604
 9603TIP3   OH250223   3.769   1.050   0.897 -0.0692  0.0134  0.6081
 9603TIP3    H150224   3.695   1.006   0.856  1.0036  0.0262 -1.3625
 9603TIP3    H250225   3.750   1.143   0.887  0.4197  0.0197 -0.2974
 9604TIP3   OH250226   5.076   1.311   5.751 -0.2869  0.0233  0.3244
 9604TIP3    H150227   4.987   1.315   5.716 -0.5314 -0.9412  0.7995
 9604TIP3    H250228   5.066   1.267   5.836  1.0206 -2.8067 -0.9396
 9605TIP3   OH250229   3.264   4.896  11.509 -0.1073  0.2412 -0.0519
 9605TIP3    H150230   3.223   4.811  11.520  0.9485 -0.0447  1.9028
 9605TIP3    H250231   3.302   4.894  11.422 -0.5561 -1.0893 -0.2193
 9606TIP3   OH250232   1.178   6.284   5.155 -0.0374  0.2558  0.2222
 9606TIP3    H150233   1.086   6.260   5.161 -0.0227 -0.0552 -0.6719
 9606TIP3    H250234   1.180   6.378   5.170 -0.4284  0.1679  0.8484
 9607TIP3   OH250235   3.655   5.795   5.966  0.4681  0.5530 -0.6337
 9607TIP3    H150236   3.680   5.883   5.993  0.1128  0.2127  0.8303
 9607TIP3    H250237   3.661   5.742   6.045 -2.9373  0.0495 -0.6379
 9608TIP3   OH250238   0.575   5.353   1.817 -0.7829  0.2665  0.2563
 9608TIP3    H150239   0.485   5.367   1.847 -1.2088 -0.7577 -0.5310
 9608TIP3    H250240   0.575   5.264   1.782  0.6821  0.0617  0.7556
 9609TIP3   OH250241   1.519   4.568  15.675 -0.5358 -0.2843 -0.2292
 9609TIP3    H150242   1.538   4.491  15.622 -3.6017 -0.7421 -0.7205
 9609TIP3    H250243   1.511   4.534  15.764 -1.3321 -0.4440 -0.3621
 9610TIP3   OH250244   4.833   5.830  11.986  0.3949  0.0109 -0.6518
 9610TIP3    H150245   4.765   5.764  11.997  1.3313 -0.4077  3.8222
 9610TIP3    H250246   4.913   5.780  11.973  0.7719  0.2641  0.5802
 9611TIP3   OH250247   4.785   0.014  10.781  0.3755  0.0743 -0.5354
 9611TIP3    H150248   4.743  -0.063  10.741  0.9249 -1.2563  1.3605
 9611TIP3    H250249   4.840   0.050  10.712  0.0892 -1.2222 -1.4671
 9612TIP3   OH250250   3.330   3.372   4.609  0.2674  0.1156  0.6031
 9612TIP3    H150251   3.396   3.402   4.672  0.7283 -0.1897  0.2681
 9612TIP3    H250252   3.260   3.437   4.615  1.6594  1.7741 -0.7798
 9613TIP3   OH250253   1.274   1.272  12.998 -0.5263 -0.5333 -0.4440
 9613TIP3    H150254   1.331   1.221  13.054 -0.0551  0.7787  0.2875
 9613TIP3    H250255   1.247   1.211  12.929  0.0734 -1.7308  0.3723
 9614TIP3   OH250256   5.029   3.300   3.751 -0.0283 -0.6724  0.2827
 9614TIP3    H150257   4.965   3.249   3.701  1.0757 -2.2301  0.4212
 9614TIP3    H250258   4.997   3.390   3.745 -1.2538 -1.1707 -1.1575
 9615TIP3   OH250259   2.993   1.969  13.983  0.3350  0.5735  1.1729
 9615TIP3    H150260   3.067   1.966  13.923 -1.3996  1.6045 -1.1087
 9615TIP3    H250261   3.032   1.968  14.070  2.9341 -0.6154  0.0360
 9616TIP3   OH250262   2.132   5.022   2.005 -0.0481 -0.2011  0.2194
 9616TIP3    H150263   2.043   5.011   1.972  0.5236 -2.2676 -0.7538
 9616TIP3    H250264   2.120   5.055   2.094 -1.6645  2.8706 -1.0659
 9617TIP3   OH250265   4.198   5.221   4.649 -0.5696 -0.2992 -0.1433
 9617TIP3    H150266   4.276   5.195   4.700 -1.5339  0.3511  1.7282
 9617TIP3    H250267   4.196   5.316   4.655 -1.7152 -0.3340  0.1558
 9618TIP3   OH250268   2.751   1.743  11.950 -0.1301  0.6610 -0.4342
 9618TIP3    H150269   2.767   1.673  11.887 -0.3753  1.3425 -1.2532
 9618TIP3    H250270   2.767   1.702  12.035 -1.0893 -0.6155 -0.8586
 9619TIP3   OH250271   5.425   6.320   5.932 -0.2430  0.4238 -0.0521
 9619TIP3    H150272   5.387   6.333   6.019  0.2907  0.5406  0.1666
 9619TIP3    H250273   5.462   6.232   5.935  0.3471  0.6714  0.0592
 9620TIP3   OH250274   6.255   4.170   2.782 -0.3124 -0.1632 -0.3223
 9620TIP3    H150275   6.276   4.154   2.690  1.2727  0.8858 -0.1722
 9620TIP3    H250276   6.241   4.264   2.788  1.1578  0.0078  0.7919
 9621TIP3   OH250277   6.551   0.442  13.458  0.3359 -0.6267 -0.0831
 9621TIP3    H150278   6.604   0.440  13.537 -0.5988  0.6598  0.6025
 9621TIP3    H250279   6.608   0.479  13.391  0.6580 -0.3030  0.3699
 9622TIP3   OH250280   5.776   3.484   4.093 -0.2837 -0.3904 -0.1350
 9622TIP3    H150281   5.680   3.481   4.099 -0.2839 -1.4550 -0.6041
 9622TIP3    H250282   5.793   3.504   4.001 -0.0393 -1.0941 -0.2414
 9623TIP3   OH250283   4.760   6.553  17.085 -0.1271 -0.2678  0.2045
 9623TIP3    H150284   4.771   6.486  17.153  0.1708 -0.8126 -0.3645
 9623TIP3    H250285   4.682   6.524  17.036 -0.5444  0.3080  0.5217
 9624TIP3   OH250286   0.541   4.309  11.424 -0.0122  0.2015 -0.2062
 9624TIP3    H150287   0.461   4.351  11.455  1.4572  1.9492  1.3478
 9624TIP3    H250288   0.566   4.251  11.496 -0.1633 -0.7447 -0.9145
 9625TIP3   OH250289   2.653   5.599   2.157 -0.1991  0.6698 -0.7342
 9625TIP3    H150290   2.677   5.667   2.094 -2.0549 -0.5737 -2.8331
 9625TIP3    H250291   2.563   5.619   2.180 -0.4658 -0.5752 -0.6791
 9626TIP3   OH250292   1.372   5.457   2.366  0.3927  0.2291 -0.7467
 9626TIP3    H150293   1.405   5.479   2.453  2.2790  0.1683 -1.4373
 9626TIP3    H250294   1.318   5.379   2.380  0.1344  0.6082  0.4535
 9627TIP3   OH250295   5.364   3.893   6.146 -0.2994 -0.0016  0.4085
 9627TIP3    H150296   5.454   3.904   6.114 -0.4730  1.4454  0.3916
 9627TIP3    H250297   5.337   3.981   6.173 -1.0960 -0.7308  2.0694
 9628TIP3   OH250298   2.521   5.135  13.799 -0.0621  0.0456  0.0945
 9628TIP3    H150299   2.597   5.110  13.852 -0.6819 -0.1586  0.8834
 9628TIP3    H250300   2.464   5.182  13.859  0.1537  1.5935 -0.8886
 9629TIP3   OH250301   0.414   3.634   4.265  0.0455  0.3686 -0.2936
 9629TIP3    H150302   0.390   3.727   4.277  1.3010  0.6422  0.1630
 9629TIP3    H250303   0.472   3.615   4.339  0.0097 -0.7174 -0.5428
 9630TIP3   OH250304   4.936   1.374   1.984 -0.5066 -0.0180 -0.8184
 9630TIP3    H150305   4.942   1.414   1.897 -0.1011  0.2215 -0.6799
 9630TIP3    H250306   4.893   1.289   1.968  0.3907 -0.3726 -1.3882
 9631TIP3   OH250307   3.572   1.499  11.892  0.0440 -0.5428  0.0610
 9631TIP3    H150308   3.665   1.479  11.887 -0.1401 -1.9710  1.9752
 9631TIP3    H250309   3.565   1.572  11.954 -0.0788 -0.1562 -0.4033
 9632TIP3   OH250310   1.750   0.664  13.848  0.5482  0.1253 -0.1325
 9632TIP3    H150311   1.657   0.662  13.826  0.4968 -0.0488  0.0990
 9632TIP3    H250312   1.775   0.572  13.855  1.3579  0.1054 -2.7815
 9633TIP3   OH250313   0.102   4.049   5.606  0.4763  0.1059 -0.3358
 9633TIP3    H150314   0.125   4.006   5.688  0.4149  0.6171 -0.0492
 9633TIP3    H250315   0.026   4.102   5.627  0.6157  0.4408 -0.6661
 9634TIP3   OH250316   4.318   6.092  16.552 -0.5857  0.8221  0.0457
 9634TIP3    H150317   4.268   6.026  16.505  1.8293 -2.0871  1.3849
 9634TIP3    H250318   4.369   6.137  16.483 -2.0585  1.1586 -0.8435
 9635TIP3   OH250319   1.596   3.042  16.221 -0.4051  0.2170 -0.2297
 9635TIP3    H150320   1.583   2.949  16.206 -3.5046  0.5548  0.1297
 9635TIP3    H250321   1.540   3.063  16.295 -0.4317  2.5559 -0.8814
 9636TIP3   OH250322   6.505   0.580   1.257 -0.2748  0.3500  0.5859
 9636TIP3    H150323   6.416   0.595   1.288 -0.1402  0.4873  0.9046
 9636TIP3    H250324   6.560   0.634   1.313  0.0915 -0.3962  0.9588
 9637TIP3   OH250325   6.682   6.032  14.971  0.5685 -0.3068  0.2299
 9637TIP3    H150326   6.703   6.016  14.879 -1.2986  0.0904 -0.2702
 9637TIP3    H250327   6.704   6.125  14.984  0.9498 -0.3949  0.2256
 9638TIP3   OH250328   0.868   2.936  10.911 -0.0098 -0.2484  0.3849
 9638TIP3    H150329   0.787   2.931  10.860  0.3112  0.7762 -0.2366
 9638TIP3    H250330   0.933   2.971  10.850  0.8487 -0.8310  0.9517
 9639TIP3   OH250331   6.586   6.345   4.389  0.5486 -0.3339  0.7734
 9639TIP3    H150332   6.505   6.295   4.380  0.4018 -0.1446  1.0361
 9639TIP3    H250333   6.624   6.315   4.471  0.3005  0.2150  1.0892
 9640TIP3   OH250334   4.851   6.588   2.155 -0.4786 -0.2640 -0.1277
 9640TIP3    H150335   4.907   6.600   2.232 -0.0862  3.0083 -0.8796
 9640TIP3    H250336   4.832   6.494   2.154  1.0261 -0.6511  2.8939
 9641TIP3   OH250337   4.797   4.625   5.834 -0.8431  0.3885 -0.5483
 9641TIP3    H150338   4.803   4.692   5.902  0.8991  2.9359 -3.0662
 9641TIP3    H250339   4.873   4.568   5.850 -1.3072  0.0612  0.5273
 9642TIP3   OH250340   6.699   3.830  13.021 -0.2419  0.2443 -0.2426
 9642TIP3    H150341   6.736   3.846  12.934  1.7600  1.8439  0.8528
 9642TIP3    H250342   6.775   3.821  13.078 -1.5353 -0.6103  1.3837
 9643TIP3   OH250343   3.046   3.709  13.458 -0.1056 -0.1074  0.8942
 9643TIP3    H150344   2.952   3.713  13.444 -0.3304 -0.1634  2.3036
 9643TIP3    H250345   3.062   3.619  13.487  0.6668 -0.6890 -1.2173
 9644TIP3   OH250346   1.567   4.888  13.374  0.6206 -0.3003 -0.5179
 9644TIP3    H150347   1.584   4.831  13.299 -0.5457 -0.9967 -0.2695
 9644TIP3    H250348   1.625   4.963  13.362  1.8585 -1.3402 -1.0795
 9645TIP3   OH250349   4.773   1.650   2.120 -0.6956 -0.0690 -0.3949
 9645TIP3    H150350   4.859   1.616   2.141 -0.2277 -0.5453 -2.8600
 9645TIP3    H250351   4.790   1.725   2.063 -1.9008 -1.0128 -2.0492
 9646TIP3   OH250352   1.954   6.384   4.583  0.5591 -0.0297 -0.5884
 9646TIP3    H150353   2.048   6.399   4.581  0.1078  3.0374 -1.9533
 9646TIP3    H250354   1.929   6.399   4.674  1.5293 -2.0414  0.0309
 9647TIP3   OH250355   5.629   0.129  13.204  0.0250  0.3629  0.3770
 9647TIP3    H150356   5.715   0.110  13.165 -0.3980 -0.5087 -0.1409
 9647TIP3    H250357   5.640   0.215  13.246  0.2358  1.7590 -2.4473
 9648TIP3   OH250358   0.719   2.419   4.915  0.7479 -0.3984 -0.0351
 9648TIP3    H150359   0.756   2.343   4.871 -0.9061  0.0877 -2.3380
 9648TIP3    H250360   0.625   2.416   4.894  0.6758  2.3234 -0.2546
 9649TIP3   OH250361   4.510   2.863   3.323 -0.5874 -0.0798  0.0580
 9649TIP3    H150362   4.532   2.795   3.260  1.0627 -0.0506  0.5634
 9649TIP3    H250363   4.480   2.937   3.270 -0.6214 -0.5673 -0.6027
 9650TIP3   OH250364   0.066   0.836  16.130 -0.0153 -0.0597 -0.3900
 9650TIP3    H150365   0.027   0.748  16.130 -1.1789  0.4300 -2.4123
 9650TIP3    H250366   0.032   0.878  16.208 -0.2956 -1.0404  0.0215
 9651TIP3   OH250367   2.285   0.517  15.370 -0.1455 -1.0373 -0.1558
 9651TIP3    H150368   2.242   0.453  15.426  2.0310 -2.4333  0.0023
 9651TIP3    H250369   2.251   0.501  15.283 -1.9481 -0.2981  0.4032
 9652TIP3   OH250370   5.246   4.453  11.877  0.3477 -0.2416  0.1083
 9652TIP3    H150371   5.256   4.533  11.929 -1.8657 -1.2736  2.2232
 9652TIP3    H250372   5.325   4.403  11.896  0.1446 -0.0477  1.5506
 9653TIP3   OH250373   3.423   3.415   5.499 -0.0425 -0.4374  0.4333
 9653TIP3    H150374   3.463   3.431   5.414 -1.4691 -1.5644 -0.4658
 9653TIP3    H250375   3.369   3.337   5.486 -0.6331 -0.3546  2.2517
 9654TIP3   OH250376   6.699   6.011   0.468  0.5007  0.6789 -0.4247
 9654TIP3    H150377   6.606   6.024   0.453 -0.3198 -1.3756  2.3829
 9654TIP3    H250378   6.710   6.025   0.562  2.5895 -1.2278 -0.3342
 9655TIP3   OH250379   5.573   0.185   1.343 -0.2875 -0.3216 -0.3942
 9655TIP3    H150380   5.640   0.195   1.275 -0.6998  0.1123 -0.7403
 9655TIP3    H250381   5.502   0.242   1.315  0.4482  1.6143  1.5313
 9656TIP3   OH250382   5.084   1.693   1.801  0.0418  0.9119  0.2357
 9656TIP3    H150383   5.066   1.599   1.798  1.2736  0.7061 -4.0743
 9656TIP3    H250384   5.114   1.709   1.891 -1.9819 -2.4102  1.5943
 9657TIP3   OH250385   3.752   6.591  14.638  0.5277  0.3955  0.1900
 9657TIP3    H150386   3.815   6.660  14.658  0.4436  0.9151 -1.2518
 9657TIP3    H250387   3.692   6.591  14.712  1.7412  0.4409  1.1965
 9658TIP3   OH250388   1.059   0.831   0.406  0.2201 -0.8167 -0.5610
 9658TIP3    H150389   1.049   0.860   0.315  3.1122  1.3515 -0.2789
 9658TIP3    H250390   1.002   0.889   0.456  1.5247  0.5554 -0.6282
 9659TIP3   OH250391   1.751   3.660   1.792 -0.1332 -0.1588  0.5021
 9659TIP3    H150392   1.801   3.645   1.712 -0.0445 -0.2518  0.5757
 9659TIP3    H250393   1.681   3.595   1.790 -0.1795 -0.1082  0.4598
 9660TIP3   OH250394   0.420   4.721  11.200  0.2033 -0.2300  0.4079
 9660TIP3    H150395   0.382   4.702  11.114 -0.0716 -0.1849  0.5164
 9660TIP3    H250396   0.500   4.670  11.203  1.0777  1.0510 -0.5321
 9661TIP3   OH250397   4.491   3.303   1.671 -0.0987 -0.1210  0.6109
 9661TIP3    H150398   4.407   3.311   1.625  0.1761 -1.4999 -0.1611
 9661TIP3    H250399   4.473   3.243   1.743  0.3662 -0.9721  0.0350
 9662TIP3   OH250400   4.142   2.985   5.049 -0.3119  0.3778 -0.2625
 9662TIP3    H150401   4.200   2.910   5.033  2.7661  2.3755  1.1174
 9662TIP3    H250402   4.102   3.003   4.965 -0.4825 -2.2991 -0.8020
 9663TIP3   OH250403   5.079   0.493   2.407  0.1987  0.1135  0.3896
 9663TIP3    H150404   4.984   0.480   2.406  0.1734  0.3233 -0.1381
 9663TIP3    H250405   5.094   0.555   2.479 -0.3693  2.2360 -1.2474
 9664TIP3   OH250406   2.853   4.300  16.241  0.2485 -0.5093 -0.4350
 9664TIP3    H150407   2.948   4.311  16.236  0.1458 -0.4347 -2.8421
 9664TIP3    H250408   2.823   4.371  16.299  1.8664 -2.0815  2.4522
 9665TIP3   OH250409   1.928   2.418  10.356  0.0107 -0.3030  0.1068
 9665TIP3    H150410   1.897   2.426  10.446 -0.4488 -0.6271 -0.0240
 9665TIP3    H250411   2.001   2.480  10.351  0.5620 -0.8716  0.9370
 9666TIP3   OH250412   4.011   5.044  12.384  0.3211 -0.0256 -0.1672
 9666TIP3    H150413   4.020   5.005  12.471  0.4284 -1.9957 -1.0276
 9666TIP3    H250414   3.918   5.037  12.364  0.6936 -2.0910 -1.3114
 9667TIP3   OH250415   1.042   1.682  15.225  0.3713  0.3019 -0.8193
 9667TIP3    H150416   1.105   1.693  15.296  0.0453  0.3590 -0.5369
 9667TIP3    H250417   1.063   1.597  15.187 -0.2215 -0.2842  0.1270
 9668TIP3   OH250418   3.040   2.102  15.043  0.3054 -0.0772 -0.7818
 9668TIP3    H150419   2.965   2.120  15.100  0.1432  0.4661 -1.1635
 9668TIP3    H250420   3.076   2.188  15.022 -0.1928 -0.2131 -2.2349
 9669TIP3   OH250421   3.099   5.850  14.681  0.6549  0.2944  0.4762
 9669TIP3    H150422   3.149   5.822  14.604  0.7408  1.4231  0.1195
 9669TIP3    H250423   3.033   5.781  14.693  0.8622 -0.0626 -0.3897
 9670TIP3   OH250424   3.115   0.622  13.041  0.2081 -0.5809  0.1355
 9670TIP3    H150425   3.061   0.697  13.015  1.3919  0.1233 -0.3116
 9670TIP3    H250426   3.205   0.655  13.039  0.9116 -2.5162 -1.8793
 9671TIP3   OH250427   0.656   2.388  14.540 -0.0726  0.2541 -0.0636
 9671TIP3    H150428   0.608   2.451  14.593  1.2145  1.7643 -0.6405
 9671TIP3    H250429   0.671   2.314  14.599  0.9828  1.7239  1.5716
 9672TIP3   OH250430   4.074   0.432   1.482  0.4018 -0.2334 -0.0152
 9672TIP3    H150431   4.067   0.409   1.389  1.2371 -2.1621  0.3719
 9672TIP3    H250432   3.998   0.488   1.499 -1.2877 -2.0775 -1.2410
 9673TIP3   OH250433   4.325   0.185   1.560  0.1337  1.0220 -0.9711
 9673TIP3    H150434   4.366   0.229   1.486 -0.1113  0.3108 -1.5378
 9673TIP3    H250435   4.277   0.254   1.606  0.4444  1.5012 -1.3600
 9674TIP3   OH250436   5.596   2.048  15.146  0.5029  0.7364  0.1105
 9674TIP3    H150437   5.621   2.004  15.064 -1.2039  1.3483 -0.7607
 9674TIP3    H250438   5.677   2.052  15.196  1.3497 -0.6379 -1.0920
 9675TIP3   OH250439   5.918   1.255  13.796  0.2417 -0.0743  0.2586
 9675TIP3    H150440   5.906   1.260  13.701  0.0225  0.6341  0.3207
 9675TIP3    H250441   5.991   1.314  13.814 -1.2401  1.6383  0.8089
 9676TIP3   OH250442   0.043   5.067  16.940 -0.4761  0.0741 -0.1501
 9676TIP3    H150443   0.088   5.078  16.857  0.0972 -1.3844 -0.0560
 9676TIP3    H250444   0.070   4.980  16.971  1.1342  1.4914  2.6742
 9677TIP3   OH250445   2.126   5.048   3.581  0.1257  0.2150  0.2911
 9677TIP3    H150446   2.191   5.075   3.647  1.0023  0.0897 -0.5038
 9677TIP3    H250447   2.130   4.953   3.580  0.0099  0.2108  0.1628
 9678TIP3   OH250448   6.526   4.641  16.224 -0.1004  0.1536 -0.8173
 9678TIP3    H150449   6.577   4.575  16.271  0.4695  0.6630 -0.7011
 9678TIP3    H250450   6.475   4.592  16.160 -2.1701 -0.7492  1.4356
 9679TIP3   OH250451   0.579   5.387  15.984 -0.7997  0.1167  1.0462
 9679TIP3    H150452   0.599   5.335  15.906 -3.0567  0.3172  0.3017
 9679TIP3    H250453   0.510   5.338  16.029 -0.2016  0.5033  2.4151
 9680TIP3   OH250454   4.113   0.956  12.888 -0.1171 -0.0910 -0.2111
 9680TIP3    H150455   4.158   1.019  12.832 -1.3195 -0.3271 -1.4892
 9680TIP3    H250456   4.174   0.937  12.958  0.4907  2.0373 -0.1583
 9681TIP3   OH250457   3.825   5.832  12.013  0.3414  0.3806 -0.1521
 9681TIP3    H150458   3.832   5.910  12.069 -0.3022  0.7631 -0.6009
 9681TIP3    H250459   3.823   5.867  11.924 -1.4055 -0.0641 -0.2916
 9682TIP3   OH250460   2.260   3.547   1.608 -0.2684 -0.2414  0.5668
 9682TIP3    H150461   2.332   3.608   1.628  1.5744 -1.8120 -0.9938
 9682TIP3    H250462   2.181   3.596   1.628  1.1831  2.3743  0.1840
 9683TIP3   OH250463   6.402   6.197  14.742 -0.0740  0.6191 -0.2051
 9683TIP3    H150464   6.399   6.117  14.795  0.0428  0.4332 -0.4791
 9683TIP3    H250465   6.339   6.256  14.784 -1.0276 -0.0459 -0.6972
 9684TIP3   OH250466   0.171   4.804   0.049 -0.3925  0.3686  0.0184
 9684TIP3    H150467   0.202   4.802  -0.042  1.9924  0.6960  0.7917
 9684TIP3    H250468   0.090   4.752   0.048  0.2790 -0.7004 -2.0373
 9685TIP3   OH250469   6.081   2.613  14.013 -0.0237  0.5525  0.3513
 9685TIP3    H150470   6.138   2.666  13.958 -0.8188  1.1502  0.1075
 9685TIP3    H250471   6.100   2.642  14.102 -0.7069  1.4904  0.1942
 9686TIP3   OH250472   1.135   5.992  11.319  0.2421  0.1127  0.4875
 9686TIP3    H150473   1.144   5.896  11.316  3.8678  0.4193 -1.7248
 9686TIP3    H250474   1.211   6.022  11.370 -0.0467  1.8688 -0.0892
 9687TIP3   OH250475   2.691   2.975  15.970  0.3538  0.1769  0.5469
 9687TIP3    H150476   2.669   2.950  15.880 -0.1889 -2.5322  1.3856
 9687TIP3    H250477   2.769   3.029  15.962 -1.8168  3.1734 -1.8391
 9688TIP3   OH250478   2.892   0.991  12.139 -0.4954  0.3430 -0.0871
 9688TIP3    H150479   2.848   0.964  12.059 -1.9855  0.8616  0.5415
 9688TIP3    H250480   2.928   0.910  12.176 -3.2877 -0.5236  0.8132
 9689TIP3   OH250481   5.628   1.656  13.879 -0.2599  0.6297  0.0117
 9689TIP3    H150482   5.661   1.657  13.969 -0.5520  1.8665  0.1112
 9689TIP3    H250483   5.612   1.748  13.858  0.3526  0.4035 -1.5143
 9690TIP3   OH250484   2.904   5.193   4.107  0.1483  0.2052  0.0699
 9690TIP3    H150485   2.920   5.216   4.199  2.1516  0.2603 -0.2911
 9690TIP3    H250486   2.809   5.204   4.097  0.1133  1.6994  1.7148
 9691TIP3   OH250487   0.015   3.385   1.789  0.3601 -0.2345 -0.4713
 9691TIP3    H150488   0.032   3.295   1.763  0.2795 -0.7859  1.3081
 9691TIP3    H250489   0.099   3.430   1.779  0.8968 -0.9990  0.5448
 9692TIP3   OH250490   0.552   4.499  12.066  0.5675  0.4155 -0.6335
 9692TIP3    H150491   0.480   4.521  12.007 -0.0017  0.5790  0.1040
 9692TIP3    H250492   0.582   4.413  12.036 -0.5056 -0.0454 -0.4283
 9693TIP3   OH250493   3.375   4.192  14.696 -0.4173  0.2062  0.3062
 9693TIP3    H150494   3.443   4.203  14.762  0.5902  1.1723 -0.8581
 9693TIP3    H250495   3.352   4.281  14.670  0.2049 -0.1828 -1.6513
 9694TIP3   OH250496   4.140   1.007  16.001 -0.8237  0.0683 -0.0357
 9694TIP3    H150497   4.065   0.948  15.992 -1.7616  1.3654 -0.9569
 9694TIP3    H250498   4.138   1.060  15.921  1.1285  0.0774 -0.1124
 9695TIP3   OH250499   2.772   2.573  14.628 -0.2063 -0.3520 -0.0122
 9695TIP3    H150500   2.793   2.482  14.606 -0.7840  0.1102 -2.6880
 9695TIP3    H250501   2.809   2.624  14.556  0.7622  1.6331  1.8312
 9696TIP3   OH250502   3.965   1.390   4.340  0.2330 -0.3483  0.6599
 9696TIP3    H150503   4.035   1.334   4.307 -0.9778 -0.2883 -2.0761
 9696TIP3    H250504   4.004   1.477   4.344  0.0674 -0.1506 -1.7159
 9697TIP3   OH250505   4.297   2.561   1.497 -0.0577 -0.5446  0.1172
 9697TIP3    H150506   4.390   2.540   1.507  0.1340 -1.1622 -2.5206
 9697TIP3    H250507   4.266   2.500   1.431 -2.1336  0.3128  0.2623
 9698TIP3   OH250508   1.928   0.605   5.310 -0.1838 -0.6916  0.3356
 9698TIP3    H150509   1.957   0.515   5.322  1.2648 -0.0890  1.4398
 9698TIP3    H250510   1.965   0.631   5.225 -0.1903 -0.9638  0.2482
 9699TIP3   OH250511   5.563   4.446  16.411 -0.4918 -0.0102  0.3033
 9699TIP3    H150512   5.529   4.522  16.458 -2.5198 -0.0155 -1.0696
 9699TIP3    H250513   5.494   4.425  16.348  1.3347 -1.1605 -1.3483
 9700TIP3   OH250514   0.998   5.359  13.639  0.4763 -0.3161  0.6644
 9700TIP3    H150515   0.914   5.326  13.671 -0.1915  1.4601  0.7823
 9700TIP3    H250516   1.060   5.336  13.708  0.0208 -1.2011  0.7990
 9701TIP3   OH250517   6.346   1.582   5.031 -0.6162  0.2658 -0.0264
 9701TIP3    H150518   6.354   1.673   5.059  0.9093 -0.2038  1.1184
 9701TIP3    H250519   6.324   1.587   4.938  0.3557  1.7950 -0.1836
 9702TIP3   OH250520   6.432   0.800   0.989  0.1275  0.6114 -0.0017
 9702TIP3    H150521   6.466   0.853   1.061 -1.2920 -0.3810  1.4079
 9702TIP3    H250522   6.511   0.764   0.947  1.1559  4.0395 -1.1994
 9703TIP3   OH250523   3.230   0.603  15.517  0.1645 -0.5807  0.3201
 9703TIP3    H150524   3.322   0.599  15.543  0.4740 -0.4884 -0.7465
 9703TIP3    H250525   3.194   0.519  15.546  1.2777 -1.8269 -1.7950
 9704TIP3   OH250526   2.516   2.309   2.559  0.6175  0.4357  0.1826
 9704TIP3    H150527   2.461   2.379   2.525  0.4522  0.5644  0.7190
 9704TIP3    H250528   2.482   2.229   2.518  1.6126  0.8081 -1.4345
 9705TIP3   OH250529   0.627   5.317  13.535 -0.0994 -0.5891 -0.7720
 9705TIP3    H150530   0.672   5.232  13.540  1.5989  0.3817  0.8354
 9705TIP3    H250531   0.638   5.344  13.443  3.1251 -0.1442 -0.3317
 9706TIP3   OH250532   5.665   0.518  11.210  0.1877  0.3499  0.2768
 9706TIP3    H150533   5.682   0.425  11.227 -1.1132 -0.3151 -1.7694
 9706TIP3    H250534   5.609   0.546  11.282 -0.5757 -0.8487  0.1636
 9707TIP3   OH250535   5.152   6.508   5.973  0.0363  0.2938 -0.1554
 9707TIP3    H150536   5.062   6.517   6.005 -0.0928 -0.0604 -0.4144
 9707TIP3    H250537   5.195   6.453   6.037  0.3775  1.3773  0.5594
 9708TIP3   OH250538   0.402   0.402  12.429 -0.2682 -0.7985 -0.0192
 9708TIP3    H150539   0.459   0.338  12.386  0.6072  0.2080 -0.3899
 9708TIP3    H250540   0.436   0.407  12.519 -1.4666 -2.1566  0.5423
 9709TIP3   OH250541   1.835   0.843  16.889 -0.4803 -0.3817  0.1335
 9709TIP3    H150542   1.754   0.792  16.897 -0.0333 -1.2462 -0.6660
 9709TIP3    H250543   1.839   0.867  16.796 -0.0266  0.0004  0.2470
 9710TIP3   OH250544   1.601   0.932   4.663  0.3293  0.0472  0.2324
 9710TIP3    H150545   1.544   0.998   4.625 -0.3956 -0.4443  0.4602
 9710TIP3    H250546   1.592   0.943   4.758  0.6296 -0.0168  0.2696
 9711TIP3   OH250547   0.458   3.424   0.288 -0.8773  0.6903  0.5349
 9711TIP3    H150548   0.447   3.502   0.234  1.9186  0.5139 -0.3974
 9711TIP3    H250549   0.426   3.352   0.233 -0.1544  0.7851 -0.0270
 9712TIP3   OH250550   1.199   3.376   1.539  0.0265  0.0722 -0.4412
 9712TIP3    H150551   1.147   3.454   1.558  0.5231  0.8327 -2.0433
 9712TIP3    H250552   1.135   3.309   1.516 -0.2745  1.1687 -2.9814
 9713TIP3   OH250553   5.258   1.063   1.353  0.1368 -0.5277 -0.4397
 9713TIP3    H150554   5.254   0.989   1.413 -0.9014 -0.1756 -0.0723
 9713TIP3    H250555   5.284   1.024   1.269 -1.5910 -1.4886 -0.5414
 9714TIP3   OH250556   0.177   1.666  13.464  0.0041 -0.6169  0.7096
 9714TIP3    H150557   0.101   1.687  13.409  0.1463  1.2959  1.2215
 9714TIP3    H250558   0.252   1.694  13.412  0.1327  1.3236  1.9110
 9715TIP3   OH250559   6.337   5.358  15.086  0.6252  0.3675 -0.3980
 9715TIP3    H150560   6.429   5.333  15.079  0.9984  1.1670  1.4046
 9715TIP3    H250561   6.290   5.275  15.096  1.0848 -0.0677 -1.6966
 9716TIP3   OH250562   6.026   1.452  17.107  0.1336 -0.3860  0.0667
 9716TIP3    H150563   6.072   1.428  17.027  0.7778 -1.5679  0.7836
 9716TIP3    H250564   6.062   1.538  17.131  0.9458 -0.6698 -0.1443
 9717TIP3   OH250565   1.091   0.617   4.821 -0.2924  0.0703 -0.2863
 9717TIP3    H150566   1.025   0.685   4.809 -1.2813 -0.7944  0.1837
 9717TIP3    H250567   1.140   0.645   4.898 -0.8206  0.1541  0.0210
 9718TIP3   OH250568   0.127   5.788   2.015  0.2261 -0.5504  0.3123
 9718TIP3    H150569   0.219   5.812   2.016  0.1376 -0.2105  1.3558
 9718TIP3    H250570   0.082   5.868   2.045 -0.2135 -1.4399  2.0890
 9719TIP3   OH250571   3.742   6.271   2.542  0.8226  0.0049 -0.9224
 9719TIP3    H150572   3.822   6.224   2.518 -0.0891 -1.9278 -0.2894
 9719TIP3    H250573   3.676   6.239   2.480  0.2456  0.7016 -0.6791
 9720TIP3   OH250574   2.450   2.055   1.379 -0.1443  0.6735  0.1154
 9720TIP3    H150575   2.405   2.139   1.389  0.1140  0.7206  0.8939
 9720TIP3    H250576   2.464   2.047   1.284 -2.5008  0.2606 -0.2231
 9721TIP3   OH250577   5.938   6.581  14.539 -0.6580  0.4473  0.5905
 9721TIP3    H150578   5.880   6.649  14.572 -0.3018  1.2873 -0.4899
 9721TIP3    H250579   5.965   6.612  14.452  1.8101  0.3225  1.2756
 9722TIP3   OH250580   5.702   4.948   5.546 -0.1785  0.1477 -0.0330
 9722TIP3    H150581   5.723   4.951   5.640 -1.3697 -0.4818  0.2645
 9722TIP3    H250582   5.772   4.895   5.508  1.2718  1.8341  0.2137
 9723TIP3   OH250583   3.631   0.242   5.829 -0.2426 -0.2529  0.6193
 9723TIP3    H150584   3.622   0.318   5.773  1.6481 -0.1535  0.4388
 9723TIP3    H250585   3.578   0.263   5.906  0.8920  1.5792  0.9235
 9724TIP3   OH250586   1.981   1.504   3.132 -0.2000  0.4100 -0.0828
 9724TIP3    H150587   2.026   1.509   3.217  1.1442 -1.6455 -0.6436
 9724TIP3    H250588   2.011   1.421   3.094 -3.0001 -0.0932 -1.3169
 9725TIP3   OH250589   0.543   5.530   1.344  0.6951  0.1188  0.3151
 9725TIP3    H150590   0.516   5.542   1.435  0.2323  0.4338  0.1386
 9725TIP3    H250591   0.497   5.599   1.296 -0.5618 -1.1984 -0.4306
 9726TIP3   OH250592   2.485   6.501  14.963  0.1302  0.0007 -0.4626
 9726TIP3    H150593   2.553   6.568  14.956  0.4706 -0.3415 -0.4958
 9726TIP3    H250594   2.479   6.483  15.057 -0.7723  0.8949 -0.3445
 9727TIP3   OH250595   0.864   3.401   4.096 -0.3111  0.4792 -0.7066
 9727TIP3    H150596   0.825   3.442   4.018 -0.7568  1.8230  0.2130
 9727TIP3    H250597   0.954   3.432   4.096  0.1687 -0.8861 -1.6232
 9728TIP3   OH250598   0.487   4.023  16.727  0.9300 -0.1179  0.3184
 9728TIP3    H150599   0.548   3.957  16.692  0.7404 -0.2637  0.2616
 9728TIP3    H250600   0.532   4.060  16.802  0.3895 -1.4316  1.3129
 9729TIP3   OH250601   4.902   2.754   1.264 -0.4882 -0.1363 -0.0137
 9729TIP3    H150602   4.953   2.789   1.190  1.5138  0.3818  1.5708
 9729TIP3    H250603   4.865   2.831   1.307 -1.6366 -0.4367 -0.4434
 9730TIP3   OH250604   1.657   6.252  16.498  0.6848  0.3846 -0.2153
 9730TIP3    H150605   1.694   6.236  16.585 -0.3380  0.7259  0.2928
 9730TIP3    H250606   1.731   6.241  16.438  1.4812  0.5114  0.7282
 9731TIP3   OH250607   3.940   1.125   0.666 -0.0354 -0.6741  0.6943
 9731TIP3    H150608   3.860   1.099   0.713 -0.5157 -1.2582 -0.4296
 9731TIP3    H250609   4.011   1.099   0.723 -0.5536 -3.2211  0.2164
 9732TIP3   OH250610   4.165   1.301  11.766  0.4261  0.1316  0.1673
 9732TIP3    H150611   4.115   1.247  11.705 -0.8243  1.0438  0.3773
 9732TIP3    H250612   4.145   1.391  11.740  2.9583  0.5156 -0.5697
 9733TIP3   OH250613   4.170   6.434  15.108 -0.0913  0.0200  0.2300
 9733TIP3    H150614   4.260   6.447  15.079  0.2409 -2.0267  0.2595
 9733TIP3    H250615   4.117   6.489  15.050  1.0744  0.4061 -0.4806
 9734TIP3   OH250616   5.991   4.482  12.017 -0.4608  0.3051 -0.1712
 9734TIP3    H150617   5.915   4.470  12.073 -0.4849  0.7314 -0.1090
 9734TIP3    H250618   5.998   4.400  11.968 -1.4678  0.5787 -0.7910
 9735TIP3   OH250619   3.870   3.311   2.742  0.0739 -0.1927  0.0262
 9735TIP3    H150620   3.947   3.367   2.754  1.8333 -2.4449 -0.2284
 9735TIP3    H250621   3.859   3.304   2.647 -0.3329 -0.0235  0.0599
 9736TIP3   OH250622   1.347   2.472  11.221  0.2528 -0.1500 -0.1439
 9736TIP3    H150623   1.333   2.551  11.274  3.1508 -1.1609  2.3127
 9736TIP3    H250624   1.278   2.412  11.249 -0.0734  0.4139  0.2882
 9737TIP3   OH250625   1.923   2.131   3.684 -0.0054 -0.0984  0.2866
 9737TIP3    H150626   1.978   2.093   3.752 -0.7749  0.8095  1.4298
 9737TIP3    H250627   1.963   2.215   3.664  0.2423 -0.3806 -0.4183
 9738TIP3   OH250628   0.879   4.649   1.985  0.3171  0.3151 -0.4707
 9738TIP3    H150629   0.881   4.625   1.892 -0.5327 -0.5828 -0.2649
 9738TIP3    H250630   0.786   4.649   2.007  0.4236  2.1392 -0.0281
 9739TIP3   OH250631   1.041   0.366   4.696  0.1796  0.1286 -0.1460
 9739TIP3    H150632   1.052   0.446   4.747 -0.1867  0.8893 -1.2506
 9739TIP3    H250633   1.120   0.362   4.641  1.4008 -1.5864  1.6701
 9740TIP3   OH250634   1.900   6.148  12.686  0.3939 -0.0087  0.2902
 9740TIP3    H150635   1.964   6.090  12.728 -1.0316 -0.3034  2.1094
 9740TIP3    H250636   1.889   6.220  12.747  1.1326  1.5389 -1.3489
 9741TIP3   OH250637   4.881   1.844   1.100  0.3637 -0.0992 -0.4260
 9741TIP3    H150638   4.933   1.814   1.174 -0.2950 -0.2809 -0.0421
 9741TIP3    H250639   4.922   1.803   1.024  2.9440  2.4452 -0.5426
 9742TIP3   OH250640   2.621   2.309  11.351 -0.1688  0.0532 -0.1979
 9742TIP3    H150641   2.672   2.256  11.290 -1.4476 -0.3225 -0.9645
 9742TIP3    H250642   2.604   2.251  11.425 -1.5347 -0.6065 -1.0188
 9743TIP3   OH250643   1.275   0.069  16.900 -0.0299  0.6061  0.3591
 9743TIP3    H150644   1.364   0.033  16.906  0.0516  0.9169  1.1422
 9743TIP3    H250645   1.218  -0.008  16.907  0.1652  0.4978  0.8205
 9744TIP3   OH250646   4.178   1.225   4.255  0.4731  0.0818  0.2971
 9744TIP3    H150647   4.260   1.247   4.299  0.5653  0.0141  0.1564
 9744TIP3    H250648   4.189   1.256   4.165 -0.7752  2.7420  1.0156
 9745TIP3   OH250649   3.783   4.017   1.202 -0.1067  0.2794  0.0489
 9745TIP3    H150650   3.727   4.025   1.280  1.3658  2.1738  0.9469
 9745TIP3    H250651   3.733   4.060   1.132 -0.5387  0.4035  0.4326
 9746TIP3   OH250652   3.684   5.855   2.469  0.2888 -0.0246  0.1093
 9746TIP3    H150653   3.698   5.796   2.395 -0.9613  1.3387 -1.2263
 9746TIP3    H250654   3.622   5.808   2.525  0.2133 -0.4748 -0.3499
 9747TIP3   OH250655   5.461   6.440  11.666 -0.2379 -0.0339 -0.5443
 9747TIP3    H150656   5.544   6.483  11.647  0.1339  1.2160  3.4744
 9747TIP3    H250657   5.482   6.347  11.668  1.0725  0.2733  0.3657
 9748TIP3   OH250658   5.085   4.397  12.198  0.0578  0.2975  0.1928
 9748TIP3    H150659   5.104   4.457  12.271 -0.4381  1.4533 -0.6024
 9748TIP3    H250660   5.072   4.455  12.122  1.3240 -0.9338 -0.9829
 9749TIP3   OH250661   1.315   3.685  13.773 -0.1877 -0.4096 -0.4278
 9749TIP3    H150662   1.247   3.620  13.759 -1.4227  0.5874  0.8768
 9749TIP3    H250663   1.372   3.676  13.696 -1.4486 -1.6432 -1.2486
 9750TIP3   OH250664   0.224   6.762   4.477  0.1809 -0.1038  0.5848
 9750TIP3    H150665   0.182   6.822   4.538 -1.0705  0.6974 -1.0512
 9750TIP3    H250666   0.157   6.697   4.457  0.4135 -0.0815 -0.2991
 9751TIP3   OH250667   2.726   0.474  11.372  0.2484 -0.2069  0.1358
 9751TIP3    H150668   2.792   0.493  11.439  1.9965 -0.1044 -1.5646
 9751TIP3    H250669   2.760   0.515  11.292 -1.4041 -0.9756 -1.0050
 9752TIP3   OH250670   1.173   4.516  17.021  0.3710  0.3762 -0.3455
 9752TIP3    H150671   1.130   4.573  17.085 -0.1662 -0.9413  0.4844
 9752TIP3    H250672   1.112   4.511  16.948 -0.1372 -0.1441  0.1161
 9753TIP3   OH250673   1.389   2.050   3.200  0.4115 -0.4116 -0.0232
 9753TIP3    H150674   1.342   2.052   3.116  2.5593  1.5849 -1.2398
 9753TIP3    H250675   1.374   2.136   3.238  2.7410  0.1269 -0.2582
 9754TIP3   OH250676   3.437   3.456   1.941 -0.3978 -0.2282 -0.4115
 9754TIP3    H150677   3.421   3.439   2.034  0.3231 -2.4696 -0.6670
 9754TIP3    H250678   3.513   3.515   1.940 -0.1632 -0.5028  0.4076
 9755TIP3   OH250679   6.452   3.110   2.227  0.1665  0.3716  0.4131
 9755TIP3    H150680   6.499   3.181   2.184  0.4042 -0.9729 -1.6444
 9755TIP3    H250681   6.442   3.138   2.318  0.5591  2.8521 -0.2900
 9756TIP3   OH250682   6.181   5.354   3.324  0.0376  0.4901 -0.1975
 9756TIP3    H150683   6.258   5.309   3.290  0.1407 -2.2605  3.4412
 9756TIP3    H250684   6.216   5.433   3.365  0.8825 -0.4030  0.8303
 9757TIP3   OH250685   5.780   0.586  12.743  0.1329  0.5279 -0.2398
 9757TIP3    H150686   5.811   0.615  12.657  0.1573  0.6505 -0.1899
 9757TIP3    H250687   5.850   0.530  12.776  0.4944  1.1487  0.0595
 9758TIP3   OH250688   2.806   4.995   4.646  0.5716  0.4260 -0.6610
 9758TIP3    H150689   2.845   5.073   4.686  2.9912 -0.0868 -1.9617
 9758TIP3    H250690   2.717   5.022   4.623  0.5015  1.9687  1.3313
 9759TIP3   OH250691   0.870   6.012  13.091 -0.1621  0.4408  1.2854
 9759TIP3    H150692   0.800   5.984  13.150  0.3057 -0.1377  1.5772
 9759TIP3    H250693   0.923   5.933  13.079 -0.6711  0.3364 -0.5092
 9760TIP3   OH250694   5.287   3.885  13.485  0.2796 -0.5681 -0.1410
 9760TIP3    H150695   5.359   3.879  13.422 -0.6692  1.2442 -1.4524
 9760TIP3    H250696   5.246   3.970  13.467  0.3332  0.2490  3.3485
 9761TIP3   OH250697   0.648   2.190   1.476 -0.7453 -0.2497  0.1995
 9761TIP3    H150698   0.620   2.101   1.457 -0.3225 -0.8297  2.1905
 9761TIP3    H250699   0.716   2.181   1.542 -0.7182  1.5455  0.4520
 9762TIP3   OH250700   2.435   4.308  13.336  0.1427 -0.0462 -0.0681
 9762TIP3    H150701   2.427   4.403  13.337 -1.5393 -0.1319 -1.8236
 9762TIP3    H250702   2.345   4.277  13.324  0.6871 -1.8565  0.3867
 9763TIP3   OH250703   4.794   6.769  11.219  0.2623 -0.7084  0.3045
 9763TIP3    H150704   4.850   6.722  11.157 -0.9113 -1.0301 -0.5258
 9763TIP3    H250705   4.737   6.823  11.164  0.3452  0.2910  1.1739
 9764TIP3   OH250706   2.981   0.229  11.065  0.6372 -0.3316  0.3713
 9764TIP3    H150707   2.922   0.220  11.140  0.9347  1.0773  0.8097
 9764TIP3    H250708   2.961   0.155  11.008 -1.4069  0.0115  0.6054
 9765TIP3   OH250709   6.251   0.482  14.564 -0.1617 -0.3435  0.2151
 9765TIP3    H150710   6.283   0.392  14.559  1.6627  0.1928  1.7173
 9765TIP3    H250711   6.286   0.524  14.485 -0.2701 -0.6963 -0.0263
 9766TIP3   OH250712   1.610   2.173   4.393  0.4887  0.7379  0.3946
 9766TIP3    H150713   1.637   2.121   4.469  0.4785 -2.1268 -1.5154
 9766TIP3    H250714   1.685   2.171   4.334 -1.2995 -1.4923 -1.9283
 9767TIP3   OH250715   6.282   4.409  14.055 -0.1339  0.0272 -0.1560
 9767TIP3    H150716   6.359   4.465  14.064  0.1640  0.0043 -2.1804
 9767TIP3    H250717   6.234   4.446  13.981 -2.2859  0.2577  1.3237
 9768TIP3   OH250718   1.267   1.390   1.388 -0.3101  0.0580 -0.6867
 9768TIP3    H150719   1.194   1.343   1.348  0.4831  0.3955 -2.6222
 9768TIP3    H250720   1.345   1.358   1.341  0.7395  0.0142  1.0459
 9769TIP3   OH250721   3.588   0.651   6.402 -0.0251 -0.5166  0.1768
 9769TIP3    H150722   3.622   0.567   6.373  0.9857 -0.6358  1.6055
 9769TIP3    H250723   3.542   0.632   6.484  0.0481  0.2884  0.4145
 9770TIP3   OH250724   4.527   0.985  17.099 -0.3358  0.3544 -0.3286
 9770TIP3    H150725   4.506   0.902  17.142 -1.4194  0.8393  0.0994
 9770TIP3    H250726   4.550   1.045  17.170  0.4400  0.4329 -0.6346
 9771TIP3   OH250727   2.954   1.789   3.392  0.0086  0.1583  0.7269
 9771TIP3    H150728   2.882   1.851   3.406  1.2074  1.7869 -0.1208
 9771TIP3    H250729   3.031   1.844   3.381  1.2478 -1.5312  0.7128
 9772TIP3   OH250730   0.174   1.272   4.232 -0.2087  0.4701 -0.1625
 9772TIP3    H150731   0.131   1.299   4.151  0.1852  0.5066 -0.3655
 9772TIP3    H250732   0.116   1.206   4.270 -1.0142  1.3636  0.1653
 9773TIP3   OH250733   0.036   4.488  11.698 -0.1987  0.2986  0.1555
 9773TIP3    H150734   0.078   4.556  11.751  0.6896 -0.0091 -0.1404
 9773TIP3    H250735  -0.031   4.535  11.648  0.9879  1.1210 -0.6936
 9774TIP3   OH250736   1.314   6.547  16.234 -0.3514 -0.2737  0.6663
 9774TIP3    H150737   1.403   6.528  16.263 -0.5228 -1.3312  0.4909
 9774TIP3    H250738   1.305   6.501  16.151 -1.0853 -0.2072  0.7062
 9775TIP3   OH250739   5.367   0.348   1.257  0.2825  0.6544  0.2111
 9775TIP3    H150740   5.390   0.362   1.166 -0.8989  0.6410 -0.1028
 9775TIP3    H250741   5.368   0.435   1.296  0.9890  0.6358  0.2382
 9776TIP3   OH250742   0.803   4.608   0.489 -0.1058  0.4684 -0.2425
 9776TIP3    H150743   0.781   4.632   0.579  2.7037 -1.2327  0.9936
 9776TIP3    H250744   0.766   4.520   0.478  1.7739 -0.4170  0.2116
 9777TIP3   OH250745   3.913   1.686   5.584  0.2759  0.7613 -0.1408
 9777TIP3    H150746   3.844   1.748   5.560  1.0489  1.9726  0.7202
 9777TIP3    H250747   3.931   1.705   5.676 -1.2991 -2.4962  0.9141
 9778TIP3   OH250748   6.600   0.421  15.849 -0.0972 -0.2317  0.4868
 9778TIP3    H150749   6.581   0.514  15.866  1.1396  0.2361 -0.5417
 9778TIP3    H250750   6.656   0.423  15.771 -1.0482 -1.9284 -0.2607
 9779TIP3   OH250751   6.258   0.227  16.269  0.2601  0.3404 -0.0687
 9779TIP3    H150752   6.241   0.135  16.252 -0.5185  0.2886  0.9556
 9779TIP3    H250753   6.306   0.257  16.192 -0.6555 -0.5873 -1.0064
 9780TIP3   OH250754   3.867   3.173   5.551  0.4939 -0.0893 -0.2572
 9780TIP3    H150755   3.773   3.183   5.570  0.9188  3.1478  0.4559
 9780TIP3    H250756   3.871   3.157   5.457 -0.7089  2.3820 -0.7888
 9781TIP3   OH250757   2.775   2.407   0.832  0.8492  0.5785 -0.1586
 9781TIP3    H150758   2.720   2.399   0.910 -0.0018 -2.1149 -0.9615
 9781TIP3    H250759   2.713   2.421   0.760  1.2503 -1.1643 -0.8826
 9782TIP3   OH250760   3.005   5.485   2.877 -0.5256 -0.8129  0.8014
 9782TIP3    H150761   2.915   5.485   2.908 -1.0589 -0.1827 -0.6863
 9782TIP3    H250762   2.998   5.472   2.782  0.9859 -1.6127  0.7804
 9783TIP3   OH250763   0.051   3.771  16.979 -0.2940  0.8623  0.1474
 9783TIP3    H150764   0.131   3.802  16.936  0.6901  0.0002  1.3240
 9783TIP3    H250765   0.064   3.677  16.989 -0.8404  0.9310  1.6335
 9784TIP3   OH250766   2.668   0.437   4.496  0.3190  0.0490 -0.1300
 9784TIP3    H150767   2.660   0.505   4.429 -0.3587  1.6159  1.5171
 9784TIP3    H250768   2.585   0.389   4.492 -0.0004  0.5881  0.0794
 9785TIP3   OH250769   4.093   6.614  16.413  0.0326  0.2853  1.0114
 9785TIP3    H150770   4.120   6.677  16.479 -0.3514 -0.4028  1.8325
 9785TIP3    H250771   4.097   6.529  16.457 -0.0187 -0.2037  0.0943
 9786TIP3   OH250772   5.077   3.029   1.380 -0.3693  0.1744 -0.0038
 9786TIP3    H150773   5.109   2.993   1.463 -1.7682 -2.3210 -0.4769
 9786TIP3    H250774   5.124   2.979   1.313 -1.6787 -0.1670 -0.6901
 9787TIP3   OH250775   4.914   6.540   5.752 -0.2577  0.2816 -0.3889
 9787TIP3    H150776   4.942   6.628   5.779 -0.4322  0.5354 -1.0240
 9787TIP3    H250777   4.838   6.522   5.806 -0.1465  0.4732 -0.1654
 9788TIP3   OH250778   4.684   1.777  15.643 -0.1741  0.1190  0.1370
 9788TIP3    H150779   4.718   1.763  15.731 -0.6064  1.0892  0.4701
 9788TIP3    H250780   4.591   1.755  15.650  0.0607 -1.0901 -0.4061
 9789TIP3   OH250781   4.120   2.271  12.795  0.6832 -0.2880 -0.1319
 9789TIP3    H150782   4.091   2.224  12.717  0.4613  0.3540 -0.4445
 9789TIP3    H250783   4.156   2.203  12.853  0.7919 -0.7714 -0.7654
 9790TIP3   OH250784   3.504   2.288   4.485  0.2592 -0.6203 -0.2540
 9790TIP3    H150785   3.599   2.291   4.498 -0.0039  0.5908  1.5995
 9790TIP3    H250786   3.469   2.346   4.553 -1.9275 -2.5442  0.3285
 9791TIP3   OH250787   5.917   4.463  11.554 -0.3547  0.1299  0.2279
 9791TIP3    H150788   5.989   4.453  11.616  0.3355 -2.0248 -0.9019
 9791TIP3    H250789   5.924   4.554  11.524 -1.1746  1.4710  3.8563
 9792TIP3   OH250790   4.020   5.004  13.086  0.3179  0.8009 -0.0264
 9792TIP3    H150791   4.109   5.035  13.065  0.4341 -0.0048 -0.7827
 9792TIP3    H250792   3.966   5.038  13.014  0.2984 -0.0246 -0.4091
 9793TIP3   OH250793   4.098   2.503  10.578 -0.2685 -0.3758 -0.2069
 9793TIP3    H150794   4.006   2.501  10.603 -0.7569 -1.2192 -2.0188
 9793TIP3    H250795   4.105   2.443  10.504  1.6379  0.0692 -0.4304
 9794TIP3   OH250796   3.144   2.295   4.710 -0.2945  0.4667  0.1774
 9794TIP3    H150797   3.170   2.374   4.756 -0.8295  1.2392 -0.8195
 9794TIP3    H250798   3.223   2.242   4.705 -0.2617  0.2860  2.1140
 9795TIP3   OH250799   5.118   0.666  15.058  0.1801 -0.1792  0.0176
 9795TIP3    H150800   5.152   0.624  14.979 -0.0582  0.2324 -0.3124
 9795TIP3    H250801   5.187   0.726  15.085  1.0989 -1.7994  1.3001
 9796TIP3   OH250802   3.953   6.785  15.366  0.2949  0.0557  0.5477
 9796TIP3    H150803   3.988   6.815  15.281 -2.2044 -0.6744 -0.7899
 9796TIP3    H250804   4.027   6.741  15.408  1.0858 -1.3234 -2.1538
 9797TIP3   OH250805   5.851   3.468  15.581 -0.7186  0.2250 -0.5167
 9797TIP3    H150806   5.765   3.473  15.623  0.0455  0.4008  1.0235
 9797TIP3    H250807   5.912   3.504  15.645  0.7903 -1.7903 -0.7829
 9798TIP3   OH250808   3.107   2.552  12.912 -0.4450 -0.2164  0.1315
 9798TIP3    H150809   3.060   2.598  12.843 -0.7773 -0.0854  0.4407
 9798TIP3    H250810   3.148   2.478  12.868 -0.9691 -0.3502 -0.1335
 9799TIP3   OH250811   3.688   1.161  16.033 -0.1603 -0.9195 -0.2867
 9799TIP3    H150812   3.741   1.191  16.106 -1.7810 -0.2309  0.6326
 9799TIP3    H250813   3.726   1.076  16.009 -0.3226 -1.7095  2.1026
 9800TIP3   OH250814   4.320   2.912   0.604  0.2179  0.1091  0.7389
 9800TIP3    H150815   4.285   2.855   0.536 -0.0094  1.0142  0.0840
 9800TIP3    H250816   4.415   2.908   0.592  0.1329  1.0507 -0.2838
 9801TIP3   OH250817   4.846   5.940   1.207  0.6854 -0.3970  0.4103
 9801TIP3    H150818   4.913   5.918   1.272  1.0379 -1.8889 -0.4585
 9801TIP3    H250819   4.871   5.892   1.128  0.6919  2.0150 -1.0988
 9802TIP3   OH250820   4.947   0.172  13.790 -0.0052 -0.5110 -0.2658
 9802TIP3    H150821   4.931   0.088  13.834 -0.3727 -1.2771 -1.7937
 9802TIP3    H250822   5.025   0.156  13.737  1.1145  0.7525  0.9782
 9803TIP3   OH250823   0.169   4.368  11.953  0.5008 -0.0057  0.2602
 9803TIP3    H150824   0.189   4.275  11.942 -2.2953 -0.7773  1.3474
 9803TIP3    H250825   0.142   4.377  12.044 -1.7252  1.3318 -0.4686
 9804TIP3   OH250826   4.767   5.635   4.942 -0.0677  0.1161 -0.2491
 9804TIP3    H150827   4.680   5.621   4.980 -0.4163  3.1973  0.3010
 9804TIP3    H250828   4.827   5.592   5.003 -1.1474 -1.4109 -0.2438
 9805TIP3   OH250829   4.848   2.944   3.398  0.7407  0.6084  0.1698
 9805TIP3    H150830   4.794   3.014   3.360  0.8502  0.3006 -0.5436
 9805TIP3    H250831   4.842   2.872   3.336  2.7383  0.8907 -0.3856
 9806TIP3   OH250832   3.856   1.276  15.835 -0.5524  0.1975  0.3650
 9806TIP3    H150833   3.802   1.281  15.914 -0.1818  1.7905  0.5332
 9806TIP3    H250834   3.857   1.365  15.801  1.0094 -0.0512 -0.2896
 9807TIP3   OH250835   1.532   4.912  13.874  0.2244 -0.1010  0.6113
 9807TIP3    H150836   1.627   4.926  13.885  0.3747  0.3928 -1.1151
 9807TIP3    H250837   1.525   4.836  13.816 -0.4029  0.5895 -0.2366
 9808TIP3   OH250838   5.732   0.955   1.113  0.8389  0.5759 -0.0240
 9808TIP3    H150839   5.759   0.998   1.032  1.0775  1.4025  0.4895
 9808TIP3    H250840   5.656   1.005   1.143  0.9216  0.4471  0.4087
 9809TIP3   OH250841   1.160   6.548  16.477 -0.7894 -0.5821  0.4282
 9809TIP3    H150842   1.194   6.535  16.389  0.6398  1.7516  0.6038
 9809TIP3    H250843   1.187   6.470  16.525  0.9104 -0.5805 -0.4806
 9810TIP3   OH250844   4.828   4.813  12.383 -0.4163  0.1002 -0.0225
 9810TIP3    H150845   4.894   4.768  12.435 -1.4186 -0.6815  0.5936
 9810TIP3    H250846   4.841   4.906  12.403  1.7347  0.1132 -1.3881
 9811TIP3   OH250847   4.031   1.487   5.006  0.6093  0.1705  0.2505
 9811TIP3    H150848   3.944   1.511   5.036  0.6844 -0.4302  0.9652
 9811TIP3    H250849   4.017   1.417   4.942  0.6682 -1.4265  1.9344
 9812TIP3   OH250850   4.910   4.454   5.509 -0.2463 -0.2157  0.4030
 9812TIP3    H150851   4.817   4.453   5.486 -0.4648  2.3345  1.1241
 9812TIP3    H250852   4.917   4.396   5.585 -1.0973 -1.0022 -0.1054
 9813TIP3   OH250853   4.491   2.613  14.177 -0.3488  0.2636  0.3652
 9813TIP3    H150854   4.540   2.549  14.229 -0.7301 -1.7581 -1.7097
 9813TIP3    H250855   4.399   2.588  14.187 -0.5436  0.8046 -0.0175
 9814TIP3   OH250856   2.550   2.799   4.005 -0.0284  0.3865  0.7248
 9814TIP3    H150857   2.562   2.803   3.910 -0.1658 -0.3648  0.6771
 9814TIP3    H250858   2.611   2.865   4.039  1.7494 -0.9900  0.2805
 9815TIP3   OH250859   1.102   1.756   4.846  0.2459 -0.3785  0.0038
 9815TIP3    H150860   1.041   1.684   4.864  0.7170 -0.3036  2.0170
 9815TIP3    H250861   1.072   1.828   4.902  0.8923  0.3899 -0.6097
 9816TIP3   OH250862   2.105   3.119   0.593  0.0869  0.2325  0.2753
 9816TIP3    H150863   2.046   3.095   0.523  0.6727  0.1219 -0.1881
 9816TIP3    H250864   2.070   3.202   0.627  0.9588  1.3704 -1.5198
 9817TIP3   OH250865   3.218   6.241  11.874  0.3355 -0.5848  0.5101
 9817TIP3    H150866   3.265   6.255  11.791 -1.4366 -1.2888 -0.6547
 9817TIP3    H250867   3.169   6.322  11.887  1.2496 -0.1555  1.3104
 9818TIP3   OH250868   5.808   2.576   4.358  0.2999  0.2694  0.5143
 9818TIP3    H150869   5.748   2.623   4.300  0.8382 -1.5295 -1.5780
 9818TIP3    H250870   5.889   2.569   4.308  0.8869 -1.0276  1.6182
 9819TIP3   OH250871   3.848   0.765  10.963 -0.0806  0.0676 -0.1819
 9819TIP3    H150872   3.764   0.763  11.010 -1.6466 -0.0929 -2.8719
 9819TIP3    H250873   3.890   0.682  10.987 -1.6841 -0.8649 -0.5159
 9820TIP3   OH250874   0.427   2.574  12.388  0.1876  0.0807 -0.2322
 9820TIP3    H150875   0.374   2.502  12.421  0.5027 -0.2763 -0.5038
 9820TIP3    H250876   0.453   2.547  12.299  0.6861  0.3220 -0.1651
 9821TIP3   OH250877   4.524   2.166   2.091  0.0043  0.4216  0.3860
 9821TIP3    H150878   4.556   2.254   2.113 -0.9332  1.0567 -0.7277
 9821TIP3    H250879   4.596   2.126   2.043  0.1204  0.8818  0.1747
 9822TIP3   OH250880   5.126   6.613  15.662  0.1971 -0.3603 -0.0894
 9822TIP3    H150881   5.183   6.539  15.681 -0.3118 -0.7150  0.0611
 9822TIP3    H250882   5.098   6.644  15.748 -1.2476 -1.2924 -0.2071
 9823TIP3   OH250883   6.057   0.613   1.844 -0.3188  0.4950  0.2444
 9823TIP3    H150884   6.131   0.612   1.904  1.6075 -1.8266 -2.0529
 9823TIP3    H250885   6.017   0.526   1.852 -1.1829  0.8125 -0.4670
 9824TIP3   OH250886   4.169   6.524  11.649  0.6885 -0.2676 -0.2914
 9824TIP3    H150887   4.116   6.445  11.637 -0.4289  0.4201 -0.0190
 9824TIP3    H250888   4.134   6.586  11.585  1.7512 -0.0891 -0.7004
 9825TIP3   OH250889   5.206   6.372  15.768  0.1561  0.3036 -0.2387
 9825TIP3    H150890   5.288   6.351  15.723 -0.5718  0.8111 -1.8284
 9825TIP3    H250891   5.151   6.295  15.753  0.5251 -0.2719  1.2977
 9826TIP3   OH250892   5.929   2.995  15.841 -0.8271 -0.6115 -0.3364
 9826TIP3    H150893   5.893   3.046  15.914  0.2054 -1.1971  0.5997
 9826TIP3    H250894   5.968   3.061  15.783  2.1157 -0.3624  1.7558
 9827TIP3   OH250895   6.219   2.300  15.196 -0.1417 -0.0934  0.3052
 9827TIP3    H150896   6.130   2.296  15.161 -0.4987 -2.8487  1.3591
 9827TIP3    H250897   6.276   2.286  15.120 -0.8067 -2.8822  0.2558
 9828TIP3   OH250898   3.591   5.580   5.780  0.1308 -0.5337 -0.3694
 9828TIP3    H150899   3.498   5.573   5.760  0.4762 -1.0159 -1.8671
 9828TIP3    H250900   3.596   5.643   5.852 -1.2964 -0.0822 -0.6666
 9829TIP3   OH250901   4.469   3.997   3.486  0.6528  0.0720  0.8459
 9829TIP3    H150902   4.411   3.922   3.474  1.3324 -0.3057 -0.1958
 9829TIP3    H250903   4.455   4.051   3.408  1.7430 -0.0688  0.5314
 9830TIP3   OH250904   0.399   0.008  14.118 -0.2380  0.2668  0.2998
 9830TIP3    H150905   0.454  -0.024  14.189  0.6334 -0.7111 -0.7915
 9830TIP3    H250906   0.311  -0.022  14.141 -0.2396  1.3820  1.7846
 9831TIP3   OH250907   5.114   0.073  12.334 -0.0507  0.2878 -0.0423
 9831TIP3    H150908   5.145   0.102  12.419 -1.3902 -1.2024  0.9956
 9831TIP3    H250909   5.097   0.154  12.286  0.3165  1.1527  1.2488
 9832TIP3   OH250910   1.603   6.356  15.360 -0.6148  0.1940 -0.8363
 9832TIP3    H150911   1.597   6.342  15.265  1.8327 -1.8965 -0.7499
 9832TIP3    H250912   1.603   6.267  15.396  0.7053  0.8859  0.9237
 9833TIP3   OH250913   0.756   3.447   4.917 -0.0315 -0.0618  0.4161
 9833TIP3    H150914   0.766   3.377   4.852 -0.8734  0.7898 -0.6553
 9833TIP3    H250915   0.669   3.434   4.953  0.4906 -0.6143  1.4860
 9834TIP3   OH250916   1.583   3.294  11.761  0.3144 -0.7133 -0.2908
 9834TIP3    H150917   1.507   3.239  11.745 -0.5543  0.6968 -1.1042
 9834TIP3    H250918   1.548   3.372  11.804  1.1929  0.2685 -1.3264
 9835TIP3   OH250919   4.293   1.309   3.999  0.6314 -0.0219 -0.7795
 9835TIP3    H150920   4.259   1.344   3.917  0.6481 -0.6485 -1.0534
 9835TIP3    H250921   4.351   1.378   4.032  0.4499  0.3260 -1.1733
 9836TIP3   OH250922   3.332   3.760   1.776 -0.8430  0.5755 -0.1769
 9836TIP3    H150923   3.339   3.782   1.869 -1.1813 -0.8405  0.2012
 9836TIP3    H250924   3.271   3.686   1.774 -0.2029  0.0677 -1.4432
 9837TIP3   OH250925   0.331   0.739  15.826  0.8357  0.2995  0.4558
 9837TIP3    H150926   0.236   0.753  15.828  0.4675 -1.7079 -1.0883
 9837TIP3    H250927   0.366   0.801  15.890 -1.6393  0.0735  2.0937
 9838TIP3   OH250928   5.125   6.401   0.174 -0.5439 -0.1243  0.4277
 9838TIP3    H150929   5.210   6.385   0.214 -0.4278 -1.3321 -0.2937
 9838TIP3    H250930   5.136   6.376   0.083 -0.4116  3.8693 -0.7765
 9839TIP3   OH250931   5.359   4.596   3.028  0.5082  0.3767  0.8981
 9839TIP3    H150932   5.386   4.653   2.957 -0.1684 -1.0507 -0.5387
 9839TIP3    H250933   5.272   4.626   3.052  1.0597  1.3735  1.6924
 9840TIP3   OH250934   5.786   2.554  16.478 -0.3920 -0.2305  0.0309
 9840TIP3    H150935   5.809   2.463  16.497  0.7040 -0.2323 -1.1729
 9840TIP3    H250936   5.699   2.566  16.515 -0.7533 -1.9196 -0.2306
 9841TIP3   OH250937   3.024   1.820  12.384  0.0531 -0.2187  0.0587
 9841TIP3    H150938   2.928   1.813  12.386 -0.0267  0.6639 -0.6667
 9841TIP3    H250939   3.046   1.819  12.291  0.7948 -0.8883  0.2352
 9842TIP3   OH250940   1.588   2.791   0.269  0.5928  0.2019 -0.0930
 9842TIP3    H150941   1.495   2.806   0.287  0.6139 -0.1634  0.3235
 9842TIP3    H250942   1.612   2.717   0.326  1.2322  0.5454  0.0841
 9843TIP3   OH250943   3.721   6.623   4.098 -0.1518 -1.1932 -0.7211
 9843TIP3    H150944   3.741   6.667   4.181  0.7522 -1.3326 -0.8674
 9843TIP3    H250945   3.779   6.547   4.096  0.6870 -0.5394 -2.0387
 9844TIP3   OH250946   5.800   4.534   2.648 -0.0465  0.0092  0.3298
 9844TIP3    H150947   5.728   4.539   2.711 -0.5044  1.3253 -0.2746
 9844TIP3    H250948   5.766   4.478   2.578 -0.5548  0.7814 -0.0438
 9845TIP3   OH250949   5.020   6.488   4.196  0.3194 -0.1433  0.4257
 9845TIP3    H150950   5.104   6.524   4.167  0.6519  1.3339  3.0120
 9845TIP3    H250951   5.038   6.453   4.283 -1.3493 -1.4973  0.2530
 9846TIP3   OH250952   0.704   1.322  16.917  0.9998 -0.1746 -0.6936
 9846TIP3    H150953   0.787   1.276  16.905  0.9669  0.5578 -4.1091
 9846TIP3    H250954   0.637   1.257  16.895  0.7047 -0.2104  0.2661
 9847TIP3   OH250955   1.482   3.326   0.089  0.1670  0.1002  0.1244
 9847TIP3    H150956   1.524   3.387   0.150 -0.5647  1.1501 -0.4078
 9847TIP3    H250957   1.390   3.353   0.089 -0.2311 -1.2329  0.1420
 9848TIP3   OH250958   0.437   6.485  16.608 -0.6985  0.2504 -0.4789
 9848TIP3    H150959   0.464   6.544  16.679 -1.5473  0.5978 -0.4445
 9848TIP3    H250960   0.520   6.456  16.570 -0.2366  0.3619  0.4027
 9849TIP3   OH250961   6.104   6.072  12.818 -0.9648  0.3095  0.2453
 9849TIP3    H150962   6.195   6.086  12.844 -1.6468  2.4654  1.5724
 9849TIP3    H250963   6.055   6.080  12.900 -2.2841 -1.7451 -0.3016
 9850TIP3   OH250964   0.627   6.695   2.013 -0.7001  0.1674 -0.5156
 9850TIP3    H150965   0.556   6.750   1.977  0.2139  1.7891  0.1258
 9850TIP3    H250966   0.652   6.639   1.939 -1.9501  0.2865 -1.0566
 9851TIP3   OH250967   4.869   2.898   4.809  0.2457 -0.0656  0.0504
 9851TIP3    H150968   4.920   2.962   4.859  2.1078 -1.2626 -0.2589
 9851TIP3    H250969   4.833   2.839   4.874 -0.2453  0.4253  0.2268
 9852TIP3   OH250970   5.708   2.999   5.375  0.2520  0.3025  0.3262
 9852TIP3    H150971   5.647   2.936   5.414 -0.8296  1.2875  0.2434
 9852TIP3    H250972   5.710   3.071   5.438 -0.6163  1.3958 -0.8838
 9853TIP3   OH250973   3.944   0.876   0.180 -0.1051 -0.2365 -0.2692
 9853TIP3    H150974   4.009   0.807   0.167 -0.7841 -0.8747 -0.2354
 9853TIP3    H250975   3.929   0.879   0.274  0.3400  0.3472 -0.2075
 9854TIP3   OH250976   4.713   4.712  17.011 -0.4284 -0.0491 -0.4816
 9854TIP3    H150977   4.695   4.677  16.923 -2.2430  1.8299 -0.9183
 9854TIP3    H250978   4.641   4.680  17.065  0.6739 -1.1811  0.3517
 9855TIP3   OH250979   3.628   2.400  14.862 -0.1652 -0.9063  0.1963
 9855TIP3    H150980   3.682   2.467  14.903 -0.2921  0.4799 -1.8265
 9855TIP3    H250981   3.548   2.398  14.914 -0.6617  1.3704 -0.4330
 9856TIP3   OH250982   0.594   4.531  10.834  0.1236  0.4529  0.1747
 9856TIP3    H150983   0.612   4.439  10.818  1.3306  0.8702 -0.9294
 9856TIP3    H250984   0.577   4.568  10.747 -0.0716  1.3366  0.5761
 9857TIP3   OH250985   2.337   5.024   4.285  0.2285 -0.5156 -0.3266
 9857TIP3    H150986   2.261   4.967   4.275 -0.8755  0.6780  0.9590
 9857TIP3    H250987   2.341   5.074   4.204 -0.8193 -0.0584 -0.1030
 9858TIP3   OH250988   1.167   0.749  12.573 -0.3354 -0.3311 -0.6140
 9858TIP3    H150989   1.088   0.751  12.519  1.5563 -0.3258 -3.5210
 9858TIP3    H250990   1.231   0.801  12.524  1.0060  1.0455  2.4880
 9859TIP3   OH250991   3.948   5.307  15.347 -0.6021  0.0318 -1.1442
 9859TIP3    H150992   3.872   5.358  15.376 -0.0874  1.7850 -2.7410
 9859TIP3    H250993   3.911   5.225  15.315 -1.4952 -0.4718  1.0347
 9860TIP3   OH250994   0.923   5.525   5.055  0.8527 -0.8770  0.4728
 9860TIP3    H150995   0.983   5.451   5.063  1.6040 -0.4328 -0.9489
 9860TIP3    H250996   0.980   5.602   5.052  0.0643 -0.1694  2.4825
 9861TIP3   OH250997   2.971   6.719  11.238 -0.3856  0.1409 -0.1840
 9861TIP3    H150998   2.902   6.785  11.232 -1.4040 -0.7776  1.0315
 9861TIP3    H250999   3.012   6.735  11.323 -0.6112 -0.7438  0.1022
 9862TIP3   OH251000   2.559   0.915  14.491 -0.0875  0.1969 -0.1039
 9862TIP3    H151001   2.474   0.881  14.517  0.7703 -2.1238 -0.2395
 9862TIP3    H251002   2.539   0.994  14.440 -2.1167 -0.0556  0.2719
 9863TIP3   OH251003   0.320   2.586   0.881 -0.2561 -0.2806  0.7006
 9863TIP3    H151004   0.289   2.524   0.947  0.5232 -1.1357  0.2730
 9863TIP3    H251005   0.334   2.533   0.803  2.7934 -0.0322  1.0293
 9864TIP3   OH251006   5.559   0.448  16.385 -0.0987 -0.1853  0.0471
 9864TIP3    H151007   5.570   0.354  16.399 -0.7160 -0.1386  0.9352
 9864TIP3    H251008   5.542   0.457  16.291  0.2783 -0.9316 -0.0950
 9865TIP3   OH251009   0.898   5.682   1.424 -0.4002  0.5083  0.3146
 9865TIP3    H151010   0.988   5.712   1.434 -0.1146 -1.0969  3.2293
 9865TIP3    H251011   0.903   5.610   1.361  0.3015  0.6131  0.2525
 9866TIP3   OH251012   4.300   0.362  14.375  0.0426 -0.2056 -0.2266
 9866TIP3    H151013   4.319   0.293  14.439  1.0894  1.0858  0.8947
 9866TIP3    H251014   4.210   0.388  14.394 -0.1123 -0.7675 -0.1804
 9867TIP3   OH251015   1.965   0.773  13.118 -0.0360 -0.4450  0.0475
 9867TIP3    H151016   1.871   0.764  13.131  0.2167 -2.0647  0.9272
 9867TIP3    H251017   1.997   0.806  13.202  0.4202 -1.8273  0.4296
 9868TIP3   OH251018   1.093   6.681   1.284  0.5592  0.4355  0.0151
 9868TIP3    H151019   1.175   6.710   1.323 -0.4672  1.0951  1.7676
 9868TIP3    H251020   1.042   6.649   1.359 -0.0796 -1.6614 -1.2862
 9869TIP3   OH251021   5.826   2.569  15.522 -0.3824 -0.2913  0.0227
 9869TIP3    H151022   5.808   2.494  15.579 -1.5866 -0.9555 -1.1994
 9869TIP3    H251023   5.754   2.630  15.540 -1.0919 -0.7505 -1.1694
 9870TIP3   OH251024   1.106   0.663   0.142 -0.4632 -0.4291  0.3155
 9870TIP3    H151025   1.059   0.582   0.160  1.1693 -1.7023 -1.0115
 9870TIP3    H251026   1.172   0.668   0.211  0.1757 -0.8263 -0.2633
 9871TIP3   OH251027   1.192   4.194   4.486  0.4420  0.3964  0.6142
 9871TIP3    H151028   1.146   4.236   4.559  1.2567  1.5130  0.4946
 9871TIP3    H251029   1.271   4.159   4.526  0.6752  0.6267  0.3522
 9872TIP3   OH251030   5.318   0.930   3.963  0.0982  0.0876 -0.3926
 9872TIP3    H151031   5.404   0.969   3.947  0.1897 -0.6341 -1.7607
 9872TIP3    H251032   5.266   0.954   3.886 -0.3535 -1.0014 -0.4411
 9873TIP3   OH251033   0.869   6.285   1.548  0.3210 -0.1196  0.0454
 9873TIP3    H151034   0.901   6.199   1.573  1.6145  0.0144 -1.1229
 9873TIP3    H251035   0.781   6.269   1.513  0.2335 -0.8494  0.5940
 9874TIP3   OH251036   4.921   4.464   3.072  0.2298 -0.6621  0.0135
 9874TIP3    H151037   4.983   4.531   3.042  1.4921 -1.4920  0.7251
 9874TIP3    H251038   4.880   4.431   2.992 -1.7817  2.2381 -0.2311
 9875TIP3   OH251039   2.015   6.490  11.767 -0.0382  0.7482  0.3492
 9875TIP3    H151040   2.040   6.582  11.766  0.5717  0.5834 -0.9698
 9875TIP3    H251041   1.948   6.483  11.698 -0.1714  0.2325  0.5308
 9876TIP3   OH251042   2.631   6.045  17.055  0.1706 -0.2762 -0.0047
 9876TIP3    H151043   2.656   5.978  17.119 -0.1211 -0.6293 -0.2545
 9876TIP3    H251044   2.711   6.094  17.038 -0.2780  1.4241  2.4963
 9877TIP3   OH251045   2.890   5.486   1.242 -0.1451 -0.4509 -0.5721
 9877TIP3    H151046   2.946   5.554   1.280  0.4972 -0.3037 -1.7838
 9877TIP3    H251047   2.833   5.459   1.315  0.1300  0.8144  0.1212
 9878TIP3   OH251048   0.760   1.307   5.114  0.2172 -0.1718 -0.0896
 9878TIP3    H151049   0.743   1.308   5.020 -1.1967 -2.0649  0.1272
 9878TIP3    H251050   0.855   1.312   5.121  0.3473 -0.2095 -1.6206
 9879TIP3   OH251051   2.359   0.885  16.094  0.1157  0.1547  0.0073
 9879TIP3    H151052   2.430   0.883  16.030 -0.1308 -0.4607 -0.2450
 9879TIP3    H251053   2.390   0.831  16.166 -0.3179 -0.5606 -0.3371
 9880TIP3   OH251054   6.352   4.636  14.879  0.6008 -0.0283 -0.5826
 9880TIP3    H151055   6.294   4.707  14.906  0.9184 -0.2701  0.7564
 9880TIP3    H251056   6.294   4.570  14.842  0.1962  0.4713 -0.8402
 9881TIP3   OH251057   0.776   0.562   5.264  0.0301 -0.5240  0.1836
 9881TIP3    H151058   0.783   0.612   5.345 -0.6311 -0.8316  0.4366
 9881TIP3    H251059   0.802   0.473   5.288  0.0996 -0.5551 -0.0050
 9882TIP3   OH251060   3.886   1.698   4.204 -0.3687  0.0970 -0.4341
 9882TIP3    H151061   3.841   1.732   4.127 -0.9112  0.4008  0.0155
 9882TIP3    H251062   3.876   1.766   4.270 -0.9811 -0.6782  0.2975
 9883TIP3   OH251063   3.183   3.659   0.979  0.2791 -0.0079 -0.6402
 9883TIP3    H151064   3.173   3.598   1.052  0.1386  1.0043  0.1945
 9883TIP3    H251065   3.153   3.610   0.903 -1.0327 -0.5667  0.2105
 9884TIP3   OH251066   5.835   4.205   0.897 -0.0303 -0.0988  0.2279
 9884TIP3    H151067   5.810   4.144   0.827  0.0028 -0.1700  0.2777
 9884TIP3    H251068   5.756   4.213   0.951 -0.1162  0.1089  0.0731
 9885TIP3   OH251069   6.354   2.645  12.462 -0.0509  0.3104  0.3429
 9885TIP3    H151070   6.349   2.610  12.550  0.8849 -0.8764 -0.0675
 9885TIP3    H251071   6.344   2.740  12.473 -2.5676 -0.0298  1.4534
 9886TIP3   OH251072   1.448   5.066   2.572 -0.1656  0.3556 -0.1834
 9886TIP3    H151073   1.417   5.148   2.534 -0.6091 -0.7744 -2.3771
 9886TIP3    H251074   1.534   5.087   2.608 -1.1003  2.2250  1.0205
 9887TIP3   OH251075   2.695   2.579   4.568 -0.3605 -0.3759  0.1803
 9887TIP3    H151076   2.708   2.485   4.557  0.2242 -0.2003 -0.6560
 9887TIP3    H251077   2.737   2.618   4.492  0.9462  0.6730  1.4193
 9888TIP3   OH251078   4.060   6.385  15.788  0.5685  0.2091 -0.7809
 9888TIP3    H151079   4.010   6.424  15.860  0.9923 -1.7473  0.6203
 9888TIP3    H251080   4.000   6.323  15.748  1.8672 -2.3585  1.0833
 9889TIP3   OH251081   4.575   0.739  13.972 -0.2685  0.6496 -0.6920
 9889TIP3    H151082   4.642   0.670  13.972  0.9203  1.7862 -1.4357
 9889TIP3    H251083   4.505   0.704  13.917  0.5972  0.2741 -1.5793
 9890TIP3   OH251084   5.333   3.852   5.624 -0.4811  0.1582  0.2244
 9890TIP3    H151085   5.374   3.766   5.625  0.3965  0.5313 -1.8282
 9890TIP3    H251086   5.391   3.906   5.571 -0.6671  2.2028  2.0375
 9891TIP3   OH251087   4.952   3.446   0.616  0.4143 -0.3359 -0.5204
 9891TIP3    H151088   4.873   3.497   0.632  0.6098  0.2877 -1.4754
 9891TIP3    H251089   5.023   3.500   0.650  0.4986 -0.5561 -0.3479
 9892TIP3   OH251090   6.657   1.447  17.146  0.3541 -0.5368 -0.2527
 9892TIP3    H151091   6.672   1.530  17.190 -1.4384  0.0197 -0.6543
 9892TIP3    H251092   6.661   1.468  17.052  0.2395 -0.9705 -0.3584
 9893TIP3   OH251093   0.614   3.870  11.195 -0.3481  0.4954  0.4617
 9893TIP3    H151094   0.620   3.868  11.290  1.7829  0.9957  0.3665
 9893TIP3    H251095   0.648   3.785  11.167 -0.0996  0.7065  0.1201
 9894TIP3   OH251096   6.055   5.010  11.570 -0.0394 -0.4522 -0.0885
 9894TIP3    H151097   6.073   5.095  11.531  0.9528 -0.9896 -0.8006
 9894TIP3    H251098   6.058   5.026  11.665 -3.5861  1.1057 -0.1384
 9895TIP3   OH251099   0.120   5.193  13.580  0.1714  0.1714  0.2388
 9895TIP3    H151100   0.074   5.190  13.664  0.1471  0.5133  0.2390
 9895TIP3    H251101   0.127   5.286  13.560 -0.0196  0.0850 -0.2450
 9896TIP3   OH251102   3.427   2.124   4.732  0.1955 -0.6991 -0.0937
 9896TIP3    H151103   3.431   2.029   4.721 -0.5053 -0.4847 -2.5169
 9896TIP3    H251104   3.462   2.159   4.650  0.6084  1.1369  0.8497
 9897TIP3   OH251105   3.905   6.561  14.179 -0.4233  0.2842 -0.0476
 9897TIP3    H151106   3.968   6.574  14.250  0.2438 -0.1147 -0.5617
 9897TIP3    H251107   3.852   6.641  14.179 -1.4419 -0.3630  1.8916
 9898TIP3   OH251108   1.127   2.664  12.029  0.8598 -0.0613 -0.5041
 9898TIP3    H151109   1.066   2.613  11.975 -0.7626 -1.3293  2.4272
 9898TIP3    H251110   1.073   2.734  12.066  2.1912  1.4066 -1.2775
 9899TIP3   OH251111   6.730   6.755   1.958  0.0461  0.1655 -0.4157
 9899TIP3    H151112   6.762   6.760   2.048 -1.7338  1.1604  0.1752
 9899TIP3    H251113   6.754   6.840   1.920  1.0159 -0.3478 -0.9594
 9900TIP3   OH251114   0.657   1.775  16.507 -0.4082  0.8670 -0.1707
 9900TIP3    H151115   0.585   1.813  16.456 -0.3343  0.2640 -0.7221
 9900TIP3    H251116   0.713   1.734  16.442  0.3688  1.2121  0.2749
 9901TIP3   OH251117   4.168   4.864  14.917 -0.1411  0.0796 -0.4813
 9901TIP3    H151118   4.113   4.831  14.845  1.1234 -0.9684 -0.9810
 9901TIP3    H251119   4.116   4.934  14.956 -2.5873 -2.0077  0.1439
 9902TIP3   OH251120   1.446   3.635  14.211  0.1354  0.1994 -0.5466
 9902TIP3    H151121   1.358   3.669  14.192 -0.3983 -0.8093  0.1065
 9902TIP3    H251122   1.443   3.611  14.303  1.3956  1.0240 -0.2684
 9903TIP3   OH251123   1.831   4.700  13.725 -0.0481  0.0827 -0.0275
 9903TIP3    H151124   1.880   4.664  13.651  0.5629  0.3018  0.2617
 9903TIP3    H251125   1.747   4.725  13.688 -0.0682 -0.6135 -0.4651
 9904TIP3   OH251126   1.996   2.928  12.665 -0.0941  0.0124 -0.0459
 9904TIP3    H151127   1.972   2.929  12.572 -2.4771  1.6915  0.5614
 9904TIP3    H251128   1.991   3.020  12.692 -0.9519 -0.6613  2.1394
 9905TIP3   OH251129   2.774   0.618  13.070 -0.1143 -0.4060 -0.4085
 9905TIP3    H151130   2.700   0.631  13.128 -0.4711 -1.2143 -0.6766
 9905TIP3    H251131   2.739   0.565  12.998  1.6405 -4.2441  1.4440
 9906TIP3   OH251132   6.759   2.404  16.620  0.3550 -0.3517  0.1136
 9906TIP3    H151133   6.820   2.356  16.563 -0.3544 -0.3798 -0.6248
 9906TIP3    H251134   6.715   2.466  16.562  0.3556  0.3235  0.8250
 9907TIP3   OH251135   2.331   5.665   5.249 -0.1972  0.4383  0.4843
 9907TIP3    H151136   2.354   5.724   5.321 -0.5308  0.2515  0.7508
 9907TIP3    H251137   2.284   5.721   5.187  2.2200  1.1528 -0.7650
 9908TIP3   OH251138   1.801   3.959   5.061  0.3036  0.5203 -0.2340
 9908TIP3    H151139   1.833   3.995   5.143  0.1344 -0.0133  0.0678
 9908TIP3    H251140   1.876   3.966   5.001  0.3551  1.1074 -0.0951
 9909TIP3   OH251141   1.001   6.427   4.349 -0.4684  0.2808 -0.2372
 9909TIP3    H151142   1.075   6.388   4.301 -0.0828  1.3131 -0.5086
 9909TIP3    H251143   0.926   6.416   4.291  0.2353  2.6349 -1.6891
 9910TIP3   OH251144   2.905   4.439   7.101  0.0766  0.0804  0.2427
 9910TIP3    H151145   2.872   4.365   7.050  0.6896  0.5667 -0.8850
 9910TIP3    H251146   2.996   4.415   7.122  0.4941  0.7984 -0.7104
 9911TIP3   OH251147   6.735   5.328  16.904  0.1268  0.3098  0.6322
 9911TIP3    H151148   6.647   5.345  16.869  0.6609  1.1001 -0.3594
 9911TIP3    H251149   6.734   5.236  16.929 -1.0938  0.4053  0.9523
 9912TIP3   OH251150   4.897   3.297   2.456 -0.0692  0.0226  0.4539
 9912TIP3    H151151   4.840   3.253   2.519 -0.7676 -0.3563 -0.4261
 9912TIP3    H251152   4.979   3.247   2.459 -0.1180 -0.0287  1.0082
 9913TIP3   OH251153   3.575   2.356  14.579  0.3248  0.0285 -0.3198
 9913TIP3    H151154   3.581   2.340  14.673 -1.5928  3.2133  0.4148
 9913TIP3    H251155   3.492   2.316  14.553 -0.6660  1.8237 -0.0035
 9914TIP3   OH251156   4.894   3.852   6.306 -0.3479  0.1600  0.4777
 9914TIP3    H151157   4.952   3.910   6.355  0.3195  0.1684 -0.3034
 9914TIP3    H251158   4.951   3.781   6.276 -0.9766 -0.4398  0.6821
 9915TIP3   OH251159   5.431   6.173   3.041 -0.5535 -0.1866 -0.4804
 9915TIP3    H151160   5.493   6.187   2.970 -1.1125  0.3859 -0.8556
 9915TIP3    H251161   5.354   6.135   2.999  0.3010 -2.8421  0.2766
 9916TIP3   OH251162   4.473   2.922   6.517  0.1190 -0.6426  0.2720
 9916TIP3    H151163   4.426   2.983   6.459 -0.9024 -1.5775  0.0914
 9916TIP3    H251164   4.501   2.976   6.590 -0.3135  0.1610 -0.1422
 9917TIP3   OH251165   3.982   3.499   5.319  0.8143 -0.5224  0.6940
 9917TIP3    H151166   3.999   3.536   5.232  1.1633 -2.1733  0.0359
 9917TIP3    H251167   3.889   3.519   5.335  0.7579 -0.1618 -0.0383
 9918TIP3   OH251168   0.158   2.675   5.641 -0.0033  0.0803  0.3833
 9918TIP3    H151169   0.169   2.747   5.702  1.2008 -0.5298  0.9126
 9918TIP3    H251170   0.183   2.710   5.557  0.4331  0.3155  0.6135
 9919TIP3   OH251171   2.514   3.733   6.129  0.0065  0.1560  0.0576
 9919TIP3    H151172   2.453   3.722   6.201  0.3653 -0.2479  0.3067
 9919TIP3    H251173   2.574   3.802   6.157 -0.5916  0.8525 -0.3667
 9920TIP3   OH251174   5.387   0.545   3.243 -0.1870  0.1453  0.9957
 9920TIP3    H151175   5.332   0.583   3.312  0.5799  0.9800  1.1644
 9920TIP3    H251176   5.411   0.459   3.277 -1.8420 -0.4756  0.6693
 9921TIP3   OH251177   0.139   5.506  14.881  0.3454 -0.3856  0.0890
 9921TIP3    H151178   0.048   5.530  14.895  0.5775 -0.2644  1.4801
 9921TIP3    H251179   0.179   5.585  14.845  0.0780 -0.1729  0.2577
 9922TIP3   OH251180   1.778   5.308   4.091  0.1593  0.4994  0.1173
 9922TIP3    H151181   1.732   5.255   4.156  0.1401 -0.0447 -0.3425
 9922TIP3    H251182   1.726   5.299   4.011  0.8715  0.1593 -0.3089
 9923TIP3   OH251183   2.970   5.369   6.820  0.2615 -0.3549  0.1089
 9923TIP3    H151184   2.888   5.381   6.771  0.8465  0.6250 -0.6433
 9923TIP3    H251185   2.977   5.447   6.875  0.3392 -0.7797  0.7114
 9924TIP3   OH251186   5.096   2.238  13.365 -0.8858 -0.3162 -0.1194
 9924TIP3    H151187   5.055   2.314  13.406 -0.4750  0.4521 -1.1123
 9924TIP3    H251188   5.023   2.192  13.322 -0.6685  1.4348 -2.4900
 9925TIP3   OH251189   2.174   4.538  17.034 -0.6296 -0.3702  0.0383
 9925TIP3    H151190   2.134   4.610  16.986 -3.2514 -1.2333  0.8708
 9925TIP3    H251191   2.191   4.470  16.968 -1.6156 -0.4562 -0.1233
 9926TIP3   OH251192   5.851   2.620   0.445 -0.2812  0.0496  0.1610
 9926TIP3    H151193   5.916   2.582   0.386  1.5618  1.9584  0.8834
 9926TIP3    H251194   5.815   2.695   0.397 -1.4068 -0.5487  0.0616
 9927TIP3   OH251195   6.131   0.276  13.663 -0.2172 -0.1141  0.3750
 9927TIP3    H151196   6.184   0.336  13.610 -0.5474  1.1760  1.4793
 9927TIP3    H251197   6.049   0.322  13.677 -0.1246 -0.4126  2.0307
 9928TIP3   OH251198   0.393   5.158  12.353  0.4340 -0.2470  0.1187
 9928TIP3    H151199   0.414   5.125  12.440  0.6240 -0.1595  0.1068
 9928TIP3    H251200   0.427   5.092  12.293 -0.9014 -0.9622  0.1514
 9929TIP3   OH251201   2.495   0.901   0.261 -0.4087 -0.8058 -0.3614
 9929TIP3    H151202   2.436   0.861   0.324  0.5661 -1.2281  0.2850
 9929TIP3    H251203   2.449   0.980   0.232 -1.2240 -1.0562  0.2315
 9930TIP3   OH251204   4.863   4.161  12.757 -0.0551  0.1879  0.0644
 9930TIP3    H151205   4.866   4.077  12.803  1.0943 -0.0540 -0.4281
 9930TIP3    H251206   4.770   4.181  12.749 -0.3053 -0.5886  1.0138
 9931TIP3   OH251207   5.184   6.671   1.635 -0.6424 -0.2927  0.1188
 9931TIP3    H151208   5.274   6.653   1.609 -0.9902 -1.0453 -0.5942
 9931TIP3    H251209   5.130   6.618   1.575 -1.6106  1.4189 -0.5651
 9932TIP3   OH251210   1.231   2.293   4.607 -0.2556 -0.0167 -0.0843
 9932TIP3    H151211   1.256   2.280   4.515  1.2767 -0.6935  0.4265
 9932TIP3    H251212   1.313   2.292   4.655 -1.1773 -1.2355  1.4970
 9933TIP3   OH251213   2.077   3.335   5.540 -0.0449 -0.0890 -0.3957
 9933TIP3    H151214   2.086   3.265   5.476 -1.8566  0.1258 -0.9022
 9933TIP3    H251215   2.161   3.381   5.537  0.5534 -1.2073 -1.2538
 9934TIP3   OH251216   2.840   2.188   2.473  1.0802 -0.3078 -0.5150
 9934TIP3    H151217   2.840   2.264   2.414 -0.3444 -1.1135 -1.5924
 9934TIP3    H251218   2.844   2.225   2.561  2.4863  0.9457 -1.0857
 9935TIP3   OH251219   0.272   6.549   5.885  0.0721 -0.6857 -0.6640
 9935TIP3    H151220   0.317   6.573   5.965  2.8833 -2.8668 -1.5196
 9935TIP3    H251221   0.234   6.463   5.903  1.1838 -1.4357 -1.8153
 9936TIP3   OH251222   3.272   4.888   4.052 -0.6290 -0.0507  0.2874
 9936TIP3    H151223   3.263   4.794   4.037  0.4536 -0.3022  1.1317
 9936TIP3    H251224   3.182   4.921   4.049 -1.1195 -1.2645  0.9650
 9937TIP3   OH251225   6.062   1.570   1.878 -0.0301 -0.2069 -0.2977
 9937TIP3    H151226   6.019   1.655   1.883 -1.4796 -0.9941  1.1242
 9937TIP3    H251227   6.142   1.580   1.928  0.0502  0.4701 -0.5613
 9938TIP3   OH251228   6.447   3.968  14.911 -0.0375 -0.0874  0.3069
 9938TIP3    H151229   6.411   4.005  14.991 -0.5244  0.9884 -0.3944
 9938TIP3    H251230   6.465   4.044  14.855 -1.2328 -0.8924 -1.2295
 9939TIP3   OH251231   6.752   4.044  11.354 -0.2198 -0.5634 -0.6798
 9939TIP3    H151232   6.807   4.041  11.433 -0.1204 -3.5572 -0.7813
 9939TIP3    H251233   6.813   4.058  11.283  0.1028 -1.0618 -0.5079
 9940TIP3   OH251234   1.588   5.369   2.611  0.2373  0.7080  0.3765
 9940TIP3    H151235   1.587   5.297   2.674  0.0185 -0.3687 -0.8502
 9940TIP3    H251236   1.604   5.447   2.665  0.2628 -0.2156  1.7385
 9941TIP3   OH251237   6.075   2.314  12.810  0.3016  0.2869 -0.0620
 9941TIP3    H151238   6.021   2.260  12.751  1.0119  1.0094 -1.3986
 9941TIP3    H251239   6.017   2.384  12.839 -1.3252 -2.3444  3.4693
 9942TIP3   OH251240   4.706   4.783   2.860 -0.1592  0.1437  0.3441
 9942TIP3    H151241   4.666   4.870   2.867 -0.3440  0.1270 -0.4792
 9942TIP3    H251242   4.800   4.800   2.853 -0.1385  0.2459  0.8513
 9943TIP3   OH251243   1.213   5.035  11.519  0.4070  0.3920  0.3615
 9943TIP3    H151244   1.186   4.962  11.464  1.8482  0.5759 -0.6102
 9943TIP3    H251245   1.191   5.113  11.468  0.8943  0.5795  0.4334
 9944TIP3   OH251246   0.705   6.411  11.741  0.2713 -0.2578 -0.2312
 9944TIP3    H151247   0.752   6.461  11.808  0.0571  0.3181 -0.5089
 9944TIP3    H251248   0.733   6.450  11.658 -1.5389  0.8371 -0.3612
 9945TIP3   OH251249   3.103   0.929  14.257  0.0449  0.8342 -0.3896
 9945TIP3    H151250   3.086   0.888  14.341 -1.7619  0.5683 -0.8710
 9945TIP3    H251251   3.189   0.970  14.267  0.5021 -0.4460  1.0888
 9946TIP3   OH251252   4.287   6.081  15.305  0.1488  0.2184  0.4690
 9946TIP3    H151253   4.364   6.066  15.250 -0.1986  0.7621 -0.1693
 9946TIP3    H251254   4.228   6.009  15.283  0.7708 -0.6244  1.5079
 9947TIP3   OH251255   0.102   2.369   0.402 -0.1770  0.3076  0.3362
 9947TIP3    H151256   0.166   2.355   0.332  0.0956 -1.2215  0.8841
 9947TIP3    H251257   0.018   2.377   0.357  0.1965  0.8430 -0.2756
 9948TIP3   OH251258   2.088   2.176   1.077 -0.2400  0.0449  0.3683
 9948TIP3    H151259   2.174   2.217   1.088 -1.8281  3.3563  0.9827
 9948TIP3    H251260   2.084   2.153   0.985  0.1903  2.5723 -0.3093
 9949TIP3   OH251261   4.701   5.054   5.688  0.3264  0.2903  0.0989
 9949TIP3    H151262   4.611   5.027   5.707  0.4817 -0.5797 -0.3955
 9949TIP3    H251263   4.738   5.074   5.774 -1.2639  3.6319  0.0849
 9950TIP3   OH251264   3.678   0.084   3.425  0.1614  0.2563  0.6147
 9950TIP3    H151265   3.664   0.005   3.477  1.0624 -1.2509 -1.3522
 9950TIP3    H251266   3.722   0.145   3.485 -2.3827  0.0834  2.7745
 9951TIP3   OH251267   4.020   1.774   2.075 -0.3681 -0.4986 -0.2849
 9951TIP3    H151268   4.079   1.731   2.013  0.1029 -0.1931 -0.0535
 9951TIP3    H251269   3.983   1.848   2.026 -1.4859 -1.3895 -0.8096
 9952TIP3   OH251270   5.747   0.326  12.509  0.0364  0.1863 -0.0544
 9952TIP3    H151271   5.671   0.304  12.455 -0.2307  0.0836  0.3663
 9952TIP3    H251272   5.719   0.308  12.599  0.7052 -0.2693  0.0621
 9953TIP3   OH251273   2.330   0.907  13.730 -0.1987  0.1039 -0.0445
 9953TIP3    H151274   2.321   0.952  13.813  0.1476  0.1352 -0.0226
 9953TIP3    H251275   2.283   0.962  13.667  1.8823  1.5674 -0.3983
 9954TIP3   OH251276   3.114   2.461   0.091 -0.0209  0.2970 -0.1999
 9954TIP3    H151277   3.152   2.445   0.177 -0.3944  2.2339  0.3461
 9954TIP3    H251278   3.020   2.455   0.105 -0.0341 -2.2021 -1.0820
 9955TIP3   OH251279   2.561   0.845  16.872 -0.8005  0.1108  0.1500
 9955TIP3    H151280   2.504   0.859  16.947 -1.6622  1.3390 -0.7126
 9955TIP3    H251281   2.527   0.765  16.831 -0.9870  0.0285  0.4619
 9956TIP3   OH251282   4.510   4.237   2.340 -0.0437  0.0240  0.2727
 9956TIP3    H151283   4.461   4.287   2.404  1.5070  0.6841  0.9570
 9956TIP3    H251284   4.492   4.146   2.361  0.2712  0.2450  1.4947
 9957TIP3   OH251285   5.869   3.406  16.500  0.0422  1.0115 -0.7427
 9957TIP3    H151286   5.794   3.458  16.471 -0.6984 -0.9872 -2.5475
 9957TIP3    H251287   5.917   3.386  16.420 -0.8581 -2.8293 -0.4265
 9958TIP3   OH251288   6.551   5.426   6.348 -0.3463  0.2776 -0.0586
 9958TIP3    H151289   6.558   5.391   6.259  0.0959 -1.2678  0.5761
 9958TIP3    H251290   6.486   5.370   6.391  1.6326 -0.8784  1.4784
 9959TIP3   OH251291   1.059   2.168  11.592 -0.1192 -0.3573 -0.0019
 9959TIP3    H151292   1.093   2.083  11.564 -0.5221 -0.0465 -1.4579
 9959TIP3    H251293   1.091   2.230  11.526 -0.2507  0.5427  0.7695
 9960TIP3   OH251294   0.277   4.300  13.655 -0.1477  0.0771  0.4647
 9960TIP3    H151295   0.193   4.334  13.686 -0.0496  2.4676 -1.7662
 9960TIP3    H251296   0.254   4.240  13.584 -0.0340  0.1225  0.3895
 9961TIP3   OH251297   1.116   0.392  15.785  0.1775 -0.0240 -0.3499
 9961TIP3    H151298   1.151   0.320  15.733 -0.2339  0.4925 -1.3465
 9961TIP3    H251299   1.182   0.462  15.777 -0.9795  0.9014 -2.1169
 9962TIP3   OH251300   1.870   2.929   2.070 -0.3616  0.1204  0.0706
 9962TIP3    H151301   1.846   2.841   2.044  0.5959  0.2315 -1.2253
 9962TIP3    H251302   1.918   2.964   1.995 -0.2702  1.5468  0.7824
 9963TIP3   OH251303   2.603   4.081   2.567  0.0952 -0.0610  0.3723
 9963TIP3    H151304   2.572   4.111   2.653 -0.6751  0.3779 -0.0548
 9963TIP3    H251305   2.605   3.985   2.574 -1.3206 -0.0905  0.4207
 9964TIP3   OH251306   5.962   2.754   4.519 -0.4211  0.3184 -0.5167
 9964TIP3    H151307   6.005   2.676   4.554 -1.1096 -0.2792 -0.9699
 9964TIP3    H251308   5.941   2.807   4.595  0.0340  0.0511 -0.2023
 9965TIP3   OH251309   5.373   5.036  14.585  0.0038  0.8481 -0.5656
 9965TIP3    H151310   5.455   5.059  14.544 -0.1478 -0.3682 -1.5903
 9965TIP3    H251311   5.368   4.940  14.576 -0.2181  0.5969  1.9227
 9966TIP3   OH251312   2.965   2.289   1.001 -0.4134  0.0669 -0.3900
 9966TIP3    H151313   3.017   2.367   1.022 -1.9699  0.7525  1.0724
 9966TIP3    H251314   2.907   2.317   0.930  0.0948 -0.2131 -0.9141
 9967TIP3   OH251315   0.839   6.452   5.613 -0.0694 -0.7416  0.4155
 9967TIP3    H151316   0.877   6.537   5.632 -1.5977 -0.0437  0.3916
 9967TIP3    H251317   0.857   6.399   5.690 -1.2938  0.3647  1.4803
 9968TIP3   OH251318   6.521   5.343  16.471  0.2614 -0.7683  0.0259
 9968TIP3    H151319   6.443   5.287  16.471 -0.5323  0.3256  0.4708
 9968TIP3    H251320   6.594   5.282  16.476 -0.6416 -1.7282  1.8291
 9969TIP3   OH251321   5.472   0.401  14.722 -0.0351 -0.2652 -0.0943
 9969TIP3    H151322   5.492   0.308  14.734  0.3808 -0.1388  0.2282
 9969TIP3    H251323   5.479   0.414  14.628  0.5807 -0.4216 -0.0792
 9970TIP3   OH251324   5.279   0.551   4.200  0.2164  0.0899  0.0467
 9970TIP3    H151325   5.256   0.575   4.111  0.9537 -0.0714 -0.1912
 9970TIP3    H251326   5.202   0.573   4.252 -0.4588 -0.4267 -0.7316
 9971TIP3   OH251327   3.713   0.363   2.687 -0.0866 -0.8850 -0.1966
 9971TIP3    H151328   3.713   0.295   2.754  2.4127 -0.8091 -0.0669
 9971TIP3    H251329   3.784   0.338   2.628 -0.0431  0.8676 -0.9127
 9972TIP3   OH251330   4.699   2.583  16.533  0.2440 -0.6573 -0.0854
 9972TIP3    H151331   4.635   2.612  16.598  0.1037 -0.3359 -0.3662
 9972TIP3    H251332   4.783   2.617  16.567  0.4399 -2.0488  0.8766
 9973TIP3   OH251333   4.296   0.785   4.443  0.2350  0.1381 -0.1047
 9973TIP3    H151334   4.214   0.777   4.395 -0.2299 -0.7519  0.8385
 9973TIP3    H251335   4.289   0.868   4.489 -0.8540 -0.7078  1.3008
 9974TIP3   OH251336   2.506   3.701  15.719 -0.3402 -0.1538 -0.1545
 9974TIP3    H151337   2.431   3.746  15.756 -0.5603 -0.3093 -0.4084
 9974TIP3    H251338   2.578   3.720  15.779 -0.0631  1.8174 -1.0687
 9975TIP3   OH251339   2.793   6.707  14.462  0.5439  0.2602  0.1437
 9975TIP3    H151340   2.782   6.769  14.390 -0.3001 -0.1662 -0.1025
 9975TIP3    H251341   2.756   6.625  14.429 -3.6910  1.0659  2.4678
 9976TIP3   OH251342   0.164   2.563   4.360 -0.1470  0.6891 -0.3738
 9976TIP3    H151343   0.182   2.647   4.317  0.0451  1.5059  1.2721
 9976TIP3    H251344   0.246   2.540   4.403 -0.5234  0.1922  0.0855
 9977TIP3   OH251345   5.796   2.222   0.417  0.0601  0.0092 -0.3476
 9977TIP3    H151346   5.786   2.277   0.495  0.4617 -0.6526  0.1726
 9977TIP3    H251347   5.890   2.222   0.399 -0.2028  1.7810 -2.0254
 9978TIP3   OH251348   2.365   3.939   3.910  0.8308 -0.0406 -0.2656
 9978TIP3    H151349   2.305   3.973   3.844 -0.9653 -0.6046  1.0249
 9978TIP3    H251350   2.447   3.926   3.863 -0.2827 -0.0439 -2.2954
 9979TIP3   OH251351   3.510   1.470   0.205 -0.0262 -0.1944  1.0472
 9979TIP3    H151352   3.501   1.376   0.191 -0.0174 -0.0201 -0.1776
 9979TIP3    H251353   3.605   1.486   0.202 -0.1435  0.2331 -1.4395
 9980TIP3   OH251354   1.155   0.741   2.100  0.1755 -0.1972  0.3791
 9980TIP3    H151355   1.156   0.655   2.142 -0.8589 -1.2717 -1.7297
 9980TIP3    H251356   1.189   0.725   2.012 -0.7617  1.3993 -0.2980
 9981TIP3   OH251357   3.995   4.196  14.187 -0.6384  0.0604 -0.6146
 9981TIP3    H151358   4.067   4.255  14.210 -0.4422  0.1887 -1.5266
 9981TIP3    H251359   3.961   4.231  14.105 -1.2648 -0.4315 -0.5662
 9982TIP3   OH251360   1.227   5.184  13.255  0.2202 -0.0752 -0.1923
 9982TIP3    H151361   1.177   5.240  13.314 -1.0228 -2.2705  0.8879
 9982TIP3    H251362   1.164   5.120  13.223  1.6728 -1.0786 -1.1217
 9983TIP3   OH251363   0.556   0.954  15.340 -0.2594 -0.4235 -0.1405
 9983TIP3    H151364   0.597   1.022  15.394  0.3513 -1.1930  0.3829
 9983TIP3    H251365   0.493   0.912  15.398 -2.1354  1.0495 -1.0765
 9984TIP3   OH251366   5.972   4.642   5.945  0.9684 -0.2141 -0.5661
 9984TIP3    H151367   6.007   4.563   5.986  0.4030  0.2460  0.8500
 9984TIP3    H251368   6.018   4.649   5.862  2.3384 -1.0366  0.1082
 9985TIP3   OH251369   3.112   5.071   0.540  0.0862 -0.1557  0.3300
 9985TIP3    H151370   3.078   5.009   0.475 -0.0837  0.6065 -0.3218
 9985TIP3    H251371   3.102   5.026   0.623  1.4514 -1.6443 -0.2901
 9986TIP3   OH251372   1.838   2.362  14.855 -0.2726 -0.7044  0.5115
 9986TIP3    H151373   1.928   2.358  14.887 -0.7090 -2.1733  1.6117
 9986TIP3    H251374   1.842   2.421  14.780  1.5726 -0.6164  0.6532
 9987TIP3   OH251375   1.235   0.464   1.439  0.8128  0.2951  0.1591
 9987TIP3    H151376   1.239   0.402   1.512  2.9420  0.8231  0.5320
 9987TIP3    H251377   1.180   0.535   1.472  0.9216  0.0502  0.8910
 9988TIP3   OH251378   3.537   0.747   1.845 -0.3318  0.3782  0.6039
 9988TIP3    H151379   3.464   0.707   1.893  0.7147 -0.8029  1.2070
 9988TIP3    H251380   3.611   0.744   1.906  0.0822  2.1305  0.2139
 9989TIP3   OH251381   4.338   2.979   1.492  0.1350 -0.3397  0.0878
 9989TIP3    H151382   4.317   3.072   1.491  1.2286 -0.1006 -0.8430
 9989TIP3    H251383   4.332   2.952   1.400 -0.1199 -1.1821  0.3442
 9990TIP3   OH251384   6.724   3.389  12.943 -0.2330 -0.2885  0.2796
 9990TIP3    H151385   6.735   3.318  12.880 -0.8422 -0.0005 -0.1611
 9990TIP3    H251386   6.759   3.466  12.898  1.4977 -0.5150  1.1990
 9991TIP3   OH251387   5.463   1.673  14.654 -0.1514 -0.0523  0.1679
 9991TIP3    H151388   5.487   1.651  14.744 -2.1958 -0.1968  0.6792
 9991TIP3    H251389   5.541   1.649  14.603  0.5595 -1.1283  1.7193
 9992TIP3   OH251390   1.769   1.165  11.999 -0.6490  0.1365  0.0756
 9992TIP3    H151391   1.820   1.147  12.077  0.2880 -0.2461 -0.6115
 9992TIP3    H251392   1.766   1.081  11.953 -0.4946  0.5533 -0.7055
 9993TIP3   OH251393   2.381   1.457   2.350  0.3232  0.3981  0.0117
 9993TIP3    H151394   2.309   1.456   2.412  0.7730 -0.3215  0.5337
 9993TIP3    H251395   2.341   1.476   2.266 -0.4163  0.4192  0.3703
 9994TIP3   OH251396   6.653   4.022   5.142  0.6203 -0.3091 -0.1209
 9994TIP3    H151397   6.688   3.933   5.141  1.9036  0.1775 -1.2327
 9994TIP3    H251398   6.566   4.014   5.105  1.6282 -0.7933 -2.4995
 9995TIP3   OH251399   6.682   5.417  15.568 -0.8122 -1.1086  0.0732
 9995TIP3    H151400   6.601   5.398  15.520 -0.6145 -0.5918 -0.4624
 9995TIP3    H251401   6.737   5.464  15.505 -0.8002  0.1506  1.0137
 9996TIP3   OH251402   6.558   4.595  12.885  0.0541  0.6375 -0.3912
 9996TIP3    H151403   6.516   4.577  12.800 -0.0159 -0.6625 -0.0865
 9996TIP3    H251404   6.516   4.534  12.945  1.7544 -0.0572  0.1049
 9997TIP3   OH251405   5.774   5.868  11.050  0.2932  0.4233  0.4389
 9997TIP3    H151406   5.696   5.853  10.996  1.1125 -0.7850 -0.4392
 9997TIP3    H251407   5.742   5.867  11.140 -0.7035 -0.1500  0.0850
 9998TIP3   OH251408   4.092   3.380  11.732 -0.6110 -0.3968 -0.1992
 9998TIP3    H151409   4.133   3.428  11.804 -0.6741 -1.4176  0.5237
 9998TIP3    H251410   4.119   3.290  11.745 -1.3714 -0.7356 -0.9350
 9999TIP3   OH251411   3.094   4.465  11.700 -0.0797 -0.2161  0.1328
 9999TIP3    H151412   3.156   4.417  11.754  0.5420 -1.1822 -1.4068
 9999TIP3    H251413   3.011   4.458  11.745  0.2669 -1.6994  0.5397
10000TIP3   OH251414   5.888   2.212  12.591  0.5004  0.5948 -0.4930
10000TIP3    H151415   5.794   2.209  12.569  0.7844  2.2091 -2.1242
10000TIP3    H251416   5.913   2.302  12.571  2.8266 -0.3242 -1.8351
10001TIP3   OH251417   5.925   5.415  15.379  0.2318  0.2936 -0.1723
10001TIP3    H151418   5.853   5.367  15.338  1.2930 -1.5823  0.0917
10001TIP3    H251419   5.952   5.479  15.313  1.5662 -2.3266 -2.2495
10002TIP3   OH251420   3.180   6.348   0.756  0.2700 -0.2295  0.5849
10002TIP3    H151421   3.192   6.423   0.698 -1.3017  0.0120  0.5430
10002TIP3    H251422   3.147   6.278   0.700 -0.4748 -0.2414  1.0198
10003TIP3   OH251423   3.022   3.659  13.786 -0.0228  0.0782 -0.3092
10003TIP3    H151424   3.014   3.746  13.827 -1.7051  0.2911 -1.0630
10003TIP3    H251425   3.065   3.677  13.703  0.9977 -0.0181  0.1881
10004TIP3   OH251426   3.419   5.462   0.296  0.0188  0.5641 -0.5114
10004TIP3    H151427   3.335   5.460   0.342  0.6914 -1.3746  0.6953
10004TIP3    H251428   3.398   5.491   0.208 -2.1423 -1.3729 -0.6565
10005TIP3   OH251429   3.587   3.460  15.692  0.1833 -0.1327  0.0973
10005TIP3    H151430   3.509   3.404  15.690 -0.3429  0.5518  0.7477
10005TIP3    H251431   3.647   3.421  15.629 -0.4733 -0.9903 -0.0057
10006TIP3   OH251432   2.288   4.206   1.845 -0.6674 -0.6225  0.0311
10006TIP3    H151433   2.353   4.185   1.912  0.2752 -0.1052 -0.7059
10006TIP3    H251434   2.331   4.185   1.762 -1.0099  0.8417 -0.5329
10007TIP3   OH251435   4.156   3.394   4.495 -0.5865  0.1738  0.0711
10007TIP3    H151436   4.138   3.473   4.546  1.3008  0.8393 -0.2550
10007TIP3    H251437   4.088   3.393   4.427 -0.6265  1.5046  0.0816
10008TIP3   OH251438   4.049   5.400   2.644 -0.2195  0.4177  0.1877
10008TIP3    H151439   4.028   5.407   2.551 -1.9689 -2.5160  0.2826
10008TIP3    H251440   4.142   5.421   2.649  0.0523 -0.0277 -2.3237
10009TIP3   OH251441   1.806   3.425   4.524  0.4589 -0.2908 -0.5203
10009TIP3    H151442   1.815   3.386   4.611 -0.1182 -0.9398 -0.7447
10009TIP3    H251443   1.852   3.508   4.530  0.0358 -0.1254  0.5478
10010TIP3   OH251444   1.442   0.002  11.345 -0.9743  0.3159 -0.7695
10010TIP3    H151445   1.501  -0.073  11.342  0.3543  1.2215  1.1987
10010TIP3    H251446   1.376  -0.016  11.279  1.6657 -0.6317 -3.2799
10011TIP3   OH251447   2.630   4.980  11.786  0.1804  0.3885  0.1691
10011TIP3    H151448   2.552   5.029  11.812  0.0961  0.2119  0.2461
10011TIP3    H251449   2.703   5.027  11.828 -0.0848 -0.7368  1.9073
10012TIP3   OH251450   0.112   1.823  11.796  0.6679 -0.0905 -0.5817
10012TIP3    H151451   0.098   1.900  11.851 -0.2832  0.6032 -1.7703
10012TIP3    H251452   0.189   1.844  11.743  1.3665 -0.6153  0.1960
10013TIP3   OH251453   5.945   2.359  13.956 -0.2029 -0.5146 -0.0602
10013TIP3    H151454   5.975   2.292  14.018 -0.0555  0.5168  0.9980
10013TIP3    H251455   5.987   2.440  13.985 -0.8366  0.1614 -0.9857
10014TIP3   OH251456   0.184   2.373   2.347 -0.8880  0.0365 -0.1678
10014TIP3    H151457   0.111   2.322   2.311 -1.4846  0.3835  0.5290
10014TIP3    H251458   0.159   2.464   2.330 -1.3486  0.2187  1.4350
10015TIP3   OH251459   0.440   4.354  14.444  0.9374  0.7186  0.0713
10015TIP3    H151460   0.417   4.431  14.393  1.2403  0.9244  0.2439
10015TIP3    H251461   0.508   4.384  14.504 -0.4831  0.8512  1.6576
10016TIP3   OH251462   0.537   4.802   6.183 -0.5015 -0.0056  0.0009
10016TIP3    H151463   0.551   4.834   6.094 -4.2001  0.8482 -0.3635
10016TIP3    H251464   0.481   4.725   6.173 -2.6185  1.2595  1.6549
10017TIP3   OH251465   3.369   4.284   0.097 -0.0978  0.5107 -0.3929
10017TIP3    H151466   3.340   4.195   0.078  0.8320 -0.0863  0.8621
10017TIP3    H251467   3.315   4.312   0.171 -0.9736  1.3153 -1.3300
10018TIP3   OH251468   3.547   1.093  15.347  0.2758 -0.3234 -0.3284
10018TIP3    H151469   3.472   1.116  15.402 -0.2861  0.7087 -1.4879
10018TIP3    H251470   3.623   1.102  15.404 -0.0209  3.5145 -0.4402
10019TIP3   OH251471   0.347   3.223   3.869  0.7344 -0.1070  0.7979
10019TIP3    H151472   0.337   3.128   3.862  0.4964 -0.0355  0.1621
10019TIP3    H251473   0.399   3.247   3.792 -0.7697  0.5182 -0.0380
10020TIP3   OH251474   1.566   6.308  17.236  0.0926  0.2621 -0.0784
10020TIP3    H151475   1.484   6.266  17.260  0.3383  0.5898  1.3667
10020TIP3    H251476   1.542   6.371  17.168 -0.6056 -0.7030 -0.7297
10021TIP3   OH251477   4.256   4.532  16.766 -0.1124 -0.5365  0.1170
10021TIP3    H151478   4.216   4.513  16.681  2.8231 -1.7806 -1.0413
10021TIP3    H251479   4.282   4.623  16.761 -0.1284 -0.5512 -0.2310
10022TIP3   OH251480   5.458   1.216   3.680  0.1565 -0.1094  0.1499
10022TIP3    H151481   5.499   1.294   3.719 -0.0673  1.1995 -2.1195
10022TIP3    H251482   5.365   1.238   3.676 -0.3207 -1.6726  2.0979
10023TIP3   OH251483   3.849   1.561  16.766  0.0906 -0.2917 -0.0510
10023TIP3    H151484   3.792   1.553  16.689 -0.8661  0.0619  0.5954
10023TIP3    H251485   3.809   1.503  16.831 -2.0781  3.1096  1.8495
10024TIP3   OH251486   5.956   5.452  17.190  0.2724  0.8513  0.3077
10024TIP3    H151487   5.983   5.403  17.268 -1.7828 -1.3382 -0.3144
10024TIP3    H251488   6.038   5.491  17.158  1.6893 -0.7904  1.7840
10025TIP3   OH251489   3.354   4.168   6.311 -0.2619  0.2095 -0.8447
10025TIP3    H151490   3.353   4.092   6.253  0.4120  0.2390 -0.9026
10025TIP3    H251491   3.327   4.241   6.256 -0.8207  0.0282 -0.8115
10026TIP3   OH251492   5.585   3.182   1.191  0.1906 -0.6395 -0.0788
10026TIP3    H151493   5.664   3.198   1.242 -0.5025  0.6833  0.6391
10026TIP3    H251494   5.527   3.134   1.251 -1.7773  3.4706  1.5727
10027TIP3   OH251495   4.796   3.743  14.980 -0.4814  0.2033  0.0322
10027TIP3    H151496   4.718   3.688  14.974 -0.5658  0.4067 -0.7586
10027TIP3    H251497   4.764   3.833  14.969 -0.3876  0.4493  1.6542
10028TIP3   OH251498   4.867   2.238   2.287  0.3213  0.0474 -0.1316
10028TIP3    H151499   4.820   2.206   2.211  0.7402  0.8752 -0.7407
10028TIP3    H251500   4.855   2.169   2.353 -1.3668  0.0556 -0.4097
10029TIP3   OH251501   1.207   6.467   5.408 -0.1131 -0.0280 -0.4611
10029TIP3    H151502   1.254   6.543   5.445  1.8652 -1.1478 -0.5846
10029TIP3    H251503   1.120   6.501   5.387 -0.0361  1.6266  1.6460
10030TIP3   OH251504   0.442   4.867  17.019 -0.2604 -0.0821  0.0262
10030TIP3    H151505   0.485   4.939  16.972 -0.8146 -1.2988 -2.4070
10030TIP3    H251506   0.449   4.792  16.960 -0.7359 -1.7505  2.0291
10031TIP3   OH251507   3.704   0.255  13.862 -0.0900  0.2479 -0.0213
10031TIP3    H151508   3.702   0.307  13.942  0.6360  1.1546 -0.5820
10031TIP3    H251509   3.798   0.241  13.845 -0.2345  0.1633 -0.7758
10032TIP3   OH251510   2.890   4.730   4.126 -0.7579  0.2983  0.5357
10032TIP3    H151511   2.932   4.786   4.190  0.1230  0.3217 -0.0607
10032TIP3    H251512   2.884   4.784   4.047  0.8960 -0.7334 -0.3089
10033TIP3   OH251513   6.639   0.362   3.441 -0.1699  0.0553 -0.1331
10033TIP3    H151514   6.682   0.289   3.398 -0.5027 -1.6278  2.2866
10033TIP3    H251515   6.637   0.432   3.375  3.7990 -0.7153 -1.1621
10034TIP3   OH251516   2.693   5.559   4.393 -0.3737  0.1920 -0.0146
10034TIP3    H151517   2.639   5.479   4.390  0.0043 -0.0230 -1.1394
10034TIP3    H251518   2.736   5.562   4.308  2.0312 -0.0554  1.1698
10035TIP3   OH251519   5.215   2.698  12.530  0.0387 -0.1285 -0.4061
10035TIP3    H151520   5.277   2.630  12.504 -0.6507  0.3529 -3.4300
10035TIP3    H251521   5.129   2.656  12.524 -0.1960  0.2388  0.3019
10036TIP3   OH251522   0.566   2.219  17.000  0.4110 -0.6208  0.5107
10036TIP3    H151523   0.560   2.298  16.946  2.8584 -0.9021 -0.2819
10036TIP3    H251524   0.651   2.181  16.976  0.3041 -2.2527  2.5656
10037TIP3   OH251525   6.445   1.152  15.457  0.1233  0.2191 -0.1309
10037TIP3    H151526   6.519   1.092  15.466  0.7368  0.9770 -0.1616
10037TIP3    H251527   6.369   1.100  15.484  0.8489 -0.1182  1.2851
10038TIP3   OH251528   1.497   3.067  14.620  0.2528 -0.9061  0.2081
10038TIP3    H151529   1.460   3.001  14.561 -1.0366  0.6606 -0.7640
10038TIP3    H251530   1.442   3.063  14.698 -1.8505  1.2264 -1.1260
10039TIP3   OH251531   1.997   4.332   3.239 -0.0769 -0.1883  0.0679
10039TIP3    H151532   1.937   4.372   3.176  0.9525  0.1598 -0.7157
10039TIP3    H251533   2.071   4.392   3.243  0.3883 -0.7977  0.7301
10040TIP3   OH251534   1.948   2.454  14.081 -0.6352  0.2971 -0.2061
10040TIP3    H151535   1.885   2.526  14.073 -1.3387 -0.3897 -0.8858
10040TIP3    H251536   1.992   2.452  13.996 -3.9480 -3.1440 -1.9485
10041TIP3   OH251537   3.014   3.063  12.643 -0.7127  0.0514  0.5551
10041TIP3    H151538   2.957   3.042  12.569 -0.7903 -0.2324  0.6941
10041TIP3    H251539   2.967   3.131  12.691 -1.0191 -0.3014  0.7647
10042TIP3   OH251540   1.255   3.417   0.844  0.5334 -0.0254  0.0908
10042TIP3    H151541   1.195   3.401   0.916  1.2000  0.5869  0.7821
10042TIP3    H251542   1.321   3.348   0.852  0.1302 -0.4766 -0.4484
10043TIP3   OH251543   0.515   1.868  12.129  0.1042  0.0142  0.6237
10043TIP3    H151544   0.493   1.786  12.085  0.0210  0.0406  0.6156
10043TIP3    H251545   0.536   1.843  12.219  0.8413 -0.1135  0.4172
10044TIP3   OH251546   5.124   6.769   2.134  0.4867  0.6659 -0.2091
10044TIP3    H151547   5.078   6.851   2.113  0.9531  0.7528 -0.8979
10044TIP3    H251548   5.133   6.725   2.049 -0.2644 -0.3644  0.2397
10045TIP3   OH251549   1.974   5.087   0.475 -0.6190 -0.1255 -0.1847
10045TIP3    H151550   1.991   4.994   0.486  0.5910  0.4027  2.8850
10045TIP3    H251551   2.034   5.115   0.405 -0.2865 -1.4470 -0.4284
10046TIP3   OH251552   4.224   4.065  14.088  0.3263  0.5082  0.0838
10046TIP3    H151553   4.144   4.083  14.137 -0.0070 -0.9187  0.0876
10046TIP3    H251554   4.219   4.124  14.012 -2.6811 -2.3032 -2.0340
10047TIP3   OH251555   3.286   1.079  14.385 -0.6309 -0.1667  0.0204
10047TIP3    H151556   3.322   1.102  14.471  0.6702 -0.8081 -0.3371
10047TIP3    H251557   3.281   1.163  14.338 -0.7277  0.0918  0.4860
10048TIP3   OH251558   0.595   2.581   3.243 -0.7427  0.1607  0.2765
10048TIP3    H151559   0.545   2.628   3.176 -3.0626 -0.4687  1.5228
10048TIP3    H251560   0.535   2.514   3.275  2.0263 -2.7529 -0.4479
10049TIP3   OH251561   5.821   3.526  15.106 -0.6995  0.0032 -0.6818
10049TIP3    H151562   5.795   3.573  15.027 -0.6908 -1.9954 -1.9033
10049TIP3    H251563   5.917   3.532  15.108 -0.7422  0.6122 -0.4617
10050TIP3   OH251564   0.076   1.045   1.253  0.0373  0.2856  0.0437
10050TIP3    H151565   0.130   1.054   1.174  0.2326 -0.2845  0.1112
10050TIP3    H251566   0.107   1.115   1.311  2.3598 -1.5174  1.0351
10051TIP3   OH251567   3.763   4.874  15.533  0.2308  0.5859 -0.4579
10051TIP3    H151568   3.819   4.879  15.456 -0.2900 -0.3359 -0.9122
10051TIP3    H251569   3.729   4.784  15.532 -0.2798  0.7584  0.4881
10052TIP3   OH251570   2.278   3.718  10.655  0.0517  0.2473  0.3232
10052TIP3    H151571   2.261   3.624  10.664  2.3587 -0.1963  0.4352
10052TIP3    H251572   2.320   3.742  10.738 -1.3161  1.5831  0.6487
10053TIP3   OH251573   3.775   2.972  11.290  0.5326 -0.0604 -0.3347
10053TIP3    H151574   3.725   3.013  11.219  0.8521 -1.4957 -1.4113
10053TIP3    H251575   3.719   2.981  11.367 -1.2787 -1.3617 -1.4506
10054TIP3   OH251576   0.647   6.020   3.750 -0.5872  0.3134  0.4956
10054TIP3    H151577   0.730   5.974   3.759 -0.4497 -0.1396 -2.5302
10054TIP3    H251578   0.581   5.952   3.739 -0.8645  0.7219 -0.5075
10055TIP3   OH251579   5.818   5.584  13.462  0.0096  0.0678  0.4236
10055TIP3    H151580   5.787   5.673  13.481  0.0769  0.2455 -0.2794
10055TIP3    H251581   5.892   5.597  13.403  0.1473 -0.4494  0.4841
10056TIP3   OH251582   0.100   2.980  13.767  0.0608  0.1498  0.7032
10056TIP3    H151583   0.152   2.931  13.830  0.4701  1.7966  1.6635
10056TIP3    H251584   0.094   2.922  13.690  4.0745  0.2893  0.2038
10057TIP3   OH251585   6.001   6.269  15.744 -0.1956 -0.3565 -0.0932
10057TIP3    H151586   6.046   6.230  15.819  0.5017 -0.4008 -0.5250
10057TIP3    H251587   6.034   6.358  15.740 -2.1953  0.4840  1.2223
10058TIP3   OH251588   0.631   3.552   4.701  0.0829  0.0154 -0.8330
10058TIP3    H151589   0.676   3.574   4.782  0.8609 -1.0039 -0.9801
10058TIP3    H251590   0.547   3.515   4.730  0.2059 -0.0056 -0.5021
10059TIP3   OH251591   2.770   0.210   2.458 -0.6429 -0.0557  0.4395
10059TIP3    H151592   2.831   0.147   2.420 -0.7690 -0.3392  0.7045
10059TIP3    H251593   2.822   0.259   2.521 -0.4399  0.3968 -0.0725
10060TIP3   OH251594   5.924   3.524  12.069 -0.0706 -0.7454  0.1082
10060TIP3    H151595   5.919   3.601  12.012  2.0995  1.4243  2.6951
10060TIP3    H251596   5.996   3.472  12.032  1.0206  0.4117  0.5568
10061TIP3   OH251597   6.071   5.055  15.891  0.4342  0.4277  0.5797
10061TIP3    H151598   6.043   4.993  15.958  0.4292 -0.1340  0.0648
10061TIP3    H251599   6.161   5.077  15.916  0.9891 -0.9751 -0.0725
10062TIP3   OH251600   0.026   5.702   1.206 -0.6223 -0.4320  0.3600
10062TIP3    H151601  -0.026   5.648   1.146 -1.0155  0.8682 -0.5149
10062TIP3    H251602   0.113   5.663   1.204 -0.7308 -0.6535 -0.7660
10063TIP3   OH251603   0.540   3.950  16.418  0.0669 -0.0515 -0.2330
10063TIP3    H151604   0.565   4.041  16.434  1.7647 -0.5643  0.1081
10063TIP3    H251605   0.617   3.911  16.378 -0.4263 -1.5064  0.2240
10064TIP3   OH251606   4.853   2.458  10.589 -0.0642 -0.9262 -0.6031
10064TIP3    H151607   4.920   2.403  10.630  0.1626 -1.0041 -1.0682
10064TIP3    H251608   4.799   2.397  10.539 -0.6225 -0.8913 -0.0506
10065TIP3   OH251609   4.511   0.185  14.277  0.2465  0.4886 -0.0930
10065TIP3    H151610   4.522   0.279  14.291 -0.2436  0.3358  1.4413
10065TIP3    H251611   4.419   0.174  14.253 -0.3293  0.1671  2.1353
10066TIP3   OH251612   1.620   1.827   0.631 -0.0109 -0.4995  0.0505
10066TIP3    H151613   1.654   1.916   0.617  1.0848 -1.2999 -2.8813
10066TIP3    H251614   1.525   1.837   0.630  0.0870  0.5337 -1.4481
10067TIP3   OH251615   3.019   0.126   0.562  1.2660  0.5660 -0.3759
10067TIP3    H151616   3.035   0.057   0.626 -0.9602 -0.7955 -1.2287
10067TIP3    H251617   3.005   0.205   0.615  1.1605 -0.1980  0.7459
10068TIP3   OH251618   2.001   0.450   2.765  0.1744  0.4252  0.7004
10068TIP3    H151619   2.062   0.505   2.816 -0.8953  3.0058 -0.7315
10068TIP3    H251620   1.933   0.427   2.828 -0.6213  2.7682  0.7515
10069TIP3   OH251621   3.599   1.023   0.013 -0.1542  0.2395 -0.7910
10069TIP3    H151622   3.614   0.929   0.013 -0.3748  0.1809 -2.7171
10069TIP3    H251623   3.645   1.055   0.091  0.0635 -1.4201 -0.2167
10070TIP3   OH251624   2.274   3.482  16.971  0.0676 -0.7935 -0.4746
10070TIP3    H151625   2.310   3.491  17.059  0.8372 -1.4102 -0.7223
10070TIP3    H251626   2.293   3.392  16.946 -0.3345 -0.6852 -1.1906
10071TIP3   OH251627   4.345   4.620   2.182 -0.4509  0.8233  0.0645
10071TIP3    H151628   4.353   4.705   2.226  1.7867  0.1346  1.0477
10071TIP3    H251629   4.283   4.571   2.236  0.7217  0.7073  1.3154
10072TIP3   OH251630   6.557   3.392  12.041  0.8629 -0.2586 -0.3304
10072TIP3    H151631   6.554   3.417  12.133  0.3666 -0.0652 -0.3977
10072TIP3    H251632   6.642   3.348  12.030  1.5628  1.0240 -0.1172
10073TIP3   OH251633   2.102   4.167   3.043 -0.1095  0.0960  0.0193
10073TIP3    H151634   2.095   4.222   3.121 -1.3241  1.2897 -0.9084
10073TIP3    H251635   2.120   4.229   2.972 -2.1802 -0.6203 -1.1543
10074TIP3   OH251636   5.012   5.818   5.157  0.2139 -0.5265  0.1061
10074TIP3    H151637   5.044   5.898   5.198 -2.5660  1.1165 -0.8132
10074TIP3    H251638   5.023   5.832   5.063 -0.1209 -1.2786 -0.0548
10075TIP3   OH251639   6.737   5.047  11.108 -0.2658 -0.4059  0.1300
10075TIP3    H151640   6.782   4.965  11.084 -1.2436 -0.3311 -2.1413
10075TIP3    H251641   6.689   5.071  11.029 -0.6840  1.9222  1.0596
10076TIP3   OH251642   6.193   6.421   6.519  0.4364 -0.5011 -0.3048
10076TIP3    H151643   6.138   6.482   6.569  0.3443  0.6423 -1.7683
10076TIP3    H251644   6.282   6.439   6.551  0.4514  0.6579 -0.9464
10077TIP3   OH251645   0.667   6.546   1.750  0.5128  0.0945 -0.3688
10077TIP3    H151646   0.724   6.499   1.690  0.8223 -0.8751  0.6571
10077TIP3    H251647   0.584   6.498   1.748  1.2957 -1.4068  1.7829
10078TIP3   OH251648   1.469   0.299   4.405  0.2476 -0.2443  0.0794
10078TIP3    H151649   1.429   0.313   4.319  0.4871  1.1966  0.1792
10078TIP3    H251650   1.446   0.209   4.428 -1.3092 -0.0745 -0.7169
10079TIP3   OH251651   6.007   2.733  16.488 -0.0461 -0.1967 -0.0754
10079TIP3    H151652   5.917   2.705  16.500 -0.7386  1.7608 -0.5503
10079TIP3    H251653   6.013   2.817  16.534  1.6796 -0.5826  0.4297
10080TIP3   OH251654   0.278   3.436  11.577 -0.0408  0.3645  0.0761
10080TIP3    H151655   0.328   3.367  11.620 -1.5335 -1.9239 -1.7375
10080TIP3    H251656   0.338   3.511  11.572  2.4117 -1.5781 -0.0695
10081TIP3   OH251657   1.321   3.970  14.673 -0.5687 -0.2263 -0.1243
10081TIP3    H151658   1.256   3.932  14.732 -0.2039 -1.9923 -0.8185
10081TIP3    H251659   1.301   3.931  14.587  1.5407 -0.9931 -0.2995
10082TIP3   OH251660   5.549   2.725  12.808 -0.5305  0.2363 -0.1349
10082TIP3    H151661   5.617   2.689  12.865 -1.2296  2.0408  1.9068
10082TIP3    H251662   5.542   2.817  12.833 -2.3379  0.5742 -1.7114
10083TIP3   OH251663   0.657   6.039   1.219  0.2085 -0.2176  0.1046
10083TIP3    H151664   0.684   6.112   1.275  0.7428  0.0876 -0.5407
10083TIP3    H251665   0.566   6.022   1.244  0.3973 -0.0014  0.9672
10084TIP3   OH251666   1.124   2.306  15.513 -0.1532  0.3082 -0.4452
10084TIP3    H151667   1.064   2.318  15.587  1.2457  0.0373  0.7468
10084TIP3    H251668   1.187   2.377  15.522  1.4117 -1.1132 -0.0039
10085TIP3   OH251669   4.618   1.098   3.367  0.0240  0.1759  0.2565
10085TIP3    H151670   4.621   1.097   3.463 -2.0548  1.4173  0.3754
10085TIP3    H251671   4.604   1.190   3.344  0.1099 -0.1635 -1.2179
10086TIP3   OH251672   5.671   5.384  16.478  0.1586  0.5107 -0.5250
10086TIP3    H151673   5.656   5.349  16.390 -0.4434  2.0864 -1.0622
10086TIP3    H251674   5.698   5.308  16.530  0.7304 -0.3942 -2.1189
10087TIP3   OH251675   0.214   6.602  11.517 -0.0782 -0.2199  0.0298
10087TIP3    H151676   0.267   6.680  11.506  2.4665 -1.8965  0.0037
10087TIP3    H251677   0.176   6.586  11.431  2.1762 -0.9316 -0.8685
10088TIP3   OH251678   0.144   5.737   5.541  0.6685  0.1548  0.3775
10088TIP3    H151679   0.156   5.709   5.450 -1.6581 -2.1296  0.7364
10088TIP3    H251680   0.210   5.687   5.590  0.4295 -0.2832  0.2504
10089TIP3   OH251681   1.943   3.614   4.634 -0.3896 -0.3255 -0.4410
10089TIP3    H151682   1.929   3.705   4.610  0.4354 -0.0406  0.1562
10089TIP3    H251683   1.913   3.608   4.725  1.6171 -0.1270  0.2540
10090TIP3   OH251684   1.048   4.638  14.806  0.0652 -0.7924  0.7630
10090TIP3    H151685   1.086   4.706  14.750  1.0633 -2.3182 -0.4617
10090TIP3    H251686   1.081   4.658  14.894  0.5489  0.1551  0.3684
10091TIP3   OH251687   0.101   3.598   3.006 -0.6320  0.8532 -0.0648
10091TIP3    H151688   0.076   3.529   3.067  2.0168 -1.6079 -1.6523
10091TIP3    H251689   0.050   3.579   2.927 -0.5591  1.2452 -0.2074
10092TIP3   OH251690   2.297   0.084  14.658 -0.2416  0.7037 -0.4991
10092TIP3    H151691   2.374   0.141  14.648  1.0471 -0.8095  0.5055
10092TIP3    H251692   2.330  -0.004  14.641 -2.3943  0.3065 -2.8421
10093TIP3   OH251693   1.820   2.650   1.976 -0.2941  0.2216  0.0057
10093TIP3    H151694   1.804   2.595   2.052  0.8632 -0.4518 -0.2253
10093TIP3    H251695   1.915   2.648   1.964 -0.3336  1.4931 -0.5817
10094TIP3   OH251696   0.436   1.100   4.201 -0.1777 -1.1547 -0.0246
10094TIP3    H151697   0.354   1.147   4.183 -0.5899 -1.4660  1.0017
10094TIP3    H251698   0.414   1.039   4.272  1.2535 -0.3205  1.1921
10095TIP3   OH251699   5.350   5.861   1.777  0.1071  0.3411  0.1531
10095TIP3    H151700   5.283   5.793   1.791 -0.9573  1.3715  0.0975
10095TIP3    H251701   5.412   5.821   1.716 -0.5107 -0.5877  0.1249
10096TIP3   OH251702   0.662   3.649  14.651 -0.1446 -0.1737  0.5735
10096TIP3    H151703   0.739   3.615  14.696  0.6678  0.8270 -0.0352
10096TIP3    H251704   0.627   3.715  14.709  0.2738  0.3555  0.2277
10097TIP3   OH251705   2.537   1.682  14.467  0.0773 -0.1366 -0.6164
10097TIP3    H151706   2.551   1.590  14.490 -0.7955 -0.0282  0.3797
10097TIP3    H251707   2.608   1.728  14.512  0.0553 -0.2359 -0.4769
10098TIP3   OH251708   4.360   3.670   4.224  0.0608 -0.0128  0.0502
10098TIP3    H151709   4.352   3.665   4.319  2.0108 -0.3574  0.2262
10098TIP3    H251710   4.317   3.752   4.200 -1.3542 -0.4274  1.0938
10099TIP3   OH251711   3.961   5.966  14.880 -0.5758  0.6115  0.3108
10099TIP3    H151712   3.996   6.051  14.852  1.0725 -0.3732 -0.6621
10099TIP3    H251713   4.038   5.909  14.887 -1.8788 -1.3752 -1.0717
10100TIP3   OH251714   2.463   0.207   0.453 -0.5035  0.0565 -0.0967
10100TIP3    H151715   2.557   0.211   0.433 -0.6599  0.5251 -0.7429
10100TIP3    H251716   2.452   0.124   0.498  0.2218 -0.0163 -0.0443
10101TIP3   OH251717   0.926   0.389  11.965 -0.0384  0.2569  0.0754
10101TIP3    H151718   0.888   0.426  12.044  1.9546 -0.8411  1.5909
10101TIP3    H251719   0.964   0.464  11.920  0.4469  0.6432  1.1090
10102TIP3   OH251720   4.465   2.081   0.647  0.5388 -0.4985 -0.1096
10102TIP3    H151721   4.394   2.123   0.599  2.0577  3.3273  0.7661
10102TIP3    H251722   4.537   2.075   0.583  0.6703 -0.8553  0.0680
10103TIP3   OH251723   4.750   2.465   3.861 -0.0949 -0.2671  0.0377
10103TIP3    H151724   4.762   2.405   3.787 -1.8638  1.2700 -1.5761
10103TIP3    H251725   4.764   2.552   3.823  0.3620  0.4789  1.8575
10104TIP3   OH251726   4.285   3.506  13.267 -0.5346 -0.2143 -0.2718
10104TIP3    H151727   4.230   3.484  13.192  0.8586 -2.2453 -0.7540
10104TIP3    H251728   4.360   3.446  13.261  1.4352  2.0220  0.7187
10105TIP3   OH251729   3.963   3.493  12.020 -0.2235  0.0043  0.0810
10105TIP3    H151730   3.903   3.478  11.947  0.1047 -1.0530  0.0301
10105TIP3    H251731   4.016   3.413  12.026 -0.2258  0.0907  1.4620
10106TIP3   OH251732   0.148   4.185   1.781  0.2462 -0.4162 -0.0373
10106TIP3    H151733   0.131   4.095   1.809  1.4631 -0.3730  0.8681
10106TIP3    H251734   0.231   4.180   1.733 -0.3794 -0.0049 -1.1865
10107TIP3   OH251735   1.070   1.679  15.588  0.3397 -0.5380  0.2363
10107TIP3    H151736   1.112   1.750  15.637 -1.0937  0.1960  0.4180
10107TIP3    H251737   1.022   1.723  15.518 -0.9382 -1.2947  0.6265
10108TIP3   OH251738   3.336   4.792   0.778  0.4046 -0.2314 -0.5935
10108TIP3    H151739   3.384   4.753   0.851 -1.1653 -1.5002 -0.2257
10108TIP3    H251740   3.249   4.810   0.813  0.1772  0.8072 -1.6479
10109TIP3   OH251741   2.396   6.499   2.393 -0.1542  0.1474 -0.2680
10109TIP3    H151742   2.373   6.591   2.383  1.5227  0.4840 -1.3888
10109TIP3    H251743   2.473   6.499   2.449  0.1485 -0.5274 -0.6718
10110TIP3   OH251744   0.118   0.041  13.082 -0.0086 -0.4260  0.0640
10110TIP3    H151745   0.051   0.057  13.149 -0.6339  0.1021 -0.6765
10110TIP3    H251746   0.088  -0.040  13.039 -0.5072  0.1327 -0.6614
10111TIP3   OH251747   1.094   4.576  13.196 -0.2328 -0.1279  0.4511
10111TIP3    H151748   1.154   4.508  13.165 -0.4603 -0.4956  0.8209
10111TIP3    H251749   1.151   4.642  13.236 -0.1721 -1.1037  2.0006
10112TIP3   OH251750   2.200   6.632  16.146  0.2530 -0.4589 -0.1664
10112TIP3    H151751   2.238   6.634  16.058  1.8747 -2.3493  0.4720
10112TIP3    H251752   2.120   6.580  16.136  1.9879 -3.2468  0.0250
10113TIP3   OH251753   6.553   4.279  13.379  0.0166  0.6015  0.4454
10113TIP3    H151754   6.566   4.371  13.358  3.4516 -0.0839 -0.6800
10113TIP3    H251755   6.575   4.272  13.472  0.5124  0.7678  0.3407
10114TIP3   OH251756   6.335   6.573   3.139 -0.1419  0.0103  0.0608
10114TIP3    H151757   6.399   6.502   3.141 -2.0740 -1.8259 -1.0476
10114TIP3    H251758   6.330   6.605   3.229 -0.6358 -2.5721  0.9860
10115TIP3   OH251759   0.233   6.305   3.755  1.1671  0.8280 -0.0084
10115TIP3    H151760   0.324   6.335   3.760  2.0974 -2.2235  2.0405
10115TIP3    H251761   0.233   6.240   3.685  0.4223  1.2433 -0.4001
10116TIP3   OH251762   5.812   5.191  16.635  0.5369 -0.4433  0.0919
10116TIP3    H151763   5.779   5.222  16.720  1.2184 -0.0658  0.2187
10116TIP3    H251764   5.906   5.183  16.647  0.5380 -1.1812 -0.3869
10117TIP3   OH251765   6.101   0.518   4.436  0.7358  0.1952 -0.0272
10117TIP3    H151766   6.050   0.464   4.376 -1.8182 -0.9255  3.0349
10117TIP3    H251767   6.191   0.488   4.425  0.1095 -0.9392 -2.2592
10118TIP3   OH251768   4.474   1.187   4.394 -0.3730 -0.1811  0.3815
10118TIP3    H151769   4.418   1.222   4.463 -0.7041  2.1315 -0.9789
10118TIP3    H251770   4.465   1.092   4.401 -3.4411  0.1056  1.0359
10119TIP3   OH251771   5.857   0.762  12.492  0.3386 -0.5151  0.7134
10119TIP3    H151772   5.813   0.742  12.409  0.4545  0.0241  0.5235
10119TIP3    H251773   5.930   0.818  12.468  1.7498 -2.2087  0.9138
10120TIP3   OH251774   0.562   0.920   2.251  0.0077 -0.0733  0.3146
10120TIP3    H151775   0.613   0.985   2.299  1.4146 -1.8963  1.3469
10120TIP3    H251776   0.615   0.900   2.175 -0.2402 -0.3157  0.2055
10121TIP3   OH251777   4.639   2.115  14.981 -0.0467 -0.5159 -0.3487
10121TIP3    H151778   4.562   2.099  15.035  0.0488 -1.4683 -0.4873
10121TIP3    H251779   4.705   2.055  15.016  0.9952  1.0793  0.5163
10122TIP3   OH251780   2.174   4.144  12.815 -0.5199 -0.9334  0.2663
10122TIP3    H151781   2.113   4.212  12.844 -0.5427 -1.0117  0.4001
10122TIP3    H251782   2.191   4.092  12.894 -1.1700 -1.6035 -0.0319
10123TIP3   OH251783   4.060   3.585  14.884  0.0999 -0.1103  0.4166
10123TIP3    H151784   4.074   3.638  14.805  1.6998 -0.4141  0.4732
10123TIP3    H251785   4.086   3.643  14.956 -1.4929  0.2162  0.7557
10124TIP3   OH251786   5.764   3.159  14.977 -0.7094 -0.3726 -0.0494
10124TIP3    H151787   5.683   3.153  14.927  0.8666 -1.8012 -2.4766
10124TIP3    H251788   5.826   3.105  14.930  1.8225  1.0682  1.5151
10125TIP3   OH251789   6.203   4.956  12.058  0.2013 -0.4046 -0.1164
10125TIP3    H151790   6.195   4.861  12.060 -2.2453 -0.2091  1.0604
10125TIP3    H251791   6.164   4.982  11.974  0.0833 -0.3738 -0.0527
10126TIP3   OH251792   1.419   5.106   6.027  0.2179  0.0795 -0.2367
10126TIP3    H151793   1.495   5.152   5.992  0.2287 -0.7649 -1.3511
10126TIP3    H251794   1.435   5.100   6.121  0.9239  1.0078 -0.2904
10127TIP3   OH251795   1.080   1.310  13.901 -0.3699  0.0672 -0.1082
10127TIP3    H151796   1.129   1.231  13.879 -0.7194 -1.0217  2.8550
10127TIP3    H251797   1.137   1.359  13.960 -2.1339 -0.4020  2.0345
10128TIP3   OH251798   1.700   1.406   1.283 -0.4516  0.1112 -0.6190
10128TIP3    H151799   1.746   1.326   1.260 -0.0120  0.6733 -1.6906
10128TIP3    H251800   1.609   1.389   1.260 -0.1194  0.4457 -2.2403
10129TIP3   OH251801   2.333   1.042  17.192 -0.1009  0.1108 -1.2243
10129TIP3    H151802   2.332   1.086  17.107  0.4372 -1.1376 -1.8981
10129TIP3    H251803   2.420   1.001  17.196 -1.0270 -1.8686 -1.1361
10130TIP3   OH251804   5.328   2.101   0.139  1.0322 -0.7946  0.2362
10130TIP3    H151805   5.347   2.111   0.232  0.3909 -0.0793  0.2920
10130TIP3    H251806   5.233   2.113   0.132  1.2101  0.1761 -0.6346
10131TIP3   OH251807   6.004   4.472  12.766 -0.5111  0.1430 -0.2281
10131TIP3    H151808   5.933   4.431  12.815  0.2532 -0.3550  0.4853
10131TIP3    H251809   5.980   4.565  12.763  0.1335  0.4545  2.4441
10132TIP3   OH251810   3.382   0.614  15.026 -0.3729  0.0985 -0.2267
10132TIP3    H151811   3.413   0.655  15.107  0.1456 -0.5241 -0.1138
10132TIP3    H251812   3.444   0.543  15.009 -0.4133  0.2936 -1.2309
10133TIP3   OH251813   3.716   2.693   1.897 -0.2867 -0.0714 -0.1996
10133TIP3    H151814   3.711   2.775   1.947  0.9461  0.0695 -0.2992
10133TIP3    H251815   3.804   2.660   1.913 -0.6830 -1.2512 -0.3847
10134TIP3   OH251816   6.205   3.339  13.073  0.5253 -0.4642  0.0411
10134TIP3    H151817   6.241   3.373  12.991 -0.0890  0.7536  0.2577
10134TIP3    H251818   6.255   3.260  13.091  2.3480  0.6075 -0.2253
10135TIP3   OH251819   3.459   5.007   1.811 -0.0393 -0.0467 -0.5529
10135TIP3    H151820   3.472   4.926   1.861  2.0627  1.1759  0.9702
10135TIP3    H251821   3.370   5.034   1.830  0.6312  0.2420  2.3550
10136TIP3   OH251822   0.913   4.780  14.330 -0.4606 -0.7981  0.4642
10136TIP3    H151823   0.985   4.745  14.383 -0.0728  0.7064  0.9448
10136TIP3    H251824   0.955   4.835  14.265 -1.1001 -0.8994 -0.0420
10137TIP3   OH251825   3.857   4.586   5.791  0.2679  0.2164 -0.3032
10137TIP3    H151826   3.891   4.600   5.702 -2.7023 -1.4458 -1.7606
10137TIP3    H251827   3.770   4.624   5.790  0.7510  1.5001  2.4062
10138TIP3   OH251828   2.101   2.643  10.413 -0.0686 -0.2625  0.1728
10138TIP3    H151829   2.075   2.695  10.490  1.4353  0.8979 -0.0742
10138TIP3    H251830   2.181   2.598  10.441  0.6663  0.4138 -0.8030
10139TIP3   OH251831   4.026   0.245   3.445  0.1715  0.5218  0.0405
10139TIP3    H151832   3.998   0.280   3.360 -0.3337  0.3727  0.1416
10139TIP3    H251833   3.945   0.240   3.496  0.4163  0.2537  0.4023
10140TIP3   OH251834   3.406   5.595  16.362  0.8099 -0.7556  0.0313
10140TIP3    H151835   3.390   5.675  16.412 -0.0656 -1.1410  0.3907
10140TIP3    H251836   3.427   5.625  16.274  1.4711 -0.1007  0.4100
10141TIP3   OH251837   2.197   5.143  13.068 -0.2439  0.4091 -0.6636
10141TIP3    H151838   2.205   5.096  12.985  1.6031  1.0260 -0.8623
10141TIP3    H251839   2.285   5.140  13.105 -1.0264  0.2678  1.2115
10142TIP3   OH251840   0.951   2.888  11.408  0.1839  0.1992  0.6147
10142TIP3    H151841   0.855   2.896  11.406  0.1632  0.4561  2.0451
10142TIP3    H251842   0.982   2.960  11.354 -0.4931 -2.0390 -2.9590
10143TIP3   OH251843   3.893   5.843  16.912  0.1479  0.6401 -0.2357
10143TIP3    H151844   3.822   5.904  16.930  0.8710  1.4023  0.0662
10143TIP3    H251845   3.932   5.826  16.997  1.1942  1.3071 -0.5725
10144TIP3   OH251846   1.542   0.039  15.702  0.0310 -0.0101  0.0769
10144TIP3    H151847   1.464   0.026  15.649 -0.0004 -1.2828  0.4285
10144TIP3    H251848   1.600   0.091  15.647 -0.5962 -0.0362 -0.6165
10145TIP3   OH251849   2.856   0.086   3.028 -0.1490  0.5071  0.4639
10145TIP3    H151850   2.839   0.174   3.063 -1.6082 -0.6659  2.8620
10145TIP3    H251851   2.770   0.055   3.000  0.0518 -0.8313  1.2938
10146TIP3   OH251852   4.551   2.647   2.726  0.2238 -0.3056  0.1441
10146TIP3    H151853   4.594   2.561   2.719 -0.1851 -0.4124 -1.4379
10146TIP3    H251854   4.470   2.629   2.774  0.0002 -0.8823 -0.4256
10147TIP3   OH251855   5.245   2.365   2.003  0.0041 -0.2262 -0.1683
10147TIP3    H151856   5.184   2.364   2.076  1.1505  2.6412  0.8881
10147TIP3    H251857   5.307   2.295   2.022  0.2858  0.4967  1.5842
10148TIP3   OH251858   5.053   3.605  13.960 -0.3951 -0.1332 -0.4270
10148TIP3    H151859   5.092   3.553  13.889 -1.1540  0.3395 -1.2065
10148TIP3    H251860   5.106   3.585  14.037  1.4197  0.5312 -1.4789
10149TIP3   OH251861   4.890   5.470  16.943 -0.2828  0.1355  0.2941
10149TIP3    H151862   4.888   5.415  16.865 -1.9561  0.7375 -0.1179
10149TIP3    H251863   4.868   5.558  16.911  2.0425  0.9961  0.9859
10150TIP3   OH251864   4.054   3.972   1.277 -0.2354 -0.9357 -0.3713
10150TIP3    H151865   4.046   3.940   1.367 -0.7349  0.5547  0.1316
10150TIP3    H251866   3.973   4.019   1.261  1.4059  2.0620 -0.2614
10151TIP3   OH251867   0.964   4.835  12.739  0.7719 -0.1314  0.0516
10151TIP3    H151868   0.962   4.874  12.827  0.6756 -0.6750  0.2890
10151TIP3    H251869   0.937   4.744  12.752 -0.0711  0.0065 -0.6547
10152TIP3   OH251870   1.002   4.436  16.800 -0.1096 -0.6042 -0.0630
10152TIP3    H151871   1.015   4.388  16.719  2.5294  0.8276 -0.5465
10152TIP3    H251872   0.990   4.527  16.773 -0.0680 -0.2431  1.0937
10153TIP3   OH251873   6.737   6.247   3.796  0.1290  0.2258 -0.5713
10153TIP3    H151874   6.807   6.228   3.732  1.0312 -1.8863  0.9827
10153TIP3    H251875   6.673   6.177   3.783 -0.3489  0.5753 -0.1014
10154TIP3   OH251876   4.046   5.248   0.827  0.5095  0.0899 -0.3072
10154TIP3    H151877   4.029   5.334   0.866 -1.9875  0.7164 -2.6265
10154TIP3    H251878   3.960   5.205   0.827  1.0152 -0.9698 -2.5097
10155TIP3   OH251879   5.143   2.424   1.113 -0.0956 -0.2606  1.0698
10155TIP3    H151880   5.050   2.427   1.137 -0.9411 -2.1462 -1.6574
10155TIP3    H251881   5.153   2.494   1.049  0.0308 -0.8786  0.4049
10156TIP3   OH251882   3.546   2.142   0.628  0.3172 -0.4064 -0.1732
10156TIP3    H151883   3.566   2.063   0.578 -0.5212 -1.8212  1.6538
10156TIP3    H251884   3.590   2.129   0.712  0.3892  1.2039  0.0484
10157TIP3   OH251885   5.225   1.342   3.651 -0.1103 -0.0761  0.4004
10157TIP3    H151886   5.221   1.422   3.598  2.2310 -0.0718  0.1705
10157TIP3    H251887   5.186   1.275   3.595 -0.8813  0.6435  0.0653
10158TIP3   OH251888   1.358   2.481  10.910  0.0120 -0.0354  0.8388
10158TIP3    H151889   1.269   2.500  10.939 -0.4682 -2.0857  0.7657
10158TIP3    H251890   1.409   2.556  10.940 -1.9255  1.7169 -0.1214
10159TIP3   OH251891   0.340   5.477  10.944  0.1828 -0.7092 -0.3918
10159TIP3    H151892   0.427   5.507  10.916  0.0127  0.9240  0.7794
10159TIP3    H251893   0.291   5.466  10.863  1.1831 -0.7239 -1.0040
10160TIP3   OH251894   3.454   1.736  14.743 -0.2836  0.1373 -0.2670
10160TIP3    H151895   3.525   1.721  14.806  1.7042 -1.4941 -2.7947
10160TIP3    H251896   3.471   1.824  14.708 -0.2596  0.2581  0.0419
10161TIP3   OH251897   3.618   5.512  12.995  0.5706  0.0254  0.1250
10161TIP3    H151898   3.600   5.419  12.978 -0.9621  0.4911 -0.9406
10161TIP3    H251899   3.532   5.550  13.012  0.9378  1.6342 -1.4011
10162TIP3   OH251900   5.401   1.006   3.495 -0.1825 -0.0172  0.1422
10162TIP3    H151901   5.457   0.937   3.533  0.4909 -0.0181 -0.8251
10162TIP3    H251902   5.424   1.085   3.544  1.0693  0.0932 -0.5960
10163TIP3   OH251903   3.628   2.986  13.457 -0.0539  0.0847  0.0097
10163TIP3    H151904   3.668   3.073  13.454 -1.1347  0.6392  1.0258
10163TIP3    H251905   3.535   3.004  13.475 -0.7061 -1.1780 -1.9155
10164TIP3   OH251906   6.489   3.329  17.075  0.1022 -0.4057 -0.7846
10164TIP3    H151907   6.467   3.419  17.054 -2.7096 -1.2671 -1.8821
10164TIP3    H251908   6.563   3.335  17.135  0.5459  2.5713 -1.5552
10165TIP3   OH251909   3.508   5.463  11.847 -0.4695 -0.0928  0.1200
10165TIP3    H151910   3.441   5.449  11.913 -2.5722  1.6151 -1.5716
10165TIP3    H251911   3.570   5.524  11.886 -1.1066  0.0534  0.8947
10166TIP3   OH251912   4.101   3.001  12.147 -0.3157  0.4164 -0.0419
10166TIP3    H151913   4.038   2.953  12.201 -1.3106  1.7803  0.0491
10166TIP3    H251914   4.174   2.940  12.134 -1.4575 -1.0256  0.2268
10167TIP3   OH251915   4.580   4.996  12.743 -0.0720 -0.0190  0.8077
10167TIP3    H151916   4.657   4.986  12.798 -0.8053  0.7766  2.0117
10167TIP3    H251917   4.575   5.090  12.724 -1.2129  0.0614  1.4438
10168TIP3   OH251918   4.851   6.618   5.208  0.3961  0.1111  0.1028
10168TIP3    H151919   4.819   6.594   5.295  0.8979  0.4367  0.3794
10168TIP3    H251920   4.863   6.535   5.163  0.0692 -0.0549  0.3245
10169TIP3   OH251921   5.465   3.908  13.291 -0.5813 -0.3081  0.0614
10169TIP3    H151922   5.497   3.986  13.247  1.0003 -1.0048 -0.0878
10169TIP3    H251923   5.448   3.846  13.220 -1.7314 -0.1375  0.1837
10170TIP3   OH251924   3.935   5.272   5.142  0.1198 -0.7082  0.0061
10170TIP3    H151925   3.924   5.209   5.213 -0.3370 -1.2415 -0.5318
10170TIP3    H251926   3.861   5.255   5.084 -0.5259  0.9470  0.3272
10171TIP3   OH251927   1.209   2.157   1.676 -0.2486  0.2769  0.0858
10171TIP3    H151928   1.161   2.234   1.708  0.0464  0.2788  0.5418
10171TIP3    H251929   1.236   2.112   1.756 -0.3718 -0.2712 -0.1845
10172TIP3   OH251930   5.500   6.283   5.016  0.4636 -0.0554 -0.8030
10172TIP3    H151931   5.424   6.226   5.031 -0.1010  0.5905 -1.1883
10172TIP3    H251932   5.515   6.326   5.100  0.4995 -0.3082 -0.6818
10173TIP3   OH251933   1.053   6.066   5.918  0.0418 -0.3086 -0.2318
10173TIP3    H151934   1.012   6.016   5.989 -1.4315  2.4107  0.8754
10173TIP3    H251935   1.006   6.038   5.840  0.2605 -1.7735  0.1422
10174TIP3   OH251936   2.349   5.884  13.843  0.1959  0.5290 -0.3803
10174TIP3    H151937   2.391   5.959  13.801  0.9450  0.8235  0.8696
10174TIP3    H251938   2.301   5.841  13.772  0.5112  1.6573 -1.2990
10175TIP3   OH251939   1.977   3.607   2.371 -0.1282  0.0021  0.6267
10175TIP3    H151940   1.970   3.523   2.325  0.2245  0.1610  0.2753
10175TIP3    H251941   1.887   3.629   2.394 -0.2402 -0.3947  0.5737
10176TIP3   OH251942   1.477   2.539   4.361  0.0252 -0.1607  0.3482
10176TIP3    H151943   1.559   2.565   4.404 -0.1637  2.0019 -0.5145
10176TIP3    H251944   1.410   2.593   4.404 -0.8755 -1.5509  0.7074
10177TIP3   OH251945   2.238   5.110   6.311 -1.0238  0.5402  0.0146
10177TIP3    H151946   2.302   5.181   6.320  1.1602 -1.1875 -1.2592
10177TIP3    H251947   2.172   5.145   6.252 -0.1898  1.6979 -0.2576
10178TIP3   OH251948   2.528   5.001  15.494 -0.0446 -0.2644 -0.1624
10178TIP3    H151949   2.590   5.023  15.425 -0.2105 -2.7881 -1.1804
10178TIP3    H251950   2.579   4.949  15.556 -0.5168 -0.1693  0.3069
10179TIP3   OH251951   2.778   0.829  15.503 -0.5573  0.0146  0.3126
10179TIP3    H151952   2.749   0.756  15.448  1.9118  0.7289 -2.0364
10179TIP3    H251953   2.698   0.863  15.541 -2.1746 -1.5896 -1.5288
10180TIP3   OH251954   4.548   3.561  16.298 -0.0435 -0.2456 -0.5590
10180TIP3    H151955   4.623   3.576  16.357 -1.9190  1.5672  1.4677
10180TIP3    H251956   4.547   3.638  16.241 -1.4698  0.7287  0.7224
10181TIP3   OH251957   3.413   5.551   0.595  0.3935 -0.0506  0.4579
10181TIP3    H151958   3.472   5.521   0.526 -0.9960  1.4033 -1.3990
10181TIP3    H251959   3.337   5.493   0.589 -0.6201  1.3678 -0.6045
10182TIP3   OH251960   2.583   6.139   5.225 -0.4464 -0.0399  0.2099
10182TIP3    H151961   2.551   6.138   5.316  0.1101 -0.9724  0.4050
10182TIP3    H251962   2.628   6.055   5.215  0.8503  0.7129 -0.4440
10183TIP3   OH251963   4.002   5.909  14.568 -0.4635 -0.2972 -0.0936
10183TIP3    H151964   4.075   5.962  14.537  1.4239 -1.2338  2.6485
10183TIP3    H251965   3.980   5.852  14.493  0.9286  0.6761 -1.2601
10184TIP3   OH251966   5.507   3.072  11.456 -0.4743  0.3942  0.2552
10184TIP3    H151967   5.548   3.128  11.522 -0.8484  0.2557  0.6070
10184TIP3    H251968   5.478   3.132  11.388 -0.2166  0.5524  0.2820
10185TIP3   OH251969   1.480   6.395   5.336 -0.2567  0.2826  0.1551
10185TIP3    H151970   1.394   6.374   5.373  0.3619  1.0379  2.0933
10185TIP3    H251971   1.468   6.480   5.294 -0.1021  1.1482  1.8059
10186TIP3   OH251972   0.813   1.518   5.505  0.0637 -0.3883  0.0208
10186TIP3    H151973   0.908   1.507   5.499  0.1585 -0.1065  0.9418
10186TIP3    H251974   0.798   1.558   5.591 -0.9341 -0.9946  0.1482
10187TIP3   OH251975   3.535   0.637   2.959 -0.2217 -0.1198 -0.2250
10187TIP3    H151976   3.447   0.598   2.963 -1.4910  2.6070 -0.4434
10187TIP3    H251977   3.558   0.633   2.866 -0.0969 -0.9032 -0.1589
10188TIP3   OH251978   5.555   6.648  13.085  0.0591 -0.1705  0.4139
10188TIP3    H151979   5.514   6.727  13.120  1.1314  0.4903  0.1971
10188TIP3    H251980   5.481   6.592  13.060 -0.7095  0.5649  0.9989
10189TIP3   OH251981   1.733   2.936  11.096 -0.2813 -0.1811 -0.3941
10189TIP3    H151982   1.735   3.006  11.161 -0.1242 -1.2140  0.7249
10189TIP3    H251983   1.671   2.967  11.030 -0.1407  1.0482  0.0408
10190TIP3   OH251984   1.540   6.036  13.017  0.5385  0.0895 -0.1383
10190TIP3    H151985   1.625   6.058  12.979 -1.2208  3.0412 -2.6355
10190TIP3    H251986   1.532   6.094  13.092 -0.4146  1.9339 -1.6090
10191TIP3   OH251987   6.692   3.831   5.899  0.1586  0.0311  0.0985
10191TIP3    H151988   6.691   3.864   5.989 -0.6655  2.2931 -0.7092
10191TIP3    H251989   6.783   3.804   5.885  0.0253 -1.5649  2.0010
10192TIP3   OH251990   0.723   0.564  14.602 -0.4192 -0.3669  0.2999
10192TIP3    H151991   0.756   0.651  14.623  1.6681 -1.4853  1.9498
10192TIP3    H251992   0.667   0.541  14.676  0.7154 -1.2242  0.9159
10193TIP3   OH251993   2.977   4.182  13.794 -0.6236 -0.3989  0.3975
10193TIP3    H151994   3.010   4.238  13.865  0.3984  0.7463 -0.9485
10193TIP3    H251995   2.894   4.221  13.769 -0.5971 -0.3236  0.4263
10194TIP3   OH251996   1.976   4.027   2.450  0.4932 -0.2592  0.4373
10194TIP3    H151997   1.929   4.068   2.377  0.4602 -2.5354 -0.8808
10194TIP3    H251998   1.908   3.981   2.500  0.7783 -0.3324  0.7602
10195TIP3   OH251999   3.731   2.112   4.104  0.6175  0.4068 -0.5599
10195TIP3    H152000   3.693   2.091   4.189 -2.7804 -1.0968 -2.3345
10195TIP3    H252001   3.708   2.204   4.089  1.0534  0.6151  0.0403
10196TIP3   OH252002   6.334   1.737  12.616 -0.9312 -0.0481 -0.3797
10196TIP3    H152003   6.250   1.761  12.656 -0.1544  1.3363  0.4633
10196TIP3    H252004   6.399   1.784  12.667  0.3241 -0.6192 -1.4253
10197TIP3   OH252005   4.022   3.924  13.750  0.5378  0.3149 -0.3089
10197TIP3    H152006   4.047   3.969  13.669 -1.1523 -0.3613 -1.2250
10197TIP3    H252007   4.009   3.833  13.724  0.4892 -0.0140  0.8365
10198TIP3   OH252008   1.136   2.548   5.928  0.3842  0.1139  0.4440
10198TIP3    H152009   1.114   2.640   5.910 -0.6992  0.0408  1.3538
10198TIP3    H252010   1.109   2.534   6.018  0.2807 -1.1892  0.2182
10199TIP3   OH252011   3.991   3.513  12.708  0.0178 -0.4193 -0.2923
10199TIP3    H152012   3.910   3.510  12.758  0.6153 -0.2854  0.6819
10199TIP3    H252013   4.027   3.424  12.715  0.5465 -0.1645  0.2539
10200TIP3   OH252014   3.224   3.142  13.057  0.1975  0.2113  0.8490
10200TIP3    H152015   3.286   3.215  13.048 -0.7058  0.7487 -1.2904
10200TIP3    H252016   3.277   3.071  13.094  1.9239  0.8839 -0.2400
10201TIP3   OH252017   5.116   4.782   5.898 -0.1348 -0.1819 -0.1119
10201TIP3    H152018   5.182   4.791   5.967 -0.8617  0.9743  0.4409
10201TIP3    H252019   5.118   4.866   5.852 -0.6807 -0.4220 -0.5800
10202TIP3   OH252020   4.695   2.046  15.489 -0.0784  0.4746  0.0577
10202TIP3    H152021   4.622   2.106  15.503 -0.0349  0.5131  0.1226
10202TIP3    H252022   4.656   1.959  15.487 -0.0647  0.4574  0.5635
10203TIP3   OH252023   5.913   6.468   2.632 -0.1317 -0.2068 -0.0183
10203TIP3    H152024   5.891   6.561   2.640 -0.7743 -0.4694  1.5370
10203TIP3    H252025   5.993   6.458   2.684  0.2902 -0.4019 -0.7048
10204TIP3   OH252026   5.487   2.330   2.622  0.3268 -0.2174  0.1248
10204TIP3    H152027   5.504   2.261   2.687 -0.1665 -0.0201  0.4676
10204TIP3    H252028   5.513   2.411   2.665 -0.4980 -0.0262  0.2754
10205TIP3   OH252029   0.199   2.865  15.025 -0.1593 -0.0382  0.2055
10205TIP3    H152030   0.292   2.848  15.041  0.2128  1.6243 -0.1003
10205TIP3    H252031   0.198   2.917  14.945 -1.4610 -1.2592 -0.5860
10206TIP3   OH252032   4.524   1.113   5.092 -0.1436  0.2645  0.1689
10206TIP3    H152033   4.479   1.110   5.008 -1.5892 -0.4358  0.9501
10206TIP3    H252034   4.604   1.162   5.075  0.9988 -2.3403 -2.2802
10207TIP3   OH252035   5.435   5.390  17.135  0.3532 -0.5489 -0.2625
10207TIP3    H152036   5.466   5.447  17.065  0.6635  0.7067  0.8829
10207TIP3    H252037   5.509   5.333  17.154 -0.0730 -1.5804 -1.6453
10208TIP3   OH252038   5.253   3.555  16.325 -0.0680  0.4464  0.1789
10208TIP3    H152039   5.306   3.631  16.350 -0.5514  0.5955  0.7619
10208TIP3    H252040   5.164   3.579  16.348 -0.1844 -0.4234  0.6854
10209TIP3   OH252041   4.138   1.868   0.929 -0.0060 -0.1536 -0.0213
10209TIP3    H152042   4.172   1.783   0.957 -0.9806 -0.4999  0.1224
10209TIP3    H252043   4.160   1.927   1.001  3.5187  0.4511 -1.4667
10210TIP3   OH252044   3.920   2.003  12.291  0.3944 -0.1519  0.4871
10210TIP3    H152045   4.005   1.959  12.298 -0.7093 -2.6556 -0.9535
10210TIP3    H252046   3.909   2.020  12.198  0.4146  2.5120  0.9402
10211TIP3   OH252047   4.551   6.093   1.576 -0.1432 -0.4137 -0.1744
10211TIP3    H152048   4.537   6.187   1.567  0.9873 -0.3603 -1.4726
10211TIP3    H252049   4.631   6.086   1.628 -0.0840 -0.6518 -0.2971
10212TIP3   OH252050   2.300   2.088   5.475  0.5167 -0.4699  0.1114
10212TIP3    H152051   2.351   2.046   5.407 -1.1389  1.0381 -2.1541
10212TIP3    H252052   2.240   2.020   5.506  0.9307 -1.0249 -0.3025
10213TIP3   OH252053   0.255   5.316   5.234 -0.2086  0.9234 -0.1339
10213TIP3    H152054   0.340   5.308   5.190 -0.1443  1.4469 -0.1024
10213TIP3    H252055   0.196   5.261   5.182  0.0988  0.7440 -0.2919
10214TIP3   OH252056   5.135   1.157  16.904  0.3276  0.3389 -0.0233
10214TIP3    H152057   5.173   1.244  16.899 -2.0097  1.2713 -2.1372
10214TIP3    H252058   5.065   1.165  16.969  0.7016 -0.1930  0.4467
10215TIP3   OH252059   4.695   5.955  13.825 -0.2719  0.0923  0.5421
10215TIP3    H152060   4.650   5.971  13.742  0.2641  1.5113  0.4954
10215TIP3    H252061   4.786   5.938  13.800 -0.6830 -2.4246  0.6516
10216TIP3   OH252062   4.755   5.775  16.185 -0.3347  0.3800  0.3699
10216TIP3    H152063   4.698   5.741  16.117 -0.2134  0.5224  0.1956
10216TIP3    H252064   4.695   5.807  16.252 -0.4781  1.1073 -0.0977
10217TIP3   OH252065   1.120   0.621  11.986 -0.2590  0.1672  0.6474
10217TIP3    H152066   1.168   0.618  12.068 -1.8854 -1.5049  1.5506
10217TIP3    H252067   1.064   0.699  11.993  1.0527  1.1704  0.2647
10218TIP3   OH252068   1.779   3.184   1.056 -0.3703  0.2822  0.0507
10218TIP3    H152069   1.754   3.276   1.045  1.7430  0.7676 -0.7016
10218TIP3    H252070   1.777   3.147   0.968 -2.7054 -0.8281  0.5129
10219TIP3   OH252071   3.025   5.712   1.359  0.1602 -0.4011  0.0084
10219TIP3    H152072   3.074   5.787   1.326 -0.5407  0.8960  1.8913
10219TIP3    H252073   2.946   5.749   1.397 -0.4534 -2.1435  0.4792
10220TIP3   OH252074   2.944   5.439   4.805 -0.1677  0.0286 -0.2543
10220TIP3    H152075   2.882   5.482   4.864 -1.3412 -1.3827 -0.4199
10220TIP3    H252076   2.931   5.483   4.720 -0.3512  0.2869 -0.0913
10221TIP3   OH252077   1.750   1.773   4.271  0.0644 -0.2719  0.6144
10221TIP3    H152078   1.718   1.691   4.234 -2.3302  0.6181  0.6819
10221TIP3    H252079   1.727   1.769   4.364 -2.1761  1.4651  0.1645
10222TIP3   OH252080   6.520   0.262  11.979 -0.2818  0.8779 -0.2852
10222TIP3    H152081   6.582   0.290  11.912  3.0233 -0.4498  2.0718
10222TIP3    H252082   6.527   0.330  12.047 -1.4334  0.7309 -0.0220
10223TIP3   OH252083   2.865   1.516  16.968 -0.3222 -0.4418  0.2539
10223TIP3    H152084   2.911   1.519  16.884 -0.0816  0.4498  0.4025
10223TIP3    H252085   2.782   1.560  16.952  0.1020  0.5423  0.6969
10224TIP3   OH252086   5.166   5.297   4.150 -0.2328 -0.3356  0.0787
10224TIP3    H152087   5.226   5.232   4.186  1.2858 -0.1525 -2.0717
10224TIP3    H252088   5.095   5.245   4.111  0.0613 -0.6442 -0.0467
10225TIP3   OH252089   6.630   2.149   1.457  0.1060 -0.0655 -0.2788
10225TIP3    H152090   6.629   2.114   1.547  1.7141  0.7599  0.0876
10225TIP3    H252091   6.566   2.220   1.458  0.6456  0.4236  0.4417
10226TIP3   OH252092   4.286   0.761   0.842 -0.4091  0.1146  0.4159
10226TIP3    H152093   4.370   0.716   0.832 -0.0425  0.5727  1.4082
10226TIP3    H252094   4.254   0.772   0.752  0.2185 -0.7621  0.0820
10227TIP3   OH252095   1.690   4.277   4.943 -0.1100  0.0042 -0.2790
10227TIP3    H152096   1.667   4.312   5.029  1.1974 -0.5954  0.3266
10227TIP3    H252097   1.645   4.192   4.938 -1.8671  0.9468 -1.0467
10228TIP3   OH252098   0.198   5.639   3.202  0.5798  0.2601 -0.9183
10228TIP3    H152099   0.227   5.555   3.238 -2.2227 -0.8379 -1.0907
10228TIP3    H252100   0.258   5.703   3.239  0.8699 -1.4594  1.6745
10229TIP3   OH252101   1.581   6.162   2.464 -0.0730 -0.0273 -0.7533
10229TIP3    H152102   1.589   6.250   2.427  1.9278  0.0817 -0.1239
10229TIP3    H252103   1.671   6.132   2.474 -0.6580 -1.1770  1.3619
10230TIP3   OH252104   1.654   4.226   0.447 -0.3766  0.0750  0.2784
10230TIP3    H152105   1.628   4.244   0.357 -0.0960  1.7541  0.5156
10230TIP3    H252106   1.750   4.220   0.443 -0.1748  2.4550  0.8255
10231TIP3   OH252107   6.305   3.594  16.334  0.9649  0.3997  0.1864
10231TIP3    H152108   6.209   3.591  16.332  0.9188  0.7728  1.5273
10231TIP3    H252109   6.331   3.562  16.248 -0.3838  1.2012 -0.5371
10232TIP3   OH252110   6.766   2.734  13.268  0.5515  0.1527  0.7313
10232TIP3    H152111   6.789   2.820  13.233 -0.7366  0.0513 -0.3796
10232TIP3    H252112   6.811   2.672  13.211 -0.8121  0.0173 -0.2234
10233TIP3   OH252113   2.027   3.924  16.077  0.0197  0.5511 -0.3306
10233TIP3    H152114   2.059   3.859  16.141  0.5577 -0.0591 -1.2058
10233TIP3    H252115   2.005   3.872  16.000 -0.9073  1.2569 -0.5390
10234TIP3   OH252116   5.737   3.359   0.410  0.3536  0.6411  0.3602
10234TIP3    H152117   5.814   3.411   0.387 -1.2427  1.9505 -2.2552
10234TIP3    H252118   5.742   3.283   0.353 -0.3449  0.8057  0.0725
10235TIP3   OH252119   2.974   2.906  11.657  0.0999 -0.5363  0.0173
10235TIP3    H152120   2.880   2.923  11.646  0.7084  1.7825 -1.8089
10235TIP3    H252121   2.991   2.929  11.748 -0.7748  0.7415 -0.1211
10236TIP3   OH252122   4.645   2.638  11.861  0.0527 -0.3241  0.2062
10236TIP3    H152123   4.607   2.558  11.824  0.1270 -0.4669  0.4385
10236TIP3    H252124   4.575   2.702  11.858  0.5116  0.1264 -1.6633
10237TIP3   OH252125   6.017   0.384   5.840 -0.1133 -0.5773  0.2217
10237TIP3    H152126   6.011   0.411   5.748  0.9797 -0.3212  0.2122
10237TIP3    H252127   6.003   0.465   5.889 -2.9745 -1.1052  0.3594
10238TIP3   OH252128   3.500   2.822  11.637  0.0618 -0.5381  0.0293
10238TIP3    H152129   3.553   2.746  11.659  1.1732  1.0256  3.0292
10238TIP3    H252130   3.434   2.826  11.706 -1.5986 -0.2270 -1.5296
10239TIP3   OH252131   0.569   2.169  12.505 -0.2555 -0.0260 -0.6983
10239TIP3    H152132   0.634   2.227  12.545  0.3634 -0.9758 -0.2801
10239TIP3    H252133   0.499   2.163  12.570 -0.5350  0.6218 -0.9415
10240TIP3   OH252134   2.431   1.680   0.798 -0.9305  0.3987  0.0541
10240TIP3    H152135   2.473   1.622   0.734 -0.8090  0.9553 -0.3676
10240TIP3    H252136   2.346   1.639   0.815 -1.0949  0.4152 -0.7021
10241TIP3   OH252137   0.754   1.676  13.344 -0.0599 -0.3268  0.0232
10241TIP3    H152138   0.826   1.662  13.282 -1.1687 -0.2066 -1.3187
10241TIP3    H252139   0.720   1.588  13.362 -0.0709 -0.3175  0.0485
10242TIP3   OH252140   4.619   3.751  16.113 -0.3231  0.4234 -0.9023
10242TIP3    H152141   4.706   3.787  16.129 -0.4246  0.5868 -0.7057
10242TIP3    H252142   4.572   3.822  16.069 -0.8971  0.9729  0.5636
10243TIP3   OH252143   5.121   5.650   5.357  0.0755  0.0518  0.3601
10243TIP3    H152144   5.104   5.726   5.302  1.5785 -0.1877 -0.4639
10243TIP3    H252145   5.206   5.668   5.397  0.5438 -1.2769 -0.0145
10244TIP3   OH252146   0.578   3.188   2.663  0.0918  0.2885 -0.1332
10244TIP3    H152147   0.505   3.161   2.719  0.8159 -0.1577  0.6020
10244TIP3    H252148   0.652   3.198   2.723  0.3555  1.9159 -0.6845
10245TIP3   OH252149   5.264   2.484  12.315  0.0559 -0.0381 -0.5648
10245TIP3    H152150   5.172   2.458  12.323 -0.1159  0.5975 -0.4554
10245TIP3    H252151   5.309   2.434  12.384 -0.4277  0.6772  0.2888
10246TIP3   OH252152   4.174   1.962   4.305 -0.5238 -0.5122  0.7067
10246TIP3    H152153   4.131   1.877   4.314 -1.8166 -0.0336 -0.5849
10246TIP3    H252154   4.137   1.998   4.224 -0.6322  1.6319  1.6731
10247TIP3   OH252155   2.879   0.477   2.266  0.4702 -0.2526  0.8011
10247TIP3    H152156   2.806   0.424   2.235  1.1570  0.2822 -1.8181
10247TIP3    H252157   2.849   0.513   2.350 -2.0872 -0.3816 -0.0316
10248TIP3   OH252158   2.828   1.229   2.381  0.0186 -0.2125 -0.2650
10248TIP3    H152159   2.823   1.140   2.415 -1.8979  0.2200  0.6472
10248TIP3    H252160   2.805   1.221   2.289  0.4518 -0.7309 -0.3294
10249TIP3   OH252161   5.510   3.331  15.525  0.1157  0.2989 -0.0028
10249TIP3    H152162   5.457   3.265  15.480  1.2224  0.2774 -1.2954
10249TIP3    H252163   5.583   3.347  15.466 -0.7864  3.6137 -0.2759
10250TIP3   OH252164   0.356   5.543  16.965  0.0354  0.7887  0.1865
10250TIP3    H152165   0.371   5.633  16.936  1.4452  0.9399  1.3253
10250TIP3    H252166   0.382   5.543  17.057  1.9597 -1.2634 -0.3230
10251TIP3   OH252167   4.369   4.087   4.597  0.2412 -0.1529  0.3568
10251TIP3    H152168   4.375   4.148   4.671  0.9587  0.0020  0.1781
10251TIP3    H252169   4.459   4.081   4.565 -0.0528 -0.3213 -0.4254
10252TIP3   OH252170   5.784   1.611   3.817  0.1665  0.1273 -0.0125
10252TIP3    H152171   5.865   1.563   3.797  0.7901  1.0404  0.2964
10252TIP3    H252172   5.768   1.664   3.738  0.2020  0.4056  0.1676
10253TIP3   OH252173   3.240   2.453  15.921 -0.1280 -0.3968  0.5903
10253TIP3    H152174   3.282   2.513  15.860 -0.8824 -1.1694 -0.7095
10253TIP3    H252175   3.148   2.482  15.924 -0.0857 -0.3236  1.4154
10254TIP3   OH252176   2.351   3.944  16.375 -0.0331 -0.7414  0.2132
10254TIP3    H152177   2.351   3.848  16.381  2.1964 -0.6306  2.4454
10254TIP3    H252178   2.397   3.962  16.293  2.6840 -1.5527  1.4921
10255TIP3   OH252179   0.962   0.603  16.459 -0.0493  0.2594  0.1448
10255TIP3    H152180   0.914   0.682  16.482  1.0075  1.1872 -0.7488
10255TIP3    H252181   1.054   0.626  16.473  0.2002 -1.1866  0.9601
10256TIP3   OH252182   3.243   2.120   2.187 -0.5142 -0.2723 -0.1843
10256TIP3    H152183   3.336   2.105   2.204 -0.5163 -0.7519 -0.5921
10256TIP3    H252184   3.203   2.122   2.274 -0.1744 -0.4331 -0.0227
10257TIP3   OH252185   3.024   5.880  12.065  0.0634  0.3447 -0.8191
10257TIP3    H152186   3.071   5.798  12.081 -0.6723 -0.1651 -1.2473
10257TIP3    H252187   3.005   5.913  12.152  0.5481  0.1655 -0.6415
10258TIP3   OH252188   0.255   2.891  17.120 -0.5329  0.3370 -0.0587
10258TIP3    H152189   0.269   2.844  17.202 -1.1878  0.5201  0.1508
10258TIP3    H252190   0.168   2.928  17.127  0.2817  2.2757  0.1049
10259TIP3   OH252191   0.869   0.547  14.085  0.2912  0.0449 -0.5069
10259TIP3    H152192   0.886   0.482  14.154  1.6788  0.4847 -0.4241
10259TIP3    H252193   0.950   0.597  14.079 -0.4679  1.2110 -1.1869
10260TIP3   OH252194   2.894   0.027  13.743  0.5283  0.1285 -0.1070
10260TIP3    H152195   2.983   0.022  13.710  0.6978 -3.5297  0.6457
10260TIP3    H252196   2.903   0.043  13.837  0.3336  1.0239 -0.2362
10261TIP3   OH252197   5.504   3.644   2.138 -0.0801 -0.1737  0.1444
10261TIP3    H152198   5.583   3.698   2.141  0.2351 -0.6259 -0.0042
10261TIP3    H252199   5.452   3.674   2.212 -0.1231  0.6629 -0.2091
10262TIP3   OH252200   0.377   6.602  13.832 -0.5047 -0.0053 -0.1196
10262TIP3    H152201   0.316   6.603  13.905 -0.2696  0.0454  0.0769
10262TIP3    H252202   0.387   6.694  13.807  0.7032  0.1390  0.8654
10263TIP3   OH252203   3.897   6.105   5.715 -0.7013  0.5865  0.0113
10263TIP3    H152204   3.870   6.015   5.698  0.1746 -0.0740  1.8876
10263TIP3    H252205   3.826   6.159   5.681 -1.1093 -0.7997 -1.3763
10264TIP3   OH252206   3.727   2.403   4.884 -0.2363 -0.3231 -0.7836
10264TIP3    H152207   3.678   2.332   4.925 -1.5208  1.3169  0.5686
10264TIP3    H252208   3.819   2.379   4.895 -0.6384 -1.1430  0.7775
10265TIP3   OH252209   1.305   4.160   4.216 -0.1711  0.7059 -0.5768
10265TIP3    H152210   1.232   4.156   4.277  1.0730 -0.5850  0.8542
10265TIP3    H252211   1.351   4.241   4.239  0.2941  0.2245  0.2116
10266TIP3   OH252212   0.593   0.686  12.168 -0.6678 -0.0489  0.1256
10266TIP3    H152213   0.528   0.615  12.166 -0.3020 -0.3353 -2.4415
10266TIP3    H252214   0.591   0.723  12.080  0.2271  2.1855  1.0101
10267TIP3   OH252215   5.547   1.832  14.237 -0.0635  0.3079 -0.1473
10267TIP3    H152216   5.542   1.896  14.166 -0.9806 -0.4817 -0.8024
10267TIP3    H252217   5.482   1.766  14.214  1.2755 -1.1678  0.2217
10268TIP3   OH252218   0.771   4.280   2.856 -0.6591  0.3044 -0.1306
10268TIP3    H152219   0.816   4.201   2.885 -0.2504  0.3442 -0.6435
10268TIP3    H252220   0.697   4.290   2.916  1.2887  1.4843  2.1152
10269TIP3   OH252221   5.549   6.164  11.150  1.0821  0.4121 -0.4385
10269TIP3    H152222   5.492   6.185  11.224  0.8549 -1.3041 -0.1039
10269TIP3    H252223   5.512   6.213  11.077 -0.8158 -0.6220 -0.2167
10270TIP3   OH252224   4.997   5.426  11.984 -0.3770 -0.4550  0.1205
10270TIP3    H152225   4.950   5.365  11.927 -1.4410 -0.0065  0.5176
10270TIP3    H252226   5.081   5.382  12.001 -0.5633 -1.1632 -0.7526
10271TIP3   OH252227   1.353   2.685  12.970  0.3481  0.2017 -0.8239
10271TIP3    H152228   1.288   2.700  13.038  1.7437 -0.0808  0.5900
10271TIP3    H252229   1.398   2.769  12.960 -0.0870  0.3454 -1.6741
10272TIP3   OH252230   3.248   5.946  11.385 -0.7221 -0.0450 -0.0319
10272TIP3    H152231   3.168   5.996  11.402  0.0902  1.1338  0.3202
10272TIP3    H252232   3.231   5.903  11.301 -1.7910  0.0653  0.1167
10273TIP3   OH252233   1.358   2.256   1.330  0.5387 -0.4055 -0.1771
10273TIP3    H152234   1.284   2.317   1.337  0.2808 -0.7024 -0.3335
10273TIP3    H252235   1.331   2.179   1.380  1.6170  0.3350  1.6016
10274TIP3   OH252236   3.622   4.031  12.330  0.0272  0.6799  0.1271
10274TIP3    H152237   3.576   3.972  12.270 -0.1210  1.5575 -0.6366
10274TIP3    H252238   3.708   4.043  12.290 -0.4976  2.2427 -0.5703
10275TIP3   OH252239   5.517   2.541  17.142 -0.3445 -0.7981  0.0747
10275TIP3    H152240   5.539   2.468  17.085  1.5950  0.5724 -0.9537
10275TIP3    H252241   5.590   2.546  17.204 -0.6006  0.1063  0.3050
10276TIP3   OH252242   6.630   3.470  13.979  0.5149 -1.0215  0.3260
10276TIP3    H152243   6.617   3.388  14.026 -1.1527 -2.4605 -2.5317
10276TIP3    H252244   6.705   3.453  13.921  0.0969 -0.5983 -0.3529
10277TIP3   OH252245   1.955   4.748   4.110  0.1593 -0.2579  0.5163
10277TIP3    H152246   1.879   4.763   4.054  0.3703 -1.4514 -0.0906
10277TIP3    H252247   1.947   4.657   4.138 -0.8669  0.7900  3.8401
10278TIP3   OH252248   4.556   3.606   1.668 -0.7323 -0.3400 -0.5411
10278TIP3    H152249   4.485   3.643   1.721  0.2870  0.4219  0.3060
10278TIP3    H252250   4.578   3.524   1.712 -0.5640 -0.1986 -0.3621
10279TIP3   OH252251   3.360   5.478  11.294  0.4846 -0.6249  0.5051
10279TIP3    H152252   3.448   5.516  11.284  0.8512 -1.0909  1.8959
10279TIP3    H252253   3.309   5.519  11.224  1.6256  0.1931  0.1257
10280TIP3   OH252254   5.831   2.249  17.225  0.6372  0.6012  0.0525
10280TIP3    H152255   5.815   2.190  17.151  0.8012  1.1536 -0.4257
10280TIP3    H252256   5.744   2.278  17.251  0.6465  1.1725 -0.5517
10281TIP3   OH252257   1.570   1.249  14.281 -0.6226 -0.1320  0.1062
10281TIP3    H152258   1.531   1.336  14.274  0.0237  0.1486 -0.0125
10281TIP3    H252259   1.496   1.191  14.301 -0.8458  0.6240  1.4594
10282TIP3   OH252260   6.628   4.102   3.794 -0.2452 -0.0136  0.6555
10282TIP3    H152261   6.551   4.148   3.827  0.5073  1.1797  0.7710
10282TIP3    H252262   6.663   4.159   3.725  3.6311  2.1685  4.2010
10283TIP3   OH252263   5.855   2.033  13.981  0.0559  0.1834 -0.8297
10283TIP3    H152264   5.937   1.991  14.007  0.8548  1.8845 -0.5357
10283TIP3    H252265   5.861   2.038  13.885  0.6561  0.9829 -0.7617
10284TIP3   OH252266   2.994   6.530  15.066 -0.2124  0.1185 -0.5160
10284TIP3    H152267   2.971   6.511  14.975 -2.2693  0.0731 -0.0210
10284TIP3    H252268   2.960   6.455  15.115  3.3210 -1.2278  0.0329
10285TIP3   OH252269   3.456   5.130  14.359  0.6709  0.1075  0.0079
10285TIP3    H152270   3.362   5.129  14.379  0.4475  1.5469 -0.9074
10285TIP3    H252271   3.467   5.062  14.293 -0.1537  1.5381 -1.6286
10286TIP3   OH252272   3.072   6.148   5.870  0.1952  0.0295 -0.3377
10286TIP3    H152273   3.148   6.205   5.861  0.1639  0.5353  2.1833
10286TIP3    H252274   3.095   6.090   5.943  0.2004 -3.1729 -2.7779
10287TIP3   OH252275   0.914   1.583   4.963 -0.1589 -0.6611  0.4786
10287TIP3    H152276   0.970   1.530   5.020 -0.0761 -0.3266  0.7089
10287TIP3    H252277   0.914   1.537   4.879  0.6028 -0.5692  0.4230
10288TIP3   OH252278   5.130   6.672  15.935 -0.9814 -0.2450 -0.4088
10288TIP3    H152279   5.130   6.766  15.953 -1.9277 -0.4994  0.9722
10288TIP3    H252280   5.211   6.640  15.975 -1.3677 -0.2413  0.3866
10289TIP3   OH252281   1.490   3.537  13.951 -0.0636  0.5803 -0.5083
10289TIP3    H152282   1.496   3.587  14.032 -1.0525 -1.8766  1.1680
10289TIP3    H252283   1.423   3.581  13.900 -1.7234  0.3414  1.4159
10290TIP3   OH252284   5.678   2.867   1.214  0.2865 -0.4080 -0.5659
10290TIP3    H152285   5.729   2.819   1.279 -0.1662 -0.1579 -0.0199
10290TIP3    H252286   5.731   2.863   1.135  1.4510  0.3447  0.1417
10291TIP3   OH252287   6.247   5.142   3.855 -0.5008 -0.4030  0.2915
10291TIP3    H152288   6.166   5.187   3.880 -0.6329 -1.6665  2.2033
10291TIP3    H252289   6.219   5.053   3.836  0.0371 -0.1530 -1.8289
10292TIP3   OH252290   5.708   6.133  13.384 -0.1136  0.3421  0.0574
10292TIP3    H152291   5.654   6.204  13.349 -0.2134 -0.1016 -0.7078
10292TIP3    H252292   5.646   6.076  13.431 -0.6477 -1.1245 -2.3228
10293TIP3   OH252293   0.059   4.053  16.613  0.3492  0.1380  0.0009
10293TIP3    H152294   0.062   3.962  16.584  0.4385  0.6220 -1.5448
10293TIP3    H252295   0.146   4.087  16.594  0.0531  0.7775 -0.2240
10294TIP3   OH252296   6.099   1.716  17.158  0.6573 -0.4438 -0.7113
10294TIP3    H152297   6.084   1.810  17.154 -1.4341 -0.7545 -0.4683
10294TIP3    H252298   6.191   1.706  17.132  0.8766  1.6370 -0.8497
10295TIP3   OH252299   5.315   0.994   0.027  0.2929 -0.8607 -0.5652
10295TIP3    H152300   5.375   0.998  -0.047  2.3323 -1.4819  1.0287
10295TIP3    H252301   5.334   0.911   0.070  0.1713  0.1450  1.5078
10296TIP3   OH252302   4.942   6.460  14.055 -1.0174  0.5594 -0.9555
10296TIP3    H152303   4.893   6.542  14.050 -0.8693  0.8006  1.1822
10296TIP3    H252304   5.008   6.476  14.122 -0.3653 -0.9843 -1.2203
10297TIP3   OH252305   0.010   4.186   4.845 -0.3922 -0.8543  0.0824
10297TIP3    H152306  -0.032   4.258   4.893  0.9553  0.1194 -0.1711
10297TIP3    H252307   0.075   4.152   4.906 -1.5964 -2.4703  0.5354
10298TIP3   OH252308   1.041   1.956  11.779 -0.7261 -0.5484 -0.0955
10298TIP3    H152309   0.984   1.995  11.712 -1.1314  0.7442  0.9777
10298TIP3    H252310   0.989   1.885  11.815 -0.6142 -1.0739 -0.9653
10299TIP3   OH252311   0.227   2.782  16.617  0.1349 -0.0568  0.7045
10299TIP3    H152312   0.143   2.829  16.615 -1.0410 -2.1214 -1.8992
10299TIP3    H252313   0.226   2.734  16.700 -1.2225  0.0664  0.7712
10300TIP3   OH252314   1.600   5.043   1.218 -0.0085  0.4224  0.4099
10300TIP3    H152315   1.522   5.089   1.249 -0.3858  0.0505  0.0305
10300TIP3    H252316   1.597   5.052   1.123  0.3765  0.3530  0.3893
10301TIP3   OH252317   4.478   6.024   4.107 -0.9559 -0.0782 -0.0624
10301TIP3    H152318   4.526   6.047   4.028  1.5945 -3.3973  0.3801
10301TIP3    H252319   4.386   6.040   4.085 -0.0352  2.1650 -2.5216
10302TIP3   OH252320   6.471   3.367   0.655 -0.0687  0.7226 -0.0397
10302TIP3    H152321   6.401   3.398   0.597 -0.8555 -0.3290  0.3349
10302TIP3    H252322   6.465   3.272   0.651 -1.0124  0.6266  2.8395
10303TIP3   OH252323   5.174   3.967  15.961  0.4393 -0.3698  0.0349
10303TIP3    H152324   5.164   3.892  16.019 -0.4957  0.7955  1.3980
10303TIP3    H252325   5.182   3.929  15.873 -0.1006 -2.0442  0.7018
10304TIP3   OH252326   0.069   2.587  17.167  0.3138 -0.1091 -0.4979
10304TIP3    H152327   0.027   2.659  17.214 -1.0986 -1.5372  0.4620
10304TIP3    H252328  -0.001   2.525  17.150  1.8516 -2.1469  0.3596
10305TIP3   OH252329   4.679   4.845   1.457  0.1762 -0.8393 -0.8124
10305TIP3    H152330   4.711   4.755   1.452  1.2313 -0.4223 -1.5776
10305TIP3    H252331   4.737   4.895   1.400  0.7269  0.6442  1.0054
10306TIP3   OH252332   6.088   0.511   6.204 -0.0548  0.4716  0.2874
10306TIP3    H152333   6.181   0.499   6.184 -0.2624 -1.9471  0.6505
10306TIP3    H252334   6.058   0.574   6.138  2.3309  3.1150  1.6026
10307TIP3   OH252335   4.977   5.187  14.800 -0.2814  0.0842  0.8493
10307TIP3    H152336   4.891   5.214  14.769  0.7713  2.0041 -0.5567
10307TIP3    H252337   5.031   5.185  14.721  0.6294 -2.5480  1.4887
10308TIP3   OH252338   6.058   3.767   1.905 -0.1952 -0.0795  0.8831
10308TIP3    H152339   5.964   3.752   1.897 -0.5973  2.1835  1.0092
10308TIP3    H252340   6.066   3.831   1.976  1.4010  0.2119  0.4669
10309TIP3   OH252341   4.585   0.357   2.961 -0.0092  0.6546 -0.0899
10309TIP3    H152342   4.579   0.310   2.877 -0.5941  1.0854 -0.2932
10309TIP3    H252343   4.556   0.293   3.026  0.8645  0.1771 -0.1626
10310TIP3   OH252344   1.833   5.617   2.503 -0.0738  0.2199  0.3716
10310TIP3    H152345   1.854   5.525   2.488 -2.0111 -0.4521  1.6824
10310TIP3    H252346   1.838   5.657   2.416  1.6441 -0.9086 -0.0855
10311TIP3   OH252347   5.086   5.433  10.988  0.9591 -0.1163 -0.8075
10311TIP3    H152348   5.096   5.424  10.893 -0.3186 -2.3479 -0.7519
10311TIP3    H252349   5.157   5.381  11.025  0.5170 -0.5230 -0.5307
10312TIP3   OH252350   0.362   5.728   3.612 -0.0933 -0.4580  0.0924
10312TIP3    H152351   0.408   5.740   3.695  0.2354  2.1505 -0.4363
10312TIP3    H252352   0.427   5.687   3.554  0.5205  0.1498  0.3476
10313TIP3   OH252353   3.731   4.269   0.321  0.0309 -0.3896  0.0345
10313TIP3    H152354   3.713   4.315   0.239  0.2097  1.3918  0.9801
10313TIP3    H252355   3.647   4.232   0.347 -0.7608  1.7983  0.6995
10314TIP3   OH252356   5.666   5.331  16.182 -0.2602 -0.0159  0.3047
10314TIP3    H152357   5.573   5.337  16.160 -0.8140 -0.4451  2.3910
10314TIP3    H252358   5.694   5.422  16.194 -0.5857  0.0748  0.3720
10315TIP3   OH252359   3.190   3.174  15.822 -0.1535  0.3998 -0.4145
10315TIP3    H152360   3.113   3.195  15.875  0.3773 -0.0907  0.5517
10315TIP3    H252361   3.254   3.242  15.844  0.4132 -0.3559  0.3025
10316TIP3   OH252362   0.774   2.129   0.046  0.1057 -0.5543 -0.0033
10316TIP3    H152363   0.743   2.216   0.021 -0.4015 -0.8267 -0.3271
10316TIP3    H252364   0.787   2.135   0.141  2.1576  0.5068 -0.3387
10317TIP3   OH252365   3.776   6.536   2.657  0.4909  0.2528 -0.3102
10317TIP3    H152366   3.780   6.445   2.627 -0.1006 -0.4407  1.6620
10317TIP3    H252367   3.794   6.532   2.751  1.0455  2.2462 -0.2916
10318TIP3   OH252368   6.548   4.463  15.417 -0.7226  0.3305  1.2629
10318TIP3    H152369   6.590   4.413  15.487  0.4175 -0.1571  0.2360
10318TIP3    H252370   6.531   4.398  15.348 -0.1781  1.1594  0.3429
10319TIP3   OH252371   3.584   6.364   1.534 -0.1788  0.0702 -0.4724
10319TIP3    H152372   3.655   6.422   1.560 -0.5304  1.3754 -2.3203
10319TIP3    H252373   3.517   6.422   1.498 -1.0762 -1.3588 -1.1581
10320TIP3   OH252374   6.173   1.179  11.706  0.6415  0.4809  0.1463
10320TIP3    H152375   6.184   1.237  11.781 -1.9718  2.1835 -0.7116
10320TIP3    H252376   6.094   1.129  11.726 -0.1743  1.0744 -1.5183
10321TIP3   OH252377   3.978   0.810   4.666  0.0973 -0.5092 -0.4488
10321TIP3    H152378   4.038   0.883   4.648  0.3811 -0.0680  2.0746
10321TIP3    H252379   4.024   0.758   4.732 -0.8512 -2.0400 -0.9972
10322TIP3   OH252380   1.173   6.677  11.542 -0.5212  0.4241  0.1156
10322TIP3    H152381   1.231   6.692  11.467  0.2491  1.6233  0.9313
10322TIP3    H252382   1.191   6.586  11.567 -1.5199 -0.3167 -1.7515
10323TIP3   OH252383   6.257   5.807  17.223  0.0772 -0.0837  0.6640
10323TIP3    H152384   6.215   5.890  17.201 -3.1565 -1.5811  0.8694
10323TIP3    H252385   6.224   5.785  17.310  0.4177 -1.8676  0.3764
10324TIP3   OH252386   2.245   1.063   2.959  0.2377 -0.1730  0.0798
10324TIP3    H152387   2.232   1.129   2.891 -1.6614  0.7974  1.3357
10324TIP3    H252388   2.319   1.096   3.010 -0.1510  0.5684  0.1817
10325TIP3   OH252389   1.776   5.176   5.510 -0.5257 -0.5118  0.3866
10325TIP3    H152390   1.724   5.256   5.506 -0.8822 -0.8093 -2.6870
10325TIP3    H252391   1.729   5.120   5.572 -0.6074  1.4171  2.0907
10326TIP3   OH252392   4.433   5.702   1.061 -0.1031 -0.3568  0.2538
10326TIP3    H152393   4.435   5.675   0.969 -1.2291 -0.3075  0.2027
10326TIP3    H252394   4.492   5.777   1.066  1.1562 -1.3114 -0.1043
10327TIP3   OH252395   1.493   3.005  16.721  0.3346  0.3662 -0.7819
10327TIP3    H152396   1.525   2.993  16.810  0.9537  0.2893 -1.0123
10327TIP3    H252397   1.436   3.082  16.726  0.1012  0.1625 -0.2554
10328TIP3   OH252398   2.302   1.226  13.260 -0.1614 -0.2031 -0.2975
10328TIP3    H152399   2.233   1.260  13.204  0.2959 -1.8274 -1.8795
10328TIP3    H252400   2.332   1.303  13.310 -1.6961  0.9168 -1.0544
10329TIP3   OH252401   4.603   4.755   5.491  0.3660  0.1488 -0.2961
10329TIP3    H152402   4.619   4.848   5.506  0.7796 -0.0177  0.3058
10329TIP3    H252403   4.620   4.713   5.575 -1.6239 -0.2434 -0.0523
10330TIP3   OH252404   3.605   5.005  11.499  0.0712  0.9371 -0.2168
10330TIP3    H152405   3.700   5.018  11.489 -0.0951  1.1931 -1.5774
10330TIP3    H252406   3.596   4.911  11.515  0.5217  0.7894 -0.7731
10331TIP3   OH252407   2.135   4.687  12.639 -0.2105 -1.0142  0.4510
10331TIP3    H152408   2.074   4.686  12.713 -1.4786 -2.2041 -0.5604
10331TIP3    H252409   2.106   4.614  12.583  0.8712 -0.3026 -1.0923
10332TIP3   OH252410   5.449   4.517   1.490  0.0050  0.9100 -0.1851
10332TIP3    H152411   5.513   4.532   1.560 -2.0997  1.5983  1.6434
10332TIP3    H252412   5.501   4.484   1.417  2.1248 -0.8619  2.0464
10333TIP3   OH252413   3.871   6.383   3.484  0.0054 -0.0396  0.1366
10333TIP3    H152414   3.934   6.311   3.487  1.6852  1.3996  0.0458
10333TIP3    H252415   3.922   6.459   3.455 -1.8113  1.1181 -0.1399
10334TIP3   OH252416   5.265   4.599  13.436 -0.5446  0.5285  0.2872
10334TIP3    H152417   5.203   4.533  13.469 -0.7360  0.6878  0.2494
10334TIP3    H252418   5.334   4.601  13.502  0.1254 -0.6457 -0.3556
10335TIP3   OH252419   4.554   2.702   5.165  0.3275  0.3434 -0.3709
10335TIP3    H152420   4.556   2.671   5.255 -0.5248 -0.4748 -0.6222
10335TIP3    H252421   4.646   2.702   5.137  0.3515 -2.1055 -0.4040
10336TIP3   OH252422   0.148   0.128  12.555  0.1098  0.2122 -0.5504
10336TIP3    H152423   0.130   0.217  12.526 -1.1659  0.2337  0.2628
10336TIP3    H252424   0.221   0.099  12.501 -0.6471  1.1035 -2.0664
10337TIP3   OH252425   1.680   6.444   2.417 -0.6971 -0.2045 -0.5990
10337TIP3    H152426   1.611   6.485   2.471  0.6370  1.9498 -0.4781
10337TIP3    H252427   1.711   6.515   2.360  0.7386 -1.4149 -1.3432
10338TIP3   OH252428   4.292   6.307   3.346  0.5971  0.0542 -0.0637
10338TIP3    H152429   4.355   6.337   3.412 -1.1021  3.6115  0.0527
10338TIP3    H252430   4.303   6.368   3.273 -1.9223  0.0729 -0.4617
10339TIP3   OH252431   2.888   5.345  13.458 -1.2671  0.8451 -0.0835
10339TIP3    H152432   2.955   5.311  13.517 -0.4363  0.3057 -1.3328
10339TIP3    H252433   2.850   5.419  13.506  2.0473  2.8867 -0.4604
10340TIP3   OH252434   1.497   3.872  16.975 -0.3987 -0.5776  0.2519
10340TIP3    H152435   1.560   3.867  16.903 -1.1229  0.8340 -0.5171
10340TIP3    H252436   1.414   3.843  16.936 -0.5387 -0.9517  0.8317
10341TIP3   OH252437   1.554   1.635   4.715 -0.1981 -0.9986  0.1909
10341TIP3    H152438   1.464   1.659   4.695 -0.1162 -0.1588  0.8084
10341TIP3    H252439   1.549   1.542   4.739 -0.5360 -1.5928 -2.0303
10342TIP3   OH252440   4.196   3.931   0.227  0.0566 -0.0698 -0.2598
10342TIP3    H152441   4.157   3.955   0.142  0.6977 -0.7623 -0.7580
10342TIP3    H252442   4.151   3.850   0.251 -0.7313  0.5828  0.4808
10343TIP3   OH252443   2.997   4.867   4.319 -0.7624  0.2399  0.1523
10343TIP3    H152444   3.007   4.843   4.411  0.1322 -0.3506 -0.0841
10343TIP3    H252445   3.070   4.925   4.301  1.6691 -3.0781 -1.2761
10344TIP3   OH252446   3.977   1.494  13.768  0.0601 -0.5805 -0.1682
10344TIP3    H152447   3.886   1.492  13.739 -0.3436  1.0063  0.9856
10344TIP3    H252448   3.974   1.523  13.859  1.8029  0.6364 -0.4743
10345TIP3   OH252449   0.914   1.517  17.018 -0.0101 -0.5102 -0.1804
10345TIP3    H152450   0.826   1.498  16.985 -0.2942  0.6032 -0.0586
10345TIP3    H252451   0.972   1.486  16.948 -0.5503  0.2589 -0.9800
10346TIP3   OH252452   6.643   4.705  15.366 -0.3169 -0.1053 -0.4377
10346TIP3    H152453   6.603   4.623  15.397  2.4846 -1.3999 -0.0761
10346TIP3    H252454   6.658   4.756  15.446  1.0087 -0.7219 -0.2611
10347TIP3   OH252455   3.429   0.478  16.597  0.1554 -0.1775 -0.1284
10347TIP3    H152456   3.451   0.389  16.626  0.8663  0.3986  1.1800
10347TIP3    H252457   3.513   0.516  16.572  0.0270  0.5035  0.4453
10348TIP3   OH252458   0.456   6.066  15.714  0.4374 -0.5975  0.1926
10348TIP3    H152459   0.370   6.028  15.696  0.1910  0.7657 -1.6635
10348TIP3    H252460   0.481   6.029  15.798 -1.6467 -1.5868  0.4182
10349TIP3   OH252461   5.038   0.662   4.936 -0.4410  0.0439 -0.6506
10349TIP3    H152462   4.967   0.606   4.905 -0.5369 -0.4047  0.3556
10349TIP3    H252463   5.077   0.613   5.009 -0.2643  1.1058 -0.0172
10350TIP3   OH252464   0.418   6.199   3.280 -0.3872 -0.2464  0.1794
10350TIP3    H152465   0.358   6.124   3.275  0.3876 -0.8451 -0.1214
10350TIP3    H252466   0.498   6.169   3.238  0.4865  0.2152  1.4915
10351TIP3   OH252467   2.002   2.865   5.776 -0.3391 -0.2674 -0.2252
10351TIP3    H152468   2.056   2.934   5.815  1.2992 -1.1313 -0.9187
10351TIP3    H252469   1.996   2.889   5.684 -2.4251  0.6236  0.1136
10352TIP3   OH252470   0.536   4.955  13.631  0.0331  0.2039 -0.0327
10352TIP3    H152471   0.498   5.042  13.616  0.6390  0.7490  1.4829
10352TIP3    H252472   0.492   4.923  13.710  1.1904 -0.0437  0.5226
10353TIP3   OH252473   4.150   2.890  12.895  0.3262  0.4122 -0.1332
10353TIP3    H152474   4.072   2.927  12.937 -0.7568 -1.7455 -0.1717
10353TIP3    H252475   4.179   2.821  12.955  0.5062 -0.7207 -1.5018
10354TIP3   OH252476   2.857   6.276   0.315  0.4648  0.4274 -0.3757
10354TIP3    H152477   2.807   6.249   0.238  1.4198  1.3720 -1.3521
10354TIP3    H252478   2.799   6.259   0.389 -0.2070 -1.1331 -1.2374
10355TIP3   OH252479   3.755   3.603  11.546 -0.2062  1.0159  0.2461
10355TIP3    H152480   3.748   3.536  11.478  0.3520  1.3377 -0.1409
10355TIP3    H252481   3.678   3.659  11.532 -0.3402  0.8160  0.1763
10356TIP3   OH252482   5.148   0.733  17.181  0.4604 -0.2162 -0.2823
10356TIP3    H152483   5.064   0.772  17.204  0.2962 -0.2691 -0.7839
10356TIP3    H252484   5.176   0.780  17.102 -0.4545 -2.0748 -1.7672
10357TIP3   OH252485   0.318   1.039  12.687  0.7023 -0.7008 -0.2972
10357TIP3    H152486   0.230   1.078  12.694  0.9083  0.0027 -1.4846
10357TIP3    H252487   0.376   1.106  12.722  0.7844 -1.1017  0.3323
10358TIP3   OH252488   5.448   0.456  12.155  0.5494  0.2009 -0.0474
10358TIP3    H152489   5.466   0.508  12.077  0.0116  1.4397  0.6343
10358TIP3    H252490   5.464   0.516  12.228  2.0180 -1.2291  0.8467
10359TIP3   OH252491   2.168   2.997  16.093  0.3151  0.5430 -0.0220
10359TIP3    H152492   2.157   3.092  16.104 -1.6447  0.3323 -0.0092
10359TIP3    H252493   2.098   2.958  16.144 -1.8233 -0.7507 -3.7450
10360TIP3   OH252494   2.055   5.192   3.361 -0.2874  0.1066 -0.0464
10360TIP3    H152495   2.117   5.162   3.294 -1.5985 -1.2566 -0.6965
10360TIP3    H252496   2.071   5.135   3.436 -0.5111 -0.0181 -0.0926
10361TIP3   OH252497   4.466   5.371  15.333 -0.2241 -0.5035 -0.3189
10361TIP3    H152498   4.521   5.306  15.377  1.4672  1.5022  0.5763
10361TIP3    H252499   4.378   5.332  15.334  0.4435 -2.0475  1.6847
10362TIP3   OH252500   0.555   4.443   2.356 -0.1838 -0.1900  0.4971
10362TIP3    H152501   0.630   4.502   2.355  0.6022 -1.1857 -1.1399
10362TIP3    H252502   0.577   4.374   2.294 -1.4390 -1.7842  1.7588
10363TIP3   OH252503   6.051   3.819   2.750  0.6741 -0.0583 -0.4964
10363TIP3    H152504   6.074   3.896   2.699  3.3792  0.1069  0.8685
10363TIP3    H252505   6.022   3.853   2.834  1.8128 -0.5174  0.0889
10364TIP3   OH252506   0.951   6.734   2.075  0.0279 -0.3572 -0.0544
10364TIP3    H152507   1.012   6.797   2.037  1.6207 -1.5356  0.4942
10364TIP3    H252508   0.869   6.749   2.028  0.6700  1.3888 -0.6669
10365TIP3   OH252509   5.135   2.336   2.264 -0.0878  0.2249 -0.1199
10365TIP3    H152510   5.050   2.293   2.264 -0.4141  0.8698 -0.2015
10365TIP3    H252511   5.188   2.285   2.325 -0.3189 -0.5935 -0.6091
10366TIP3   OH252512   2.643   3.368  15.793  0.1003  0.2325 -0.9693
10366TIP3    H152513   2.596   3.302  15.843  0.6760  0.2479 -0.3985
10366TIP3    H252514   2.575   3.415  15.746 -0.3448 -0.5761 -1.1571
10367TIP3   OH252515   5.343   6.448  14.673  0.6800 -0.1276 -0.1446
10367TIP3    H152516   5.365   6.369  14.623 -1.2562 -0.0408 -1.2051
10367TIP3    H252517   5.268   6.422  14.726  1.6682  0.2738  1.4755
10368TIP3   OH252518   3.057   1.402   3.012 -0.0287 -0.1308 -0.1895
10368TIP3    H152519   3.070   1.473   3.075  0.1400  0.8756 -1.3575
10368TIP3    H252520   3.142   1.358   3.008  0.1473  0.2156 -0.2252
10369TIP3   OH252521   2.027   5.949  15.211 -0.2856  0.2948 -0.4177
10369TIP3    H152522   1.935   5.972  15.204 -0.6784 -1.5361 -1.9339
10369TIP3    H252523   2.056   5.985  15.294 -1.9532  2.2657 -0.6677
10370TIP3   OH252524   6.740   1.017  15.923  0.4981 -0.5383  0.2958
10370TIP3    H152525   6.775   0.954  15.986  0.8014 -1.3300 -0.6489
10370TIP3    H252526   6.816   1.043  15.871  0.9055  2.5815  2.3074
10371TIP3   OH252527   2.821   1.963   2.327 -0.6281  0.0710 -0.1215
10371TIP3    H152528   2.817   1.903   2.401  0.2502 -0.6329 -0.6285
10371TIP3    H252529   2.810   2.050   2.365 -2.0453 -0.4171  0.6036
10372TIP3   OH252530   1.469   1.240  15.179 -0.1211  0.2229  0.2767
10372TIP3    H152531   1.483   1.275  15.267 -1.3592 -0.0874  0.6050
10372TIP3    H252532   1.461   1.317  15.123  1.4486  0.4140  0.3047
10373TIP3   OH252533   2.638   4.585  11.467 -0.2680 -0.0993 -0.3759
10373TIP3    H152534   2.660   4.676  11.485  1.3285  0.0136 -2.6297
10373TIP3    H252535   2.714   4.551  11.420 -0.9009 -2.5727  0.3336
10374TIP3   OH252536   4.172   1.165  15.129  0.0625  0.0783 -0.7143
10374TIP3    H152537   4.238   1.125  15.186  0.4287  0.0545 -1.1520
10374TIP3    H252538   4.165   1.105  15.055 -1.4178 -0.6018 -0.0464
10375TIP3   OH252539   3.284   1.675  11.794 -0.2549  0.2022  0.4765
10375TIP3    H152540   3.205   1.726  11.774  1.0456  2.0040 -0.1940
10375TIP3    H252541   3.302   1.694  11.886 -0.2932  0.2256  0.4796
10376TIP3   OH252542   2.330   4.377   6.585  0.2229  0.0839  0.4317
10376TIP3    H152543   2.370   4.290   6.589 -1.7592 -0.8101  1.6807
10376TIP3    H252544   2.402   4.437   6.603  1.6895 -1.2557 -0.7488
10377TIP3   OH252545   2.874   5.309  13.009  0.3465 -0.2492  0.0763
10377TIP3    H152546   2.880   5.266  12.924 -0.3499  1.9430 -1.1384
10377TIP3    H252547   2.821   5.388  12.992  0.2825  0.2770  2.5138
10378TIP3   OH252548   3.131   3.614  14.668 -0.0981 -0.2399 -0.1012
10378TIP3    H152549   3.102   3.525  14.688 -0.2860 -0.7213 -2.4026
10378TIP3    H252550   3.074   3.670  14.721  2.0273 -1.5400  3.7290
10379TIP3   OH252551   2.981   4.066  11.005  0.2583 -0.0866  0.6464
10379TIP3    H152552   2.890   4.095  11.002  0.0679 -0.7052  0.5502
10379TIP3    H252553   3.030   4.140  10.969 -0.1261  0.5484  1.3927
10380TIP3   OH252554   3.720   0.544   4.492  0.0017 -0.2471  0.2898
10380TIP3    H152555   3.627   0.530   4.480  0.0709 -0.4439 -0.0213
10380TIP3    H252556   3.745   0.486   4.564 -0.3566  0.7194  1.2117
10381TIP3   OH252557   2.379   4.637  14.078 -0.1471  0.1116 -0.0610
10381TIP3    H152558   2.466   4.673  14.059 -0.1755  0.3770  0.2990
10381TIP3    H252559   2.330   4.648  13.996 -0.0092  0.4676 -0.0983
10382TIP3   OH252560   2.323   5.416   2.524 -0.4816 -0.3012  0.4083
10382TIP3    H152561   2.299   5.508   2.517 -1.6060 -0.6048  0.1609
10382TIP3    H252562   2.366   5.396   2.441 -0.6696 -0.1192  0.2665
10383TIP3   OH252563   3.121   2.736  17.128 -0.1044  0.1941  0.1561
10383TIP3    H152564   3.084   2.665  17.074  0.0025  0.7581 -0.6786
10383TIP3    H252565   3.192   2.695  17.177 -0.2785 -0.3602 -0.0502
10384TIP3   OH252566   1.371   3.233   2.570 -0.4457 -0.0677  0.1340
10384TIP3    H152567   1.295   3.256   2.516 -1.5669 -1.9959  0.8521
10384TIP3    H252568   1.372   3.299   2.639 -0.3252  1.0964 -0.9641
10385TIP3   OH252569   0.589   2.499   3.603  0.1175 -0.5925  0.2775
10385TIP3    H152570   0.648   2.558   3.649  0.8538 -1.3104  0.2418
10385TIP3    H252571   0.578   2.540   3.517  3.5206 -2.3589 -1.0739
10386TIP3   OH252572   0.403   6.253   5.260 -0.5223  0.9212  0.2862
10386TIP3    H152573   0.489   6.211   5.250 -0.7890  0.0833  1.4924
10386TIP3    H252574   0.410   6.303   5.341 -0.6410  2.1655 -0.4712
10387TIP3   OH252575   3.008   0.775  12.248 -0.1168 -0.0600  0.1978
10387TIP3    H152576   2.982   0.777  12.340 -0.6062 -0.7372  0.0755
10387TIP3    H252577   3.095   0.735  12.248 -0.1408 -0.1115  0.3621
10388TIP3   OH252578   5.522   2.179   1.681  0.1193 -0.1203  0.8837
10388TIP3    H152579   5.590   2.141   1.625 -0.0224  0.1983  0.4948
10388TIP3    H252580   5.441   2.166   1.633 -0.1203 -0.6215  1.4101
10389TIP3   OH252581   2.142   4.914   5.265 -0.1777  0.3182  0.1195
10389TIP3    H152582   2.109   4.837   5.312  1.1787  0.7739  1.8449
10389TIP3    H252583   2.111   4.988   5.316 -0.2716  0.9018 -0.7649
10390TIP3   OH252584   3.890   4.326  13.323 -0.1388 -0.1606 -0.1853
10390TIP3    H152585   3.828   4.322  13.395 -1.1524 -1.9423 -1.1427
10390TIP3    H252586   3.926   4.238  13.316  1.0283  0.3506 -0.9322
10391TIP3   OH252587   6.306   5.272   1.520  0.2125  0.3709 -0.5030
10391TIP3    H152588   6.398   5.270   1.545  0.1251 -2.4243 -0.1690
10391TIP3    H252589   6.279   5.363   1.530  2.5951  0.9719  0.6512
10392TIP3   OH252590   1.565   2.138   5.431 -0.4427 -0.3622 -0.9527
10392TIP3    H152591   1.643   2.190   5.448 -1.3663  0.8292 -0.2622
10392TIP3    H252592   1.598   2.050   5.416  0.9924  0.0147 -0.1499
10393TIP3   OH252593   0.354   3.896   4.343  0.1820 -0.3038 -0.3967
10393TIP3    H152594   0.262   3.880   4.320 -0.1736 -1.5321  1.7481
10393TIP3    H252595   0.361   3.991   4.352 -0.8961 -0.2110 -0.4782
10394TIP3   OH252596   2.258   1.042   3.693 -0.4615  0.5931 -0.4484
10394TIP3    H152597   2.236   1.118   3.639  1.6014  1.0912 -0.6352
10394TIP3    H252598   2.177   0.992   3.698 -1.7696  2.6371 -0.5895
10395TIP3   OH252599   0.077   4.621  13.187 -0.2175  0.1024 -0.1630
10395TIP3    H152600   0.122   4.537  13.199  0.1446  0.3266  0.0812
10395TIP3    H252601   0.106   4.674  13.262  0.0423  0.6579 -0.6566
10396TIP3   OH252602   4.737   4.146  11.235 -0.8940  0.2479  0.3660
10396TIP3    H152603   4.811   4.147  11.294 -2.6898  0.0231  2.6829
10396TIP3    H252604   4.738   4.232  11.192  0.3419  0.4476  0.8023
10397TIP3   OH252605   0.254   1.687  16.632  0.3182  0.2001 -0.1025
10397TIP3    H152606   0.312   1.618  16.664  1.2154  0.7029 -0.6226
10397TIP3    H252607   0.287   1.767  16.674 -1.0950  0.2238  0.9867
10398TIP3   OH252608   6.607   0.327   1.369  0.6890 -0.3509 -0.3575
10398TIP3    H152609   6.591   0.394   1.302 -1.1807 -1.4008 -0.9885
10398TIP3    H252610   6.609   0.376   1.451  1.2545  0.7193 -0.9901
10399TIP3   OH252611   0.937   1.103  13.304  0.8569 -0.0861 -0.8302
10399TIP3    H152612   0.997   1.123  13.376  1.4745 -0.9750 -1.0848
10399TIP3    H252613   0.979   1.030  13.258 -0.2068 -0.4258 -1.2677
10400TIP3   OH252614   6.738   4.408   4.987  0.2292 -0.3388 -0.3702
10400TIP3    H152615   6.770   4.467   5.055 -0.9230  0.0007 -0.1006
10400TIP3    H252616   6.650   4.383   5.017  0.4098 -1.5858 -0.8571
10401TIP3   OH252617   2.568   0.226  14.665  0.2581 -0.0013  0.3611
10401TIP3    H152618   2.575   0.264  14.577  0.8896 -1.6575 -0.3324
10401TIP3    H252619   2.584   0.299  14.724  2.6808  0.5794 -0.9434
10402TIP3   OH252620   2.301   3.629  15.119 -0.5913  0.3280 -0.2523
10402TIP3    H152621   2.363   3.700  15.134  0.8803 -0.7926 -0.8893
10402TIP3    H252622   2.353   3.549  15.132 -1.9004 -0.6268 -0.8219
10403TIP3   OH252623   0.936   2.502   0.316 -0.0220  0.2459  0.4510
10403TIP3    H152624   1.003   2.569   0.329 -0.0796  0.2600  0.6752
10403TIP3    H252625   0.983   2.419   0.325  0.5404  0.2236 -2.2191
10404TIP3   OH252626   6.524   0.664  12.991 -0.5241  0.2173 -0.1012
10404TIP3    H152627   6.603   0.696  12.947  0.3793 -1.3224  0.3833
10404TIP3    H252628   6.513   0.575  12.959  0.3889 -1.0896  3.0647
10405TIP3   OH252629   4.364   2.060  15.320 -0.2470  0.4926 -0.3800
10405TIP3    H152630   4.274   2.034  15.340 -0.4090  1.3624  0.0386
10405TIP3    H252631   4.400   2.087  15.405  1.2026 -2.2186 -0.0780
10406TIP3   OH252632   6.432   5.320  13.415  0.2040  0.5281  0.1785
10406TIP3    H152633   6.467   5.344  13.328  0.7572  1.3292  0.6132
10406TIP3    H252634   6.352   5.272  13.396  1.0429 -0.5004 -0.8187
10407TIP3   OH252635   3.307   1.945  12.840  0.7699 -0.1985  0.4135
10407TIP3    H152636   3.304   2.030  12.885  0.5768 -0.0640  0.1404
10407TIP3    H252637   3.223   1.904  12.860  0.5003  0.0504 -0.2020
10408TIP3   OH252638   4.698   2.774  11.449 -0.3907  0.1847 -1.1860
10408TIP3    H152639   4.678   2.856  11.494 -1.1545 -1.5328  1.7445
10408TIP3    H252640   4.752   2.725  11.511  0.0587 -1.5440 -2.8841
10409TIP3   OH252641   2.406   1.596  11.029  0.6276  0.1354  0.6751
10409TIP3    H152642   2.415   1.503  11.050  0.3742  0.2808  1.4593
10409TIP3    H252643   2.319   1.604  10.989  2.4069 -0.6736 -3.5017
10410TIP3   OH252644   0.906   6.294  16.985 -0.5454 -0.5984 -0.6580
10410TIP3    H152645   0.969   6.336  16.927  0.2282 -1.0115 -0.1158
10410TIP3    H252646   0.832   6.271  16.928  0.5094 -1.6538 -1.6153
10411TIP3   OH252647   4.927   6.698   2.630  0.3086  0.3309 -0.0041
10411TIP3    H152648   5.009   6.747   2.619  0.3759  0.7049  1.9582
10411TIP3    H252649   4.858   6.761   2.610  0.4037  1.2163  2.2820
10412TIP3   OH252650   3.008   3.629  10.473  0.0525 -0.3365  0.0143
10412TIP3    H152651   3.001   3.720  10.443  0.0751 -0.4183 -0.2354
10412TIP3    H252652   2.969   3.630  10.561  1.2788  0.1949  0.5696
10413TIP3   OH252653   0.321   2.932   6.010  0.2663  0.4811  0.2921
10413TIP3    H152654   0.323   2.967   6.099 -0.2789 -1.8734  1.2933
10413TIP3    H252655   0.368   2.849   6.016  0.7278  0.5604 -1.7691
10414TIP3   OH252656   2.109   6.446   1.631 -0.3519 -0.4637  0.0701
10414TIP3    H152657   2.028   6.418   1.673  1.0866 -2.2819  1.7374
10414TIP3    H252658   2.109   6.401   1.546 -0.6247 -1.2349  0.4753
10415TIP3   OH252659   6.728   0.550  16.876  0.3427  0.5295  0.0545
10415TIP3    H152660   6.658   0.616  16.881  0.9593  1.0971  1.5807
10415TIP3    H252661   6.723   0.503  16.959  0.6067 -0.6504 -0.5873
10416TIP3   OH252662   4.397   1.259  15.798 -0.2163 -0.1066 -0.2918
10416TIP3    H152663   4.444   1.339  15.820 -0.1261  0.1768 -1.4695
10416TIP3    H252664   4.463   1.191  15.799 -0.9969 -0.9883  4.9088
10417TIP3   OH252665   5.601   0.872   1.850 -0.1361 -0.1882  0.7931
10417TIP3    H152666   5.599   0.914   1.764  0.7958 -0.4641  0.6328
10417TIP3    H252667   5.642   0.787   1.835  1.0349  0.1978  1.6765
10418TIP3   OH252668   5.546   0.105  15.727  0.1139  0.1209 -0.1099
10418TIP3    H152669   5.617   0.114  15.663  0.5927  3.6868  0.8010
10418TIP3    H252670   5.566   0.026  15.775  2.3631 -0.0356 -1.2404
10419TIP3   OH252671   3.384   2.484  12.632 -0.5311  0.5429  0.7043
10419TIP3    H152672   3.374   2.405  12.579 -0.4413  0.6046  0.5965
10419TIP3    H252673   3.346   2.460  12.717 -1.1633  0.6216  0.4421
10420TIP3   OH252674   4.436   1.888   3.175  0.3293 -0.5291 -0.1030
10420TIP3    H152675   4.491   1.844   3.110 -2.2637 -3.2278 -0.5697
10420TIP3    H252676   4.378   1.819   3.208 -2.8743  2.2145  0.2740
10421TIP3   OH252677   3.351   6.304  11.644  0.2074  0.2486  0.4289
10421TIP3    H152678   3.443   6.306  11.672  1.0021 -0.2614 -2.0657
10421TIP3    H252679   3.333   6.393  11.612  0.2895 -0.0522 -0.4695
10422TIP3   OH252680   3.238   0.442  11.738 -0.1021  0.0045 -1.0463
10422TIP3    H152681   3.206   0.463  11.650 -1.2203  1.1802 -0.3819
10422TIP3    H252682   3.162   0.454  11.794  0.7234 -0.3115  0.1476
10423TIP3   OH252683   1.044   3.114  13.489  0.4063  0.5002  0.4339
10423TIP3    H152684   1.025   3.084  13.578  0.0879 -1.8873 -0.3930
10423TIP3    H252685   0.965   3.162  13.463 -0.9755 -1.8310  0.1969
10424TIP3   OH252686   3.961   4.183   6.485  0.1053 -0.4869 -0.3872
10424TIP3    H152687   4.024   4.164   6.416  0.5813 -1.1428  0.2269
10424TIP3    H252688   3.947   4.100   6.530 -0.7999 -0.2387 -0.1875
10425TIP3   OH252689   2.729   6.670   2.023 -1.3006  0.3479 -0.1883
10425TIP3    H152690   2.641   6.693   1.994 -1.4174  0.5820  0.3302
10425TIP3    H252691   2.780   6.660   1.942 -1.5647  1.1888 -0.4649
10426TIP3   OH252692   5.509   4.692   3.317 -1.1774 -0.2289 -0.2120
10426TIP3    H152693   5.500   4.778   3.357 -0.4982 -0.8528  1.3431
10426TIP3    H252694   5.423   4.673   3.280 -0.8379  1.8972 -2.2286
10427TIP3   OH252695   4.315   4.794  13.927 -0.1784  0.2829  0.3562
10427TIP3    H152696   4.341   4.800  13.835  0.9863 -0.9194  0.5766
10427TIP3    H252697   4.334   4.881  13.963  0.2756  0.4686 -0.3151
10428TIP3   OH252698   2.340   1.433  13.458 -0.2335  0.4337  0.2092
10428TIP3    H152699   2.257   1.404  13.496  0.3422 -1.1405  0.2823
10428TIP3    H252700   2.393   1.460  13.533 -0.4119  0.7415  0.2236
10429TIP3   OH252701   3.869   3.129  16.786  0.2398  0.2685 -0.1293
10429TIP3    H152702   3.849   3.036  16.789  1.2258  0.0181 -1.1208
10429TIP3    H252703   3.963   3.133  16.765  0.1742  1.4787 -0.2347
10430TIP3   OH252704   0.134   6.473   6.242  0.0320  0.1139 -0.7666
10430TIP3    H152705   0.209   6.456   6.299  0.2039  1.0177 -0.7167
10430TIP3    H252706   0.067   6.511   6.300  0.3460  1.3986 -1.2211
10431TIP3   OH252707   5.255   5.161   1.567  0.2731  0.2243 -0.2071
10431TIP3    H152708   5.230   5.083   1.518  0.4317 -0.5173  0.8792
10431TIP3    H252709   5.313   5.210   1.508  2.5189 -1.9094  0.1405
10432TIP3   OH252710   1.701   4.165  17.032 -0.1363 -0.4310 -0.0917
10432TIP3    H152711   1.715   4.259  17.046  0.0157 -0.3724 -0.6270
10432TIP3    H252712   1.627   4.144  17.089 -1.7478  0.5333 -1.7241
10433TIP3   OH252713   3.026   3.059  16.194 -0.0785 -0.2826 -0.0601
10433TIP3    H152714   2.978   3.120  16.138 -2.7731 -0.9727  1.3825
10433TIP3    H252715   2.959   3.022  16.251  1.5825 -4.0771 -0.4141
10434TIP3   OH252716   0.881   6.524  10.951  0.1513 -0.1956  0.8747
10434TIP3    H152717   0.916   6.499  10.865  1.1881  1.3490  0.8265
10434TIP3    H252718   0.833   6.605  10.934  0.3650  0.1172  1.7467
10435TIP3   OH252719   1.889   1.686  12.258 -0.5405 -0.1451 -0.7495
10435TIP3    H152720   1.950   1.725  12.320 -1.4183 -0.0612  0.0894
10435TIP3    H252721   1.819   1.751  12.248  0.2839  0.4487 -2.9401
10436TIP3   OH252722   4.229   4.794   2.593 -0.3299  0.0928  0.0795
10436TIP3    H152723   4.202   4.865   2.651  2.3121 -0.2471  1.8350
10436TIP3    H252724   4.173   4.720   2.617 -0.5182  0.4923  0.8775
10437TIP3   OH252725   4.246   3.997   4.858 -0.5439  0.1402 -0.1156
10437TIP3    H152726   4.281   4.076   4.817 -0.4600  0.3096  0.2812
10437TIP3    H252727   4.154   4.017   4.875 -0.7543 -0.1845 -0.8549
10438TIP3   OH252728   4.309   0.324   3.287  0.1751  0.2101  0.7867
10438TIP3    H152729   4.377   0.277   3.237  0.3908  0.5356  0.7761
10438TIP3    H252730   4.254   0.254   3.323 -1.3101  0.0258 -1.7534
10439TIP3   OH252731   2.341   0.250  16.095 -0.2289  0.0842 -0.5204
10439TIP3    H152732   2.325   0.212  16.008 -0.0814  0.0145 -0.5158
10439TIP3    H252733   2.312   0.341  16.087 -0.1865  0.0868 -0.6509
10440TIP3   OH252734   2.603   5.836   3.329  0.5001  0.2283 -0.1281
10440TIP3    H152735   2.674   5.794   3.282 -0.6056  0.4251 -2.0396
10440TIP3    H252736   2.599   5.925   3.293 -1.6719 -0.2525 -1.1781
10441TIP3   OH252737   3.624   1.902   3.969 -0.2563 -0.6046 -0.4472
10441TIP3    H152738   3.541   1.917   3.925 -0.2550  0.6737 -0.0329
10441TIP3    H252739   3.638   1.981   4.021  0.7900 -1.1821  0.1596
10442TIP3   OH252740   3.879   4.399   3.516  0.9090  0.4809 -0.0469
10442TIP3    H152741   3.879   4.494   3.506  1.1396  0.7346  2.1453
10442TIP3    H252742   3.928   4.383   3.597 -1.9025 -1.2621  1.4115
10443TIP3   OH252743   0.532   0.495   4.026 -0.4550 -0.3715  0.4492
10443TIP3    H152744   0.461   0.560   4.024  1.5186  1.8449 -1.0431
10443TIP3    H252745   0.495   0.418   3.983 -2.1077  0.5669  0.1296
10444TIP3   OH252746   2.918   0.252  13.103  0.0283  0.2302 -0.3047
10444TIP3    H152747   2.869   0.321  13.149  0.3744 -0.5557  1.2825
10444TIP3    H252748   2.944   0.293  13.020 -0.0610  1.9029  0.4560
10445TIP3   OH252749   3.724   3.315  15.016  0.4314  0.9148 -0.3226
10445TIP3    H152750   3.726   3.239  15.075  0.3132  0.0078 -1.4562
10445TIP3    H252751   3.808   3.358  15.029  1.3987 -0.6419 -1.2077
10446TIP3   OH252752   2.685   1.553  16.261  0.4988  0.0419 -0.1524
10446TIP3    H152753   2.698   1.459  16.253  0.2349  0.0053 -0.1458
10446TIP3    H252754   2.591   1.564  16.270  0.6396  0.1868  1.3681
10447TIP3   OH252755   4.729   6.501  13.016 -0.1876  0.0870 -0.9254
10447TIP3    H152756   4.667   6.441  13.058  1.6435 -1.9729 -1.0989
10447TIP3    H252757   4.811   6.452  13.010  1.5228  2.7938 -0.6361
10448TIP3   OH252758   6.462   1.615  15.823 -0.5300  0.2079  0.5194
10448TIP3    H152759   6.442   1.647  15.735  0.9492 -0.6527 -0.1467
10448TIP3    H252760   6.411   1.534  15.831 -0.4818  0.1657  0.3858
10449TIP3   OH252761   6.319   1.188  12.341 -0.0838 -0.1033 -0.1920
10449TIP3    H152762   6.337   1.141  12.260 -2.9862 -0.9721 -0.4058
10449TIP3    H252763   6.350   1.277  12.324 -1.3409 -0.0644 -2.5943
10450TIP3   OH252764   4.850   3.299  13.031  0.4245 -0.4737  0.0008
10450TIP3    H152765   4.771   3.257  12.996 -0.7675  0.2047  1.7883
10450TIP3    H252766   4.907   3.226  13.053 -0.2284 -1.0336 -0.1280
10451TIP3   OH252767   0.122   3.249  15.295  0.4647  0.2193 -0.4361
10451TIP3    H152768   0.101   3.316  15.360 -0.1292  0.6250 -1.0402
10451TIP3    H252769   0.178   3.294  15.231 -1.4345  0.6481 -1.8284
10452TIP3   OH252770   5.252   1.188   4.686 -0.5068  0.2780  0.1281
10452TIP3    H152771   5.234   1.162   4.596 -0.8411 -0.9226  0.5393
10452TIP3    H252772   5.218   1.277   4.693 -0.9025  0.1975 -0.7939
10453TIP3   OH252773   6.760   0.215  11.105 -0.1100  0.3931  0.1299
10453TIP3    H152774   6.839   0.172  11.137 -0.6932 -1.0010 -0.2849
10453TIP3    H252775   6.736   0.276  11.175  0.3386 -0.4304  1.0078
10454TIP3   OH252776   2.385   0.094  11.808  0.1607 -0.3993 -0.1049
10454TIP3    H152777   2.405   0.146  11.886  0.3207 -0.4288 -0.1243
10454TIP3    H252778   2.343   0.155  11.748 -2.1436 -0.9380  0.9201
10455TIP3   OH252779   5.331   4.818  16.906 -0.0730  0.9880 -0.0988
10455TIP3    H152780   5.280   4.884  16.858  0.2079  2.0002  0.9799
10455TIP3    H252781   5.273   4.791  16.977  0.1754  0.7280  0.0027
10456TIP3   OH252782   1.609   5.610  15.300 -0.2290 -0.4052  0.4128
10456TIP3    H152783   1.687   5.644  15.257 -0.3551  1.6134  1.7034
10456TIP3    H252784   1.643   5.552  15.368  0.1073 -0.3441  0.2978
10457TIP3   OH252785   3.875   2.590  17.039 -0.4003  0.0581  0.3225
10457TIP3    H152786   3.806   2.624  17.097  0.0349 -0.2267  1.0017
10457TIP3    H252787   3.917   2.520  17.089 -0.1965 -0.3724 -0.4417
10458TIP3   OH252788   0.991   1.170   2.467  0.3387  0.1383  0.2381
10458TIP3    H152789   0.963   1.080   2.452 -0.5632  0.5532 -0.6587
10458TIP3    H252790   1.069   1.181   2.413 -0.1127  0.1870 -0.4018
10459TIP3   OH252791   3.836   1.263  13.787 -0.4181 -0.1765 -0.6815
10459TIP3    H152792   3.925   1.283  13.758 -0.2291  0.5119  0.3568
10459TIP3    H252793   3.792   1.231  13.708  0.0254  1.8036 -1.7637
10460TIP3   OH252794   4.562   5.234   4.910  0.4210  0.2264  0.3238
10460TIP3    H152795   4.593   5.291   4.840 -0.3191  0.5462  0.2537
10460TIP3    H252796   4.539   5.152   4.867  1.0036  0.0460  0.3528
10461TIP3   OH252797   4.285   1.656  16.974 -0.0434 -0.0635 -0.2015
10461TIP3    H152798   4.223   1.602  16.924 -0.7808 -0.4433  1.0960
10461TIP3    H252799   4.305   1.603  17.052 -1.9912  2.1698  1.8934
10462TIP3   OH252800   6.575   3.623   3.707 -0.0356  0.0705 -0.1471
10462TIP3    H152801   6.604   3.634   3.798 -0.4854 -1.3889  0.1900
10462TIP3    H252802   6.581   3.710   3.669  2.6255  0.2271  0.5472
10463TIP3   OH252803   0.443   5.377  15.550 -0.3781  0.1297 -0.2596
10463TIP3    H152804   0.450   5.300  15.494  2.2947  0.0730  0.0601
10463TIP3    H252805   0.423   5.449  15.489  0.3281 -0.3005 -1.0146
10464TIP3   OH252806   0.583   5.715  15.566 -0.2861  0.6031 -0.3860
10464TIP3    H152807   0.488   5.706  15.558 -0.0096 -2.0861 -1.1780
10464TIP3    H252808   0.605   5.671  15.648  0.4162  0.0550 -0.8643
10465TIP3   OH252809   2.667   5.435  17.053 -0.3165  0.0842  0.2618
10465TIP3    H152810   2.630   5.518  17.083  1.3942  0.5185  1.2278
10465TIP3    H252811   2.756   5.434  17.089  0.3993 -1.2165 -1.4822
10466TIP3   OH252812   5.491   5.500   4.742 -0.0704 -0.3487 -0.1106
10466TIP3    H152813   5.433   5.445   4.794  0.5666  0.0199  0.9998
10466TIP3    H252814   5.434   5.567   4.704 -0.2601  0.4400  1.5570
10467TIP3   OH252815   3.985   3.105  10.857 -0.0596 -0.0707 -0.3364
10467TIP3    H152816   3.980   3.176  10.792  1.6484  0.9668  0.6207
10467TIP3    H252817   4.032   3.034  10.811 -0.1456  0.1142 -0.7124
10468TIP3   OH252818   1.853   0.037   5.639 -0.1936 -0.3341  0.5110
10468TIP3    H152819   1.943   0.068   5.630 -0.5486 -0.1772 -3.3047
10468TIP3    H252820   1.799   0.108   5.603 -1.5628 -2.0309 -0.8416
10469TIP3   OH252821   4.046   4.137  12.926  0.5475 -0.1687 -0.7265
10469TIP3    H152822   3.980   4.202  12.904  1.0335  0.9661  1.0571
10469TIP3    H252823   3.998   4.068  12.972  0.5329  0.4043  0.1093
10470TIP3   OH252824   1.975   2.972   4.468 -0.1471  0.0912  0.4859
10470TIP3    H152825   1.888   2.942   4.494  0.7599 -2.1155  1.0792
10470TIP3    H252826   2.029   2.960   4.546  0.7712  1.2242  0.0505
10471TIP3   OH252827   1.976   2.167  13.432 -0.3286 -0.0669  0.3310
10471TIP3    H152828   2.017   2.213  13.359 -0.6115  1.8760  1.3862
10471TIP3    H252829   1.993   2.074  13.413  0.1009  0.4240 -1.8960
10472TIP3   OH252830   2.675   5.021   3.861  0.0319 -0.1765  0.1828
10472TIP3    H152831   2.684   5.082   3.934  0.5153  0.7917 -0.6753
10472TIP3    H252832   2.732   5.057   3.793  1.0387 -2.0868 -0.0073
10473TIP3   OH252833   3.739   5.786   2.155  0.0017  0.3361  0.0807
10473TIP3    H152834   3.750   5.870   2.200  0.9616  0.6830 -0.7669
10473TIP3    H252835   3.646   5.765   2.165 -0.0172  0.9551  1.2521
10474TIP3   OH252836   1.062   5.648  13.925 -0.5209 -0.5574 -0.2250
10474TIP3    H152837   1.039   5.651  13.832 -0.2856 -0.4937 -0.2829
10474TIP3    H252838   1.153   5.678  13.928 -1.2074  1.5223  0.2633
10475TIP3   OH252839   0.996   1.271   4.166  0.1847  0.3815 -0.9227
10475TIP3    H152840   1.019   1.282   4.074 -1.5537 -0.7710 -1.5118
10475TIP3    H252841   0.922   1.330   4.179 -0.0444 -0.0110 -0.4487
10476TIP3   OH252842   4.574   0.181   4.836 -0.0235 -0.3443 -0.4352
10476TIP3    H152843   4.665   0.187   4.867 -0.1455  3.0518 -0.5718
10476TIP3    H252844   4.527   0.247   4.887 -1.9801 -0.5406 -1.9301
10477TIP3   OH252845   2.574   0.099   0.188  0.1243  0.0781  0.4218
10477TIP3    H152846   2.506   0.032   0.190  1.0448 -0.8567  0.7748
10477TIP3    H252847   2.539   0.166   0.129 -1.2095 -0.2641  0.8046
10478TIP3   OH252848   2.737   3.877  11.181  0.0662 -0.2373  0.1604
10478TIP3    H152849   2.664   3.886  11.243 -0.2188  0.6007 -0.2872
10478TIP3    H252850   2.705   3.917  11.101  1.8790  2.3141  0.6576
10479TIP3   OH252851   4.230   2.347  17.019  0.0890  0.1014  0.4741
10479TIP3    H152852   4.142   2.312  17.029 -0.0491  0.4310  0.3982
10479TIP3    H252853   4.227   2.433  17.060  0.7814 -0.5145  1.8449
10480TIP3   OH252854   3.458   3.269  16.834  0.0185 -0.5932 -0.2540
10480TIP3    H152855   3.377   3.320  16.841  0.4933  0.4178 -1.8636
10480TIP3    H252856   3.504   3.288  16.916 -0.6692  0.0535 -0.0035
10481TIP3   OH252857   6.416   3.827   6.168  0.0811  0.3073 -0.4885
10481TIP3    H152858   6.440   3.893   6.234  2.6211 -1.3835  0.3607
10481TIP3    H252859   6.342   3.781   6.206  0.1237  0.7975  0.2055
10482TIP3   OH252860   2.999   0.608   2.672  0.0427  0.0956  0.5951
10482TIP3    H152861   3.017   0.585   2.581 -0.0894  0.5664  0.4468
10482TIP3    H252862   2.985   0.703   2.670 -0.6147  0.0073  1.0012
10483TIP3   OH252863   2.205   4.290  16.447 -0.6531  0.0390 -0.5443
10483TIP3    H152864   2.124   4.313  16.402  0.8780  2.9117 -2.0010
10483TIP3    H252865   2.274   4.307  16.382  1.1429 -2.1227  0.7251
10484TIP3   OH252866   1.647   4.652   2.373  0.4747  0.0879 -0.6897
10484TIP3    H152867   1.614   4.683   2.457  0.2993 -0.9761 -0.3665
10484TIP3    H252868   1.573   4.607   2.333  1.3060 -1.6717 -0.2834
10485TIP3   OH252869   4.189   2.017  10.944 -0.0451  0.1346  0.6720
10485TIP3    H152870   4.243   1.964  10.885  0.6235  1.8088 -0.2346
10485TIP3    H252871   4.251   2.066  10.997 -0.6581 -0.4626  1.9547
10486TIP3   OH252872   5.480   6.181   2.143 -0.2341 -0.0625 -0.2335
10486TIP3    H152873   5.489   6.251   2.078  2.5478 -1.0243 -0.9415
10486TIP3    H252874   5.490   6.101   2.092 -3.3736 -1.0339  0.5756
10487TIP3   OH252875   5.300   0.611   3.736  0.6892 -0.4139  0.4715
10487TIP3    H152876   5.369   0.546   3.725 -0.0105 -1.1639  0.4622
10487TIP3    H252877   5.341   0.694   3.711  1.6684 -0.8042  0.7590
10488TIP3   OH252878   4.084   1.263  16.112 -0.3052 -0.2113 -0.6102
10488TIP3    H152879   4.121   1.179  16.084  0.0003 -0.3161  0.1004
10488TIP3    H252880   4.034   1.242  16.191 -0.2677  0.2711 -0.4601
10489TIP3   OH252881   0.023   4.905  12.521 -0.2039  0.0365 -0.3755
10489TIP3    H152882   0.042   4.944  12.607  0.8529  0.1500 -0.6430
10489TIP3    H252883   0.049   4.972  12.458 -0.6278 -0.1886 -0.7927
10490TIP3   OH252884   1.730   1.633  13.649  0.0071 -0.6568  0.4029
10490TIP3    H152885   1.653   1.651  13.702 -0.4950 -2.2361  0.2348
10490TIP3    H252886   1.746   1.539  13.660  2.4236 -0.2109  1.1173
10491TIP3   OH252887   0.823   5.993   0.124  0.5396 -0.4372 -0.2691
10491TIP3    H152888   0.803   6.076   0.081  1.0609 -0.6747 -0.9700
10491TIP3    H252889   0.907   5.966   0.088 -0.7357 -2.4612 -1.8315
10492TIP3   OH252890   6.666   5.995  15.771 -0.0159 -0.6090 -0.3216
10492TIP3    H152891   6.577   6.007  15.802 -0.0329 -1.8608  0.1778
10492TIP3    H252892   6.690   5.908  15.803  0.8409 -0.9014 -1.7338
10493TIP3   OH252893   6.438   2.312  16.993 -0.2636  0.1153 -0.8126
10493TIP3    H152894   6.399   2.293  17.078  0.4033  1.6835 -0.1151
10493TIP3    H252895   6.506   2.246  16.982 -0.0435  0.1854  0.1018
10494TIP3   OH252896   2.095   3.086  11.470  0.8526 -0.2634  0.3766
10494TIP3    H152897   2.091   3.028  11.394  2.7644  0.9047 -0.6689
10494TIP3    H252898   2.043   3.163  11.444  2.2157  0.5109 -0.1238
10495TIP3   OH252899   2.469   2.264  14.827 -0.2876 -0.2771 -0.4251
10495TIP3    H152900   2.466   2.169  14.811  0.5468 -0.0911 -1.7783
10495TIP3    H252901   2.384   2.296  14.796 -0.4361 -0.5388 -0.2875
10496TIP3   OH252902   4.980   5.209  13.203  0.4247 -0.3358  0.5664
10496TIP3    H152903   4.918   5.141  13.229 -0.3854  0.0255 -0.4039
10496TIP3    H252904   4.926   5.284  13.179  1.3351  1.0695  2.7213
10497TIP3   OH252905   1.765   5.547  15.536  0.1567  0.3658 -0.0633
10497TIP3    H152906   1.835   5.538  15.471  0.4224  0.4664  0.2095
10497TIP3    H252907   1.808   5.583  15.613 -0.2818  0.8815 -0.0530
10498TIP3   OH252908   2.752   0.973  16.706  0.2516  0.3839 -0.4259
10498TIP3    H152909   2.829   0.917  16.698  0.0283  0.0434 -0.2421
10498TIP3    H252910   2.692   0.922  16.761 -0.3577  0.3683 -1.1087
10499TIP3   OH252911   0.108   2.471  14.584 -0.0525 -0.5316 -0.4746
10499TIP3    H152912   0.020   2.436  14.596  0.0727 -1.1439 -1.2483
10499TIP3    H252913   0.125   2.523  14.662  0.2593 -3.2450  1.3122
10500TIP3   OH252914   2.767   2.545  16.651  0.5400 -0.1111  0.2716
10500TIP3    H152915   2.785   2.454  16.676  0.6573 -0.4486 -0.9919
10500TIP3    H252916   2.739   2.539  16.560 -2.6924  0.7646  1.1552
10501TIP3   OH252917   4.431   4.456   3.479  1.0562  0.2420 -0.1261
10501TIP3    H152918   4.440   4.460   3.384  2.6468  2.0737  0.0662
10501TIP3    H252919   4.397   4.368   3.496  1.1625 -0.2637 -2.3513
10502TIP3   OH252920   5.345   1.183  11.846  0.2447  0.6092  0.1229
10502TIP3    H152921   5.260   1.147  11.870 -0.1547  1.5687  0.1535
10502TIP3    H252922   5.390   1.110  11.802 -0.8212  0.2924 -0.4503
10503TIP3   OH252923   5.186   1.707   2.043 -0.4203 -0.3888  0.3203
10503TIP3    H152924   5.271   1.677   2.075 -0.5729  1.1291  2.2883
10503TIP3    H252925   5.132   1.714   2.122 -1.1377  2.5094 -0.3509
10504TIP3   OH252926   6.149   1.434   2.463  0.0951 -0.1553  0.4678
10504TIP3    H152927   6.148   1.366   2.397 -0.3630 -0.8727  1.2025
10504TIP3    H252928   6.196   1.507   2.422 -1.3918 -0.0704 -1.1470
10505TIP3   OH252929   0.226   5.930  15.606  1.0177  0.1167  0.2393
10505TIP3    H152930   0.260   5.906  15.520 -0.3853 -0.2950 -0.2262
10505TIP3    H252931   0.142   5.972  15.587  0.4287 -0.4930  1.4346
10506TIP3   OH252932   0.844   5.763  16.480  0.4067 -0.1684 -0.3086
10506TIP3    H152933   0.892   5.809  16.549 -0.3334 -0.0175  0.1109
10506TIP3    H252934   0.907   5.702  16.443  0.7762 -0.3171  0.5727
10507TIP3   OH252935   2.355   4.092  11.605  0.0825  0.6110  0.0913
10507TIP3    H152936   2.260   4.098  11.593 -0.0001  0.7588  0.7837
10507TIP3    H252937   2.389   4.169  11.560  0.0173 -0.3575 -1.6360
10508TIP3   OH252938   3.926   3.571  11.269  0.1078  0.0035 -0.3359
10508TIP3    H152939   3.902   3.558  11.178  0.4839  2.2214 -0.7753
10508TIP3    H252940   4.003   3.515  11.281  0.3758  0.1032 -1.5261
10509TIP3   OH252941   1.102   3.189   4.537  0.1899  0.1335 -0.3319
10509TIP3    H152942   1.162   3.240   4.590 -0.8235 -0.1625  1.1272
10509TIP3    H252943   1.069   3.250   4.471  1.9016  0.3453 -1.0176
10510TIP3   OH252944   5.512   0.802   5.247  0.6322  0.3407 -0.5995
10510TIP3    H152945   5.551   0.769   5.166  1.6553  0.5387 -0.1829
10510TIP3    H252946   5.447   0.866   5.217  0.3755 -0.2373 -1.3001
10511TIP3   OH252947   5.453   1.685  15.360 -0.3897  0.0313  0.4490
10511TIP3    H152948   5.514   1.620  15.325 -1.5249  0.2582 -2.0929
10511TIP3    H252949   5.509   1.752  15.399  0.9161 -0.6328 -0.2505
10512TIP3   OH252950   5.155   0.541  12.115 -0.0365 -0.7306 -0.9462
10512TIP3    H152951   5.198   0.475  12.171  0.5875 -0.2997 -0.9099
10512TIP3    H252952   5.218   0.613  12.111 -1.5256  0.7045  0.6224
10513TIP3   OH252953   2.424   2.375   3.219  0.2338 -0.1903  0.6986
10513TIP3    H152954   2.372   2.372   3.138  0.4910 -0.3660  0.5388
10513TIP3    H252955   2.371   2.425   3.280  0.4422  0.7525  0.1224
10514TIP3   OH252956   6.153   2.992   4.625 -0.7179 -0.2822 -0.2175
10514TIP3    H152957   6.082   2.998   4.688 -1.0588  2.2326 -0.8036
10514TIP3    H252958   6.209   2.922   4.659 -1.4843  0.2573  2.2620
10515TIP3   OH252959   1.037   3.171  14.609 -0.2069  0.0071  0.2489
10515TIP3    H152960   1.048   3.085  14.650 -1.0662 -0.7041 -0.9664
10515TIP3    H252961   0.982   3.220  14.670  0.8200 -0.0715  1.2519
10516TIP3   OH252962   5.985   2.461   1.013  0.3987  0.4684  0.1354
10516TIP3    H152963   5.965   2.445   0.921 -0.5220  0.1370  0.3908
10516TIP3    H252964   5.905   2.499   1.049  0.4391 -0.2318  1.0041
10517TIP3   OH252965   5.251   3.840   3.368  0.2640  0.0350  0.2455
10517TIP3    H152966   5.188   3.785   3.415 -1.0504 -0.1555 -1.6876
10517TIP3    H252967   5.199   3.913   3.335  1.1506  0.1250 -0.9638
10518TIP3   OH252968   6.139   0.088   2.429 -0.3778 -0.4768  0.1489
10518TIP3    H152969   6.139   0.163   2.488 -1.8333 -0.3636  0.0402
10518TIP3    H252970   6.221   0.095   2.381 -0.9698  1.6997 -0.6328
10519TIP3   OH252971   0.156   1.947  16.904 -0.2778 -0.3161  0.3529
10519TIP3    H152972   0.230   1.929  16.846  0.8940 -0.3717  1.8546
10519TIP3    H252973   0.192   2.002  16.973 -1.7153 -0.0648  0.9211
10520TIP3   OH252974   1.272   3.715   5.371 -0.5932 -0.3030 -0.9519
10520TIP3    H152975   1.285   3.623   5.351 -0.4019 -0.9322  1.8335
10520TIP3    H252976   1.253   3.717   5.465  1.0694  2.6272 -0.5959
10521TIP3   OH252977   3.692   3.733  17.002 -0.0888  0.2008  0.4315
10521TIP3    H152978   3.663   3.702  16.916  1.2927 -0.2377  0.1034
10521TIP3    H252979   3.635   3.687  17.064 -1.4939  0.9752 -0.2611
10522TIP3   OH252980   0.303   0.624   0.536  0.0068 -0.1209 -0.4404
10522TIP3    H152981   0.290   0.552   0.598  1.1623  2.5688  3.0590
10522TIP3    H252982   0.397   0.625   0.520 -0.1478 -0.0743 -1.3764
10523TIP3   OH252983   4.976   4.824  13.081 -0.2766 -0.7687 -0.0341
10523TIP3    H152984   5.026   4.742  13.086 -0.5847 -0.8904  1.0555
10523TIP3    H252985   4.981   4.860  13.169 -1.4900 -0.4065 -0.1159
10524TIP3   OH252986   4.089   6.092   0.127  0.6049  0.4766 -0.4402
10524TIP3    H152987   4.072   6.096   0.033  0.0334 -2.4141 -0.5089
10524TIP3    H252988   4.182   6.071   0.135  0.6267  0.6049 -0.3454
10525TIP3   OH252989   4.264   4.425   4.991 -0.3070  0.1067 -0.2158
10525TIP3    H152990   4.281   4.497   4.930 -0.3841  0.4348  0.1450
10525TIP3    H252991   4.220   4.359   4.939  1.0512 -0.2787 -0.9035
10526TIP3   OH252992   5.692   1.756  17.168 -0.0173 -0.5109  0.3766
10526TIP3    H152993   5.731   1.671  17.190 -1.7568 -2.0077 -2.0838
10526TIP3    H252994   5.693   1.805  17.251  1.1927 -2.8339  1.7943
10527TIP3   OH252995   2.731   2.026  16.196  0.2317  0.2019 -0.5053
10527TIP3    H152996   2.656   2.074  16.161 -1.4432 -2.1395 -0.2395
10527TIP3    H252997   2.776   1.991  16.118 -0.3913 -0.4831 -0.5579
10528TIP3   OH252998   3.223   1.284  15.903  0.0960 -0.3287 -0.1135
10528TIP3    H152999   3.301   1.237  15.932  0.7854  0.0355 -1.3563
10528TIP3    H253000   3.154   1.256  15.964  1.8851  1.8230  3.0694
10529TIP3   OH253001   0.950   5.665   6.157 -0.2648 -0.5278 -0.1286
10529TIP3    H153002   1.008   5.661   6.232 -0.6729 -1.5450  0.1401
10529TIP3    H253003   0.924   5.757   6.151 -1.1822 -0.6417  1.7020
10530TIP3   OH253004   5.341   3.903  11.855 -0.6518 -0.5161  0.1736
10530TIP3    H153005   5.251   3.934  11.865 -0.8727 -0.7691 -0.9647
10530TIP3    H253006   5.370   3.939  11.771  0.3047 -0.4605  0.5163
10531TIP3   OH253007   5.779   6.170  13.864  0.8530 -0.4236 -0.5306
10531TIP3    H153008   5.835   6.163  13.941  0.3994  0.8112 -0.0828
10531TIP3    H253009   5.809   6.099  13.806  1.4362 -1.1217  0.6128
10532TIP3   OH253010   4.794   5.115  13.601 -0.2222  0.5161  0.5893
10532TIP3    H153011   4.744   5.195  13.587 -1.8024 -0.6167 -0.3409
10532TIP3    H253012   4.734   5.056  13.646 -0.6988 -1.8430 -2.9630
10533TIP3   OH253013   1.046   2.334  14.055  0.2118 -0.4439  0.2632
10533TIP3    H153014   1.094   2.275  13.997  1.2569 -0.7199  1.4063
10533TIP3    H253015   1.021   2.281  14.130  1.0695  0.5106  1.2523
10534TIP3   OH253016   5.021   3.702  16.463  0.4427  0.0677 -0.0242
10534TIP3    H153017   5.029   3.795  16.442 -1.3020  0.1872 -0.2699
10534TIP3    H253018   5.007   3.700  16.558  1.1901  0.0091  0.0862
10535TIP3   OH253019   0.848   0.727  16.768  0.5915 -0.4415 -0.0568
10535TIP3    H153020   0.937   0.755  16.793 -0.4331  1.6184  1.4636
10535TIP3    H253021   0.813   0.801  16.719 -1.1751 -0.1439  1.5944
10536TIP3   OH253022   1.295   5.927  13.037  0.2757  0.2174  0.1884
10536TIP3    H153023   1.379   5.972  13.026  0.3450 -0.4679 -2.1880
10536TIP3    H253024   1.235   5.974  12.980 -0.7408  0.1001  1.1476
10537TIP3   OH253025   6.085   2.014  15.673  0.1426  0.4823 -0.2508
10537TIP3    H153026   6.080   2.089  15.614  0.7588 -0.4469 -1.5335
10537TIP3    H253027   6.115   1.942  15.617 -0.6695 -0.7787  0.8895
10538TIP3   OH253028   2.525   5.312  14.836 -0.0167 -0.7731  0.3153
10538TIP3    H153029   2.432   5.335  14.841  0.0530 -0.5809  0.7364
10538TIP3    H253030   2.558   5.325  14.925  0.6135  0.0371 -0.0252
10539TIP3   OH253031   5.502   5.864  14.971 -0.5839  0.0580  0.3624
10539TIP3    H153032   5.565   5.793  14.985 -0.3808  0.4236  1.3007
10539TIP3    H253033   5.472   5.851  14.881  0.6274 -0.2770 -0.0043
10540TIP3   OH253034   5.451   3.320   5.640  0.4283 -0.7666 -0.2426
10540TIP3    H153035   5.487   3.259   5.576  0.8892 -1.0833  0.3170
10540TIP3    H253036   5.472   3.407   5.605  2.2534 -0.9520  0.3793
10541TIP3   OH253037   6.784   6.546  11.871 -0.2476 -0.3435  0.5640
10541TIP3    H153038   6.811   6.561  11.961  1.4807  0.2281 -0.0388
10541TIP3    H253039   6.807   6.627  11.825  0.3282 -1.2144 -0.7022
10542TIP3   OH253040   0.037   3.610   4.456 -0.5099  0.4069 -0.0993
10542TIP3    H153041   0.060   3.641   4.369 -0.4823  0.0306 -0.2247
10542TIP3    H253042   0.088   3.665   4.516  0.5686 -0.3025 -0.3633
10543TIP3   OH253043   0.203   4.638   2.306 -0.0694  0.4633  0.0192
10543TIP3    H153044   0.250   4.719   2.324  0.5641  0.5587 -2.0448
10543TIP3    H253045   0.227   4.614   2.217 -1.6131 -1.0719 -0.0244
10544TIP3   OH253046   2.973   5.891  15.333 -0.1442  0.2226 -0.1393
10544TIP3    H153047   3.030   5.818  15.309 -0.1992  0.0486  0.2690
10544TIP3    H253048   2.961   5.939  15.251 -0.6040 -0.5647 -0.5344
10545TIP3   OH253049   3.367   5.864  15.426  0.8530 -0.3657 -0.1900
10545TIP3    H153050   3.419   5.941  15.404  1.5594 -0.1168  2.1998
10545TIP3    H253051   3.429   5.803  15.466 -0.4138 -0.5093  1.6586
10546TIP3   OH253052   0.521   5.603   1.617 -0.1645  0.0706 -0.1996
10546TIP3    H153053   0.614   5.624   1.616 -0.3145  0.9385  1.4757
10546TIP3    H253054   0.510   5.546   1.693 -0.7412 -1.3166 -1.3196
10547TIP3   OH253055   3.572   5.784  14.854 -0.7689 -0.0768 -0.2124
10547TIP3    H153056   3.507   5.812  14.919 -0.4654 -1.0066  0.5129
10547TIP3    H253057   3.630   5.725  14.903 -0.0846 -0.1884 -1.1487
10548TIP3   OH253058   0.119   2.966  16.001  0.0237  0.0079  0.5157
10548TIP3    H153059   0.138   3.048  15.956  0.0400 -0.8181 -1.0119
10548TIP3    H253060   0.054   2.923  15.946 -1.5249 -0.0917  2.3579
10549TIP3   OH253061   1.825   0.669  11.994  0.7556  0.1450 -0.0957
10549TIP3    H153062   1.793   0.683  11.905  0.4355  0.7720  0.1201
10549TIP3    H253063   1.774   0.729  12.048 -0.1323 -1.3089  0.7371
10550TIP3   OH253064   2.727   3.828  16.884  0.0496  0.4370  0.5001
10550TIP3    H153065   2.758   3.740  16.864 -1.4621  0.2268 -0.9634
10550TIP3    H253066   2.647   3.815  16.935 -1.0362  0.9225 -1.0359
10551TIP3   OH253067   5.498   5.553  15.633 -0.5919 -0.5332  0.4720
10551TIP3    H153068   5.425   5.523  15.579 -0.5771 -1.2353  0.8346
10551TIP3    H253069   5.483   5.512  15.719 -0.0747 -0.2381  0.7070
10552TIP3   OH253070   2.374   2.583   3.553 -0.5059  0.1424  0.2530
10552TIP3    H153071   2.411   2.656   3.505  1.3619  0.0726  1.5151
10552TIP3    H253072   2.448   2.545   3.600 -1.4447 -2.5343 -0.3464
10553TIP3   OH253073   5.850   1.416  15.563 -0.3045 -0.0390  0.1466
10553TIP3    H153074   5.920   1.395  15.625 -0.8911 -1.1243  0.4626
10553TIP3    H253075   5.893   1.467  15.495  0.7355 -0.4286  0.4964
10554TIP3   OH253076   1.982   2.691  13.267  0.1919 -0.1234  0.3420
10554TIP3    H153077   1.970   2.627  13.337  0.3770  1.4968  1.8840
10554TIP3    H253078   1.929   2.766  13.295  0.2102  0.5062 -1.2997
10555TIP3   OH253079   5.547   3.164   0.245 -0.1405  0.0730 -0.1840
10555TIP3    H153080   5.488   3.089   0.242 -0.5380  0.3406  0.8003
10555TIP3    H253081   5.634   3.125   0.251 -0.3759 -0.3160  0.8262
10556TIP3   OH253082   6.562   0.271  17.065  0.0772  0.4264  0.5644
10556TIP3    H153083   6.507   0.298  16.992  1.2055  0.6711 -0.2094
10556TIP3    H253084   6.529   0.184  17.089 -0.7749  0.6584  0.2684
10557TIP3   OH253085   5.275   4.767  13.786 -0.7091 -0.6333  0.0162
10557TIP3    H153086   5.353   4.822  13.799 -0.0534 -1.5057 -0.1746
10557TIP3    H253087   5.203   4.820  13.820  0.0219  0.0230  0.5790
10558TIP3   OH253088   3.003   1.067   6.133  0.1890 -0.2005 -0.3137
10558TIP3    H153089   3.086   1.058   6.179 -0.7436  1.0779  1.6893
10558TIP3    H253090   2.982   0.978   6.105  1.6214 -0.7345  0.2415
10559TIP3   OH253091   2.157   0.149  15.321 -0.9435  0.3687  0.3418
10559TIP3    H153092   2.101   0.076  15.294  0.0880 -0.0895 -0.6017
10559TIP3    H253093   2.213   0.112  15.389  1.4529 -0.5203 -2.0284
10560TIP3   OH253094   3.774   1.527  13.076 -0.6437 -0.9259 -0.3469
10560TIP3    H153095   3.788   1.603  13.019 -1.5506  0.9033  1.8028
10560TIP3    H253096   3.685   1.498  13.056 -1.2703  0.2279  0.6685
10561TIP3   OH253097   2.631   1.395  11.706 -0.2508 -0.0170  0.3770
10561TIP3    H153098   2.608   1.485  11.726  0.5725 -0.2960  2.6688
10561TIP3    H253099   2.716   1.401  11.662 -0.4696  0.3598  0.0005
10562TIP3   OH253100   3.680   1.855  14.884 -0.2822  0.0124 -0.2902
10562TIP3    H153101   3.741   1.927  14.865  1.3195 -0.9047  1.2786
10562TIP3    H253102   3.717   1.780  14.838 -0.7808 -0.3102 -0.1600
10563TIP3   OH253103   0.895   3.147  14.977  0.5746  0.0240 -0.5294
10563TIP3    H153104   0.895   3.236  15.011  0.1268  0.4309 -1.5878
10563TIP3    H253105   0.909   3.092  15.054 -2.6206  0.7806  0.6744
10564TIP3   OH253106   4.248   1.115   3.095  0.0057  0.6599 -0.3017
10564TIP3    H153107   4.196   1.050   3.143  0.6153  1.0905  0.9638
10564TIP3    H253108   4.288   1.065   3.024 -0.0125 -0.2369  0.3051
10565TIP3   OH253109   4.724   1.876   3.717  0.3055 -0.3868  0.5245
10565TIP3    H153110   4.743   1.959   3.761 -0.2318  0.4007 -0.6971
10565TIP3    H253111   4.671   1.901   3.641  0.2982 -1.8311  0.0415
10566TIP3   OH253112   3.939   3.696  15.659  0.4704  0.6783  0.0796
10566TIP3    H153113   3.977   3.650  15.734  0.8434  1.0528  0.1279
10566TIP3    H253114   4.006   3.761  15.636  0.8489 -0.1763 -1.2765
10567TIP3   OH253115   3.522   6.448   2.522 -0.1642 -0.5790 -0.2800
10567TIP3    H153116   3.435   6.411   2.536 -1.0930  1.0793 -1.5136
10567TIP3    H253117   3.574   6.417   2.596 -1.7395 -1.7480  0.3614
10568TIP3   OH253118   3.247   2.768  14.070 -1.0857  0.3776 -0.0315
10568TIP3    H153119   3.306   2.749  14.143  0.9412 -0.2362 -1.7682
10568TIP3    H253120   3.223   2.682  14.036 -1.0112  0.6730 -0.8460
10569TIP3   OH253121   0.046   5.148   3.409 -0.3256  0.2481 -0.7203
10569TIP3    H153122  -0.014   5.113   3.475 -1.8506  0.0340 -2.1952
10569TIP3    H253123  -0.007   5.212   3.360  0.8021  0.4505 -1.7045
10570TIP3   OH253124   0.598   2.676   2.946  0.2518  0.1138  0.2919
10570TIP3    H153125   0.644   2.593   2.956  1.4644  0.6330 -0.8080
10570TIP3    H253126   0.642   2.719   2.872 -0.8775  1.3817  0.3361
10571TIP3   OH253127   0.101   3.189  16.389  0.0092 -0.3408 -0.0720
10571TIP3    H153128   0.083   3.169  16.297 -0.3999  0.5797 -0.1988
10571TIP3    H253129   0.161   3.121  16.417 -0.1294 -0.8246 -0.9317
10572TIP3   OH253130   5.628   2.921   4.526 -0.0176 -0.2814  0.6458
10572TIP3    H153131   5.536   2.939   4.509  0.2599  0.8208  0.2777
10572TIP3    H253132   5.627   2.859   4.599 -1.0272  0.6007  1.4046
10573TIP3   OH253133   3.414   3.189  11.391 -0.1972 -0.2051  0.0053
10573TIP3    H153134   3.483   3.135  11.427  0.1889  0.0952 -0.2809
10573TIP3    H253135   3.459   3.262  11.350 -0.4386 -1.7895 -3.2593
10574TIP3   OH253136   2.326   2.426   2.116  0.1502 -0.0864 -0.2637
10574TIP3    H153137   2.360   2.443   2.204  0.2897  0.7564 -0.4732
10574TIP3    H253138   2.236   2.396   2.130  1.1625 -3.0028  0.3339
10575TIP3   OH253139   4.900   2.695  16.280 -0.1653  0.0565 -0.7116
10575TIP3    H153140   4.875   2.729  16.365  0.8710 -0.6042 -0.1272
10575TIP3    H253141   4.985   2.736  16.262 -0.1547 -0.1775 -1.2037
10576TIP3   OH253142   4.308   1.837  11.147 -0.0664 -0.4200 -0.0707
10576TIP3    H153143   4.272   1.892  11.077  0.4867  0.8852  0.6427
10576TIP3    H253144   4.244   1.845  11.218  0.3446 -0.1760  0.2723
10577TIP3   OH253145   6.759   3.697  14.457  0.2472  0.0233 -0.0133
10577TIP3    H153146   6.780   3.785  14.489  0.1455 -0.5206  1.6345
10577TIP3    H253147   6.825   3.641  14.499 -1.5090 -1.0661  1.3604
10578TIP3   OH253148   4.251   4.927   6.961 -0.1713 -0.6035  0.3602
10578TIP3    H153149   4.341   4.931   6.928 -0.7388 -0.6280 -1.2373
10578TIP3    H253150   4.253   4.976   7.043  0.9598  0.7883 -0.4883
10579TIP3   OH253151   6.088   1.928   0.545 -0.0178  0.5350 -0.2922
10579TIP3    H153152   6.181   1.932   0.567  0.2584 -0.7448 -1.1728
10579TIP3    H253153   6.045   1.902   0.627  0.3794  1.2777  0.1523
10580TIP3   OH253154   3.104   1.780   4.111  0.1243  0.2139  0.1076
10580TIP3    H153155   3.064   1.867   4.111 -3.4189 -1.3083  0.6544
10580TIP3    H253156   3.119   1.761   4.204 -0.4388 -0.2933  0.1008
10581TIP3   OH253157   1.517   5.740  16.439  0.4614 -0.0021  0.2483
10581TIP3    H153158   1.527   5.674  16.369 -0.6619  0.3502 -0.2653
10581TIP3    H253159   1.583   5.716  16.504  0.6609 -1.1151 -0.3420
10582TIP3   OH253160   3.151   4.628  11.062  0.1405  0.3375  0.8212
10582TIP3    H153161   3.092   4.587  10.998 -0.7806 -0.6985  2.3129
10582TIP3    H253162   3.168   4.715  11.026 -1.0461  0.0840 -0.4145
10583TIP3   OH253163   4.139   3.174   2.638 -0.0420  0.2914  0.2332
10583TIP3    H153164   4.081   3.113   2.683 -1.3574  1.1205 -0.3153
10583TIP3    H253165   4.165   3.129   2.558  0.0404 -0.0693  0.4634
10584TIP3   OH253166   3.971   5.722  16.683  0.0314 -0.2603 -0.5150
10584TIP3    H153167   4.052   5.687  16.720 -1.6266 -2.0464  1.5004
10584TIP3    H253168   3.920   5.751  16.759 -0.7720  1.9015 -1.8299
10585TIP3   OH253169   3.637   3.528   4.287  0.4941  0.0677 -0.4684
10585TIP3    H153170   3.659   3.611   4.328 -0.6532 -0.6406  1.6607
10585TIP3    H253171   3.693   3.524   4.209 -1.1861  3.9025 -1.9669
10586TIP3   OH253172   0.708   1.090   4.152 -0.4589 -0.2300  0.1253
10586TIP3    H153173   0.622   1.047   4.150  0.2516 -1.6739 -0.1224
10586TIP3    H253174   0.714   1.126   4.240 -1.7483  0.7736 -0.1883
10587TIP3   OH253175   0.693   6.186  15.446  0.4401  0.3581  0.3762
10587TIP3    H153176   0.641   6.119  15.491  0.4545 -0.4983 -0.8601
10587TIP3    H253177   0.757   6.214  15.512  0.3854 -0.7898  0.9384
10588TIP3   OH253178   0.063   3.210   5.774  0.5406 -0.1320  0.7664
10588TIP3    H153179   0.101   3.170   5.695 -0.2527  0.3683  0.1232
10588TIP3    H253180   0.139   3.231   5.828  1.3140  2.1052 -1.1114
10589TIP3   OH253181   1.504   3.752  17.232  0.6459 -0.0553 -0.6614
10589TIP3    H153182   1.414   3.781  17.248  1.4655  1.3080  1.8907
10589TIP3    H253183   1.526   3.786  17.146 -1.1042  0.0693 -1.0624
10590TIP3   OH253184   3.419   3.958  14.535 -0.3961  0.0580  0.2589
10590TIP3    H153185   3.507   3.958  14.497 -1.1516 -0.3187 -1.5302
10590TIP3    H253186   3.413   4.041  14.582  0.2997  0.8890 -1.0842
10591TIP3   OH253187   6.269   0.073   5.908  0.1082  0.3406  0.2555
10591TIP3    H153188   6.175   0.083   5.919 -0.4343 -2.5454 -1.0736
10591TIP3    H253189   6.278   0.034   5.820  2.6433  2.0990 -0.3084
10592TIP3   OH253190   0.378   5.260   2.375  0.0736  0.3010 -0.0336
10592TIP3    H153191   0.466   5.232   2.400 -0.6109  0.4390  2.6341
10592TIP3    H253192   0.342   5.300   2.454 -2.5721 -0.2032 -0.9364
10593TIP3   OH253193   1.732   0.755   4.478 -0.1881 -0.1014 -0.2753
10593TIP3    H153194   1.687   0.812   4.541 -0.7519 -2.4710  1.5356
10593TIP3    H253195   1.663   0.699   4.442  0.9185 -2.3140  0.9468
10594TIP3   OH253196   6.336   0.846   4.065 -0.4359  0.2966  0.1888
10594TIP3    H153197   6.312   0.938   4.049  0.9838  0.5758 -0.3917
10594TIP3    H253198   6.339   0.807   3.978  1.3370  0.3086  0.2230
10595TIP3   OH253199   6.568   5.081  16.175 -0.3794  0.6350  0.2370
10595TIP3    H153200   6.634   5.117  16.116  0.8488 -1.9408 -0.0319
10595TIP3    H253201   6.533   5.006  16.128 -1.0178 -0.0762  1.8369
10596TIP3   OH253202   2.629   6.431   2.626 -0.4106 -0.1495 -0.3154
10596TIP3    H153203   2.673   6.465   2.548 -0.6147 -0.9640 -0.7874
10596TIP3    H253204   2.572   6.503   2.653  1.3014  0.9910  0.4066
10597TIP3   OH253205   5.386   0.083   1.103 -0.0940  0.2861 -0.3278
10597TIP3    H153206   5.310   0.119   1.059  0.4530  1.0020 -0.6978
10597TIP3    H253207   5.357   0.066   1.192  0.0062  2.9708  0.2625
10598TIP3   OH253208   3.457   4.301  13.127  0.0714 -0.1232  0.2079
10598TIP3    H153209   3.479   4.384  13.083 -0.7823  0.5946  1.1090
10598TIP3    H253210   3.542   4.265  13.153  0.5220 -0.1077 -1.2153
10599TIP3   OH253211   3.348   5.814   6.450  0.7089  0.0746 -0.2448
10599TIP3    H153212   3.329   5.720   6.442 -2.1150  0.5824  0.1113
10599TIP3    H253213   3.326   5.851   6.365 -1.9031  0.9903  0.7879
10600TIP3   OH253214   5.758   3.218   1.650  0.5352  0.4166 -0.1209
10600TIP3    H153215   5.776   3.146   1.711  0.4953 -1.0068 -1.7507
10600TIP3    H253216   5.662   3.227   1.652  0.5359  0.3998  0.0436
10601TIP3   OH253217   4.664   5.973  12.706  0.9687  0.0750  0.2301
10601TIP3    H153218   4.623   6.059  12.708  1.2684  0.2535 -0.8962
10601TIP3    H253219   4.602   5.918  12.656  1.0797 -0.1971  0.3898
10602TIP3   OH253220   5.869   3.056  14.593 -0.3753 -0.2438  0.2133
10602TIP3    H153221   5.783   3.016  14.583  0.9205 -2.8953 -0.7006
10602TIP3    H253222   5.901   3.024  14.678 -0.3764  0.9138  0.6554
10603TIP3   OH253223   6.447   1.305   6.412  0.0047 -0.0378  0.3896
10603TIP3    H153224   6.522   1.248   6.427  0.3224  0.4319  0.6154
10603TIP3    H253225   6.378   1.247   6.381  0.1850 -0.6127  1.0414
10604TIP3   OH253226   3.851   4.149  11.420 -0.1833 -0.6681  0.9491
10604TIP3    H153227   3.875   4.148  11.512  2.5922  0.0295  0.3066
10604TIP3    H253228   3.786   4.219  11.412 -0.2797 -0.5968  2.3280
10605TIP3   OH253229   0.226   3.086  13.142  0.7408  0.4374  0.0000
10605TIP3    H153230   0.138   3.101  13.109  0.7457 -1.8390 -1.0553
10605TIP3    H253231   0.213   3.053  13.231  0.5630  0.9549  0.1664
10606TIP3   OH253232   2.167   0.497   2.205  0.6143 -0.1507 -0.4425
10606TIP3    H153233   2.250   0.505   2.253 -0.2237 -0.5337  1.1185
10606TIP3    H253234   2.142   0.406   2.216 -0.5234  0.2035 -0.0387
10607TIP3   OH253235   5.400   1.867  14.834  0.4713  0.3358 -0.4990
10607TIP3    H153236   5.374   1.942  14.780 -0.1144  0.1500 -0.4694
10607TIP3    H253237   5.379   1.790  14.781 -3.2071  0.0098  1.2970
10608TIP3   OH253238   4.819   0.319  11.043 -0.0167  0.2901  0.4469
10608TIP3    H153239   4.810   0.403  10.997  0.5700 -0.2657 -0.7109
10608TIP3    H253240   4.730   0.294  11.065 -0.1836  1.3396  1.0222
10609TIP3   OH253241   1.430   4.173   0.639  0.0773 -0.0846 -0.5571
10609TIP3    H153242   1.475   4.226   0.573  2.0974  0.1584  0.9423
10609TIP3    H253243   1.423   4.230   0.715 -2.3308 -0.3261 -0.5624
10610TIP3   OH253244   3.632   3.450   1.690  0.0880  0.5275  0.8602
10610TIP3    H153245   3.538   3.439   1.673  0.0121  1.6927  0.5161
10610TIP3    H253246   3.644   3.544   1.698  1.1401  0.3449  1.4695
10611TIP3   OH253247   0.506   0.965  13.318 -0.4148 -0.2491 -0.2317
10611TIP3    H153248   0.591   0.969  13.361 -1.4687 -0.8632  1.9561
10611TIP3    H253249   0.516   1.020  13.240  1.9452 -0.2617  0.0281
10612TIP3   OH253250   3.931   3.153  14.375 -0.6346  0.2003 -0.2516
10612TIP3    H153251   3.932   3.232  14.429 -1.0770 -1.1742  1.8597
10612TIP3    H253252   3.927   3.185  14.285  1.4258  2.5997  0.4337
10613TIP3   OH253253   5.189   2.685   1.314  0.1151 -0.3016 -0.1067
10613TIP3    H153254   5.181   2.668   1.408  2.6991 -0.2503  0.1554
10613TIP3    H253255   5.103   2.662   1.278 -0.2941 -2.1994  1.9752
10614TIP3   OH253256   3.892   3.736  15.986  0.0842 -0.0027  0.1638
10614TIP3    H153257   3.893   3.640  15.986  1.8724 -0.0139  1.9870
10614TIP3    H253258   3.973   3.761  15.941 -0.5200  0.6728 -0.5690
10615TIP3   OH253259   3.051   5.494   4.132 -0.2272 -0.3602  0.7707
10615TIP3    H153260   2.957   5.480   4.119 -0.2831  0.8623 -0.2685
10615TIP3    H253261   3.073   5.440   4.207 -1.7781 -0.6245  1.0576
10616TIP3   OH253262   3.965   3.766  14.076 -0.3311 -0.6431  0.4626
10616TIP3    H153263   3.881   3.803  14.102  0.1597 -0.0335  1.1889
10616TIP3    H253264   3.961   3.761  13.980 -2.1778 -2.9394  0.6020
10617TIP3   OH253265   2.935   0.397  13.781 -0.4383 -0.5617  0.6914
10617TIP3    H153266   2.969   0.401  13.691  0.8291  1.0651  1.2160
10617TIP3    H253267   2.892   0.481  13.794  2.8151  0.8575  2.8942
10618TIP3   OH253268   1.038   2.957  16.536 -0.0683 -0.0743 -0.2225
10618TIP3    H153269   1.050   2.949  16.630 -1.1028  1.1043  0.0361
10618TIP3    H253270   1.086   2.884  16.498  3.0807  1.2732  1.0209
10619TIP3   OH253271   5.076   6.707   0.666 -0.2731 -0.3416 -1.4962
10619TIP3    H153272   5.130   6.785   0.655  0.8191 -0.8664  0.1198
10619TIP3    H253273   4.990   6.733   0.631 -0.4053  2.1538  0.5238
10620TIP3   OH253274   2.851   0.912   3.473  0.3800  0.6891  0.2625
10620TIP3    H153275   2.845   0.819   3.451  3.3835  0.3262  0.6506
10620TIP3    H253276   2.764   0.936   3.502 -0.7545 -1.7100 -0.9814
10621TIP3   OH253277   3.956   4.872   2.986 -0.1102  0.2706 -0.1868
10621TIP3    H153278   3.890   4.802   2.978 -0.0726  0.1899  0.2050
10621TIP3    H253279   3.987   4.865   3.076 -0.0185  0.7173 -0.1838
10622TIP3   OH253280   4.852   6.166   4.915 -0.0745 -0.1145  0.2238
10622TIP3    H153281   4.785   6.177   4.983  1.2012  1.8588  1.1977
10622TIP3    H253282   4.805   6.180   4.833 -2.0848 -4.5622  0.4707
10623TIP3   OH253283   1.737   0.181  15.557  0.0616  0.3897 -0.2262
10623TIP3    H153284   1.823   0.178  15.598 -0.6917 -0.0006  1.3729
10623TIP3    H253285   1.747   0.132  15.475  0.9155 -1.1440  0.7858
10624TIP3   OH253286   1.780   3.646  15.257 -0.6000 -0.1642  0.5223
10624TIP3    H153287   1.859   3.625  15.208 -1.3980 -1.7351 -0.1157
10624TIP3    H253288   1.809   3.654  15.348  0.1491 -1.6582  0.4261
10625TIP3   OH253289   5.481   1.446  15.918  1.0341 -0.8540  0.4630
10625TIP3    H153290   5.530   1.467  15.997  0.0176  0.4961  0.7480
10625TIP3    H253291   5.498   1.520  15.859 -0.5792 -0.3855  0.5479
10626TIP3   OH253292   5.132   1.546  10.982 -0.1157  0.0571  0.3261
10626TIP3    H153293   5.130   1.628  10.933 -0.5386  2.6426  4.4243
10626TIP3    H253294   5.055   1.499  10.952  0.7275  0.5769 -2.9038
10627TIP3   OH253295   4.098   3.375  11.284 -0.1988 -0.2534  0.5552
10627TIP3    H153296   4.155   3.302  11.306 -0.5131 -0.4384  0.7555
10627TIP3    H253297   4.019   3.334  11.248  1.6179  0.0855 -4.2126
10628TIP3   OH253298   4.144   4.954   3.623  0.5539  0.3447 -0.1777
10628TIP3    H153299   4.050   4.958   3.602  0.5995  0.0675 -0.4449
10628TIP3    H253300   4.187   4.964   3.539  0.7775  1.1277  0.0328
10629TIP3   OH253301   1.108   1.135  10.851 -0.1783 -0.1126  0.9387
10629TIP3    H153302   1.187   1.086  10.874 -1.0256 -0.8175  2.3851
10629TIP3    H253303   1.134   1.227  10.856  1.2906 -0.3723 -1.3132
10630TIP3   OH253304   3.222   0.885  13.231  0.2705  0.0185 -0.0250
10630TIP3    H153305   3.145   0.931  13.265 -0.6022 -0.3407 -1.4617
10630TIP3    H253306   3.264   0.847  13.308 -0.7217  0.6318  0.8272
10631TIP3   OH253307   6.357   3.405  14.781 -0.0766  0.0117 -0.5749
10631TIP3    H153308   6.363   3.356  14.699 -1.5355 -0.5474 -0.3520
10631TIP3    H253309   6.294   3.357  14.834  0.0305  0.9828  0.4595
10632TIP3   OH253310   4.091   4.471   0.887 -0.5838 -0.2980  0.1261
10632TIP3    H153311   4.147   4.541   0.852  2.3260 -1.9572  1.3078
10632TIP3    H253312   4.097   4.401   0.822 -0.6444 -0.7838  0.6376
10633TIP3   OH253313   2.508   5.496  12.204 -0.3362  0.3706 -0.3820
10633TIP3    H153314   2.441   5.478  12.139 -0.8214  1.6029 -0.2411
10633TIP3    H253315   2.475   5.572  12.252  0.7897  0.4993  0.2072
10634TIP3   OH253316   6.562   6.764  16.239 -0.4642  0.3292 -0.3933
10634TIP3    H153317   6.560   6.810  16.323  0.1815  1.7089 -1.1100
10634TIP3    H253318   6.477   6.720  16.233 -0.5018  0.1934  0.9862
10635TIP3   OH253319   5.006   5.874  14.933  0.7367 -0.2937 -0.3674
10635TIP3    H153320   4.938   5.859  14.867  0.8806  0.5835 -0.7228
10635TIP3    H253321   4.959   5.873  15.017  0.3485 -0.1198 -0.5793
10636TIP3   OH253322   5.827   0.177  15.610 -0.3080 -0.7402  0.0984
10636TIP3    H153323   5.758   0.218  15.559  0.9596  0.7406 -0.4427
10636TIP3    H253324   5.869   0.249  15.658 -0.5654 -1.9055  2.1559
10637TIP3   OH253325   3.109   6.367   5.644  0.0273  0.4445 -0.0230
10637TIP3    H153326   3.120   6.279   5.679 -2.1526  0.3542  0.5272
10637TIP3    H253327   3.179   6.376   5.579 -0.1089 -1.9332 -0.5484
10638TIP3   OH253328   1.729   0.428  16.422 -0.2495  0.0688 -0.0419
10638TIP3    H153329   1.819   0.412  16.393  0.2148 -0.5995  1.7084
10638TIP3    H253330   1.706   0.351  16.475 -1.5190  0.6593  0.3009
10639TIP3   OH253331   5.352   0.472   0.377  0.0150 -0.1798 -0.0343
10639TIP3    H153332   5.409   0.438   0.308 -0.2009 -0.5805 -0.0186
10639TIP3    H253333   5.409   0.484   0.452  0.1908 -0.0328 -0.1923
10640TIP3   OH253334   1.538   2.530  10.481  0.2395  0.1071 -0.2481
10640TIP3    H153335   1.477   2.464  10.514 -0.7596  1.3651  0.4702
10640TIP3    H253336   1.483   2.592  10.433  0.9590  1.1903  0.3102
10641TIP3   OH253337   5.021   4.524   5.971 -0.0327 -0.6941 -0.3198
10641TIP3    H153338   5.056   4.613   5.970 -0.7373 -0.4070  0.0178
10641TIP3    H253339   5.079   4.475   6.029  1.1267 -0.7814 -1.5231
10642TIP3   OH253340   4.739   0.379   0.009  0.0456 -0.0724  0.0685
10642TIP3    H153341   4.796   0.424  -0.052  0.2434  0.2901  0.5181
10642TIP3    H253342   4.776   0.399   0.095 -1.7298  1.5612  0.4879
10643TIP3   OH253343   4.862   3.394  11.198  0.6600 -0.7220 -0.2736
10643TIP3    H153344   4.824   3.309  11.176  1.3580 -1.4215  1.1178
10643TIP3    H253345   4.921   3.413  11.125  1.6845 -2.1952  0.1336
10644TIP3   OH253346   1.150   0.327  12.883  0.1063 -0.2617 -0.1745
10644TIP3    H153347   1.120   0.370  12.963  0.6870 -0.8988  0.3990
10644TIP3    H253348   1.106   0.373  12.812  0.8145  1.3803  0.4160
10645TIP3   OH253349   1.995   1.977   1.576  0.3575  0.4633  0.0511
10645TIP3    H153350   1.922   2.038   1.575 -1.0031 -1.0719  2.2218
10645TIP3    H253351   2.033   1.984   1.488 -1.3773  2.4452 -0.5912
10646TIP3   OH253352   1.260   2.655  14.566 -0.6303  0.6049 -0.3936
10646TIP3    H153353   1.226   2.599  14.497  0.3111  0.8643 -1.0718
10646TIP3    H253354   1.247   2.605  14.647 -0.2333 -0.3832 -0.9390
10647TIP3   OH253355   0.833   0.417   0.684  0.3528  0.1961 -0.2417
10647TIP3    H153356   0.826   0.416   0.780  2.7868  2.6411  0.0305
10647TIP3    H253357   0.816   0.327   0.658  0.5852 -0.7113  2.5765
10648TIP3   OH253358   0.628   5.630  11.229 -0.2630  0.2237  0.0519
10648TIP3    H153359   0.700   5.653  11.170  0.6971 -1.3286  0.6036
10648TIP3    H253360   0.647   5.541  11.257 -0.8802  0.8030  2.4533
10649TIP3   OH253361   6.661   1.440   3.422  0.3054 -0.1645 -0.1694
10649TIP3    H153362   6.749   1.463   3.454  0.6969 -1.6717 -0.0853
10649TIP3    H253363   6.676   1.406   3.334 -0.6286  2.7767 -1.5222
10650TIP3   OH253364   5.397   2.439  15.939 -0.4957 -0.0947 -0.7810
10650TIP3    H153365   5.428   2.392  16.017  1.2532 -1.0432 -2.0053
10650TIP3    H253366   5.339   2.506  15.973  0.4746 -0.2948  1.3824
10651TIP3   OH253367   3.008   6.785   4.084 -0.4539  0.7675 -0.5234
10651TIP3    H153368   2.967   6.844   4.021  1.3452  0.2926 -2.1625
10651TIP3    H253369   3.056   6.843   4.143 -1.8983  1.1879  0.2789
10652TIP3   OH253370   2.501   1.736   2.257  0.0212  0.2255  0.3027
10652TIP3    H153371   2.505   1.685   2.338  0.6146 -0.7422 -0.3407
10652TIP3    H253372   2.592   1.755   2.235 -0.0569 -0.6883 -0.8752
10653TIP3   OH253373   1.310   2.337   2.129 -1.0804 -0.1608  0.2223
10653TIP3    H153374   1.337   2.342   2.037 -3.0612 -1.0424 -0.4376
10653TIP3    H253375   1.315   2.244   2.150  0.2247  0.1375  1.2931
10654TIP3   OH253376   6.398   1.377  16.946 -0.0176  0.1619  0.6596
10654TIP3    H153377   6.396   1.380  17.042  0.0151  2.4558  0.5991
10654TIP3    H253378   6.490   1.393  16.923  0.0429 -0.7351  0.2413
10655TIP3   OH253379   6.766   0.048  15.187  0.4378 -0.0955 -0.4192
10655TIP3    H153380   6.694   0.009  15.237  1.0784  0.0250  0.6124
10655TIP3    H253381   6.730   0.060  15.100 -1.0189  0.5539  0.2483
10656TIP3   OH253382   0.189   6.746   0.031 -0.1665  0.0828  0.0736
10656TIP3    H153383   0.234   6.708  -0.045 -0.7509  0.5610 -0.5142
10656TIP3    H253384   0.112   6.691   0.044  0.9522 -1.1864  1.5413
10657TIP3   OH253385   2.788   5.517   5.278  0.4857  0.0254  0.2446
10657TIP3    H153386   2.852   5.449   5.259  0.7942  0.4278 -0.1878
10657TIP3    H253387   2.813   5.550   5.364  0.2589 -0.4917  0.5097
10658TIP3   OH253388   4.502   3.104  13.122 -0.1375  0.2035 -0.9575
10658TIP3    H153389   4.596   3.094  13.138 -0.1345  0.3111 -0.9067
10658TIP3    H253390   4.469   3.015  13.112 -0.2904  0.0885  0.5036
10659TIP3   OH253391   2.931   2.368  12.691  0.3371 -0.9054 -0.2149
10659TIP3    H153392   3.022   2.346  12.709  0.8691  2.7544  1.9362
10659TIP3    H253393   2.884   2.285  12.705  2.7828 -1.8651  3.0191
10660TIP3   OH253394   1.937   1.862   2.724 -0.4205  0.0026  0.1148
10660TIP3    H153395   1.997   1.935   2.737 -1.8500  1.3542 -0.6025
10660TIP3    H253396   1.903   1.843   2.811 -0.4535  0.5750  0.2323
10661TIP3   OH253397   3.114   3.973  16.947  0.1020 -0.1982 -0.4914
10661TIP3    H153398   3.122   3.930  16.861 -1.4911  1.8262 -1.6865
10661TIP3    H253399   3.205   3.992  16.972  0.5719 -0.4616 -1.9079
10662TIP3   OH253400   6.265   0.128  13.852 -0.0020  0.5433 -0.0001
10662TIP3    H153401   6.228   0.168  13.774  1.6524 -0.2764 -1.2445
10662TIP3    H253402   6.260   0.196  13.919 -1.7031  1.1583 -0.7255
10663TIP3   OH253403   0.393   6.578   0.599 -0.2243  0.0086  0.3974
10663TIP3    H153404   0.468   6.581   0.658 -0.3075  2.1009  0.4313
10663TIP3    H253405   0.322   6.620   0.648 -0.1964  2.1067 -1.2685
10664TIP3   OH253406   4.935   4.146  13.881 -0.5506 -0.2940  0.0150
10664TIP3    H153407   4.912   4.207  13.951  0.9914 -0.4068  0.6475
10664TIP3    H253408   4.980   4.074  13.925 -0.2570 -0.7458 -1.0042
10665TIP3   OH253409   5.874   4.682  10.800  0.0422 -0.6369 -0.0471
10665TIP3    H153410   5.852   4.614  10.736 -1.0009 -0.0153 -0.3702
10665TIP3    H253411   5.962   4.710  10.776 -1.3451  1.4551 -2.8973
10666TIP3   OH253412   5.564   6.312  12.099 -0.2250  0.6703 -0.1014
10666TIP3    H153413   5.494   6.377  12.099  0.4677  1.4231  0.5288
10666TIP3    H253414   5.522   6.231  12.129 -0.7537  1.1947  0.5735
10667TIP3   OH253415   4.168   0.739  14.540  0.2674 -0.2334 -0.3781
10667TIP3    H153416   4.139   0.669  14.482 -2.2727 -0.2633  0.8414
10667TIP3    H253417   4.096   0.803  14.538 -0.2084 -0.5539  3.1641
10668TIP3   OH253418   4.551   3.377   1.385 -0.3957  0.4490 -0.0570
10668TIP3    H153419   4.514   3.458   1.349  0.0974  1.0709  0.8117
10668TIP3    H253420   4.535   3.384   1.479  0.1574 -0.2020  0.0841
10669TIP3   OH253421   5.831   4.828  13.723 -0.0361  0.2255  0.2184
10669TIP3    H153422   5.822   4.823  13.818 -0.0372  1.1461  0.2799
10669TIP3    H253423   5.793   4.914  13.701 -0.7950 -0.3403 -0.7044
10670TIP3   OH253424   4.034   3.702   5.833  0.1285  0.0881 -0.0808
10670TIP3    H153425   4.034   3.624   5.888  0.0221  1.7173  2.3328
10670TIP3    H253426   3.942   3.729   5.828  0.3671  1.0449  0.5755
10671TIP3   OH253427   0.902   5.590   4.143  0.0097 -0.0419  0.1003
10671TIP3    H153428   0.920   5.598   4.050 -0.2806  2.0991  0.1947
10671TIP3    H253429   0.973   5.639   4.185 -0.2522 -0.3928  0.9586
10672TIP3   OH253430   3.234   0.108   2.179  0.2059 -0.3584 -0.5579
10672TIP3    H153431   3.211   0.147   2.094  0.7291  0.3148 -0.3961
10672TIP3    H253432   3.189   0.162   2.243  0.0459 -0.6906 -0.3947
10673TIP3   OH253433   3.732   5.423   0.927  0.1249 -0.2403  0.0995
10673TIP3    H153434   3.667   5.427   0.997 -1.5713 -0.1006 -1.4239
10673TIP3    H253435   3.742   5.329   0.909  0.7834 -0.2927  0.7065
10674TIP3   OH253436   2.640   5.754  13.486  0.4048 -0.5495  0.5779
10674TIP3    H153437   2.592   5.725  13.409 -1.2928 -1.3549  1.9080
10674TIP3    H253438   2.661   5.845  13.469 -1.0766 -0.3615 -0.2921
10675TIP3   OH253439   1.866   1.793  12.933  0.0441  0.1575  0.4799
10675TIP3    H153440   1.920   1.750  12.867 -0.1148 -0.7349  0.9260
10675TIP3    H253441   1.906   1.769  13.016 -1.2196 -0.7867  0.8348
10676TIP3   OH253442   6.717   4.189   5.365  0.1673  0.0491 -0.5765
10676TIP3    H153443   6.751   4.133   5.295 -1.0120  0.6601 -1.6618
10676TIP3    H253444   6.747   4.277   5.342  0.5012  0.1289  0.1515
10677TIP3   OH253445   1.808   1.966  15.981  0.5529  0.1999  0.2170
10677TIP3    H153446   1.889   1.920  15.961  0.9431  0.7091  0.5909
10677TIP3    H253447   1.786   2.013  15.901  0.7948  0.3027  0.2097
10678TIP3   OH253448   4.388   3.376   0.419 -0.1185 -0.0240 -0.1018
10678TIP3    H153449   4.344   3.396   0.337 -1.1437  0.0514  0.4618
10678TIP3    H253450   4.320   3.338   0.475  0.6414 -0.3809  0.5985
10679TIP3   OH253451   2.989   3.653  13.088 -0.0113  0.0207 -0.2240
10679TIP3    H153452   3.066   3.597  13.103  0.9513  0.7515 -2.2608
10679TIP3    H253453   3.026   3.739  13.069 -1.2850  0.0747 -2.5108
10680TIP3   OH253454   5.602   3.910  16.630 -0.3590  0.4283 -0.0415
10680TIP3    H153455   5.540   3.884  16.562 -1.3255  1.0344  0.5984
10680TIP3    H253456   5.687   3.912  16.585 -0.2917 -3.3789 -0.1944
10681TIP3   OH253457   2.246   4.136   3.766 -0.0104  0.4146 -0.2440
10681TIP3    H153458   2.159   4.148   3.805  0.7710  3.2949  0.7582
10681TIP3    H253459   2.239   4.177   3.679  0.5695  1.4841  0.1994
10682TIP3   OH253460   6.042   4.829  13.105  0.3644  0.4335 -0.1943
10682TIP3    H153461   6.051   4.896  13.037 -1.8007 -0.8897 -1.9013
10682TIP3    H253462   6.103   4.760  13.078  1.9182  1.3020  1.0539
10683TIP3   OH253463   1.922   4.473   2.225  0.2034 -0.3055 -0.3896
10683TIP3    H153464   1.969   4.501   2.146 -1.0964 -0.6439 -1.2981
10683TIP3    H253465   1.866   4.547   2.247  1.1462  0.0928  0.6886
10684TIP3   OH253466   2.747   5.601  15.669  0.3763  0.0306 -0.3505
10684TIP3    H153467   2.838   5.629  15.676  0.9387 -1.6203 -0.8192
10684TIP3    H253468   2.749   5.526  15.610 -0.8889 -1.7642  1.7593
10685TIP3   OH253469   2.349   0.520   5.534 -0.1765 -0.6404 -0.9595
10685TIP3    H153470   2.367   0.451   5.599 -0.1287 -3.1745 -3.5528
10685TIP3    H253471   2.428   0.573   5.533  0.1037 -1.0042  0.5299
10686TIP3   OH253472   5.732   2.778  16.742 -0.2192  0.0341 -0.3979
10686TIP3    H153473   5.677   2.739  16.674  0.1489  2.6269 -2.2465
10686TIP3    H253474   5.670   2.800  16.812 -0.7656 -1.5789 -0.3360
10687TIP3   OH253475   1.386   5.014   5.090 -0.1797 -0.6213  0.3461
10687TIP3    H153476   1.321   4.945   5.102 -1.2526  0.3469  0.1801
10687TIP3    H253477   1.402   5.048   5.178 -0.0220 -0.7442  0.3654
10688TIP3   OH253478   0.500   2.721   3.802 -0.0557  0.0632  0.4767
10688TIP3    H153479   0.444   2.666   3.856 -0.9289 -0.4704 -0.9444
10688TIP3    H253480   0.588   2.686   3.814 -0.3309 -0.4168  1.0939
10689TIP3   OH253481   3.846   3.803  16.651 -0.0235 -0.1022 -0.0265
10689TIP3    H153482   3.911   3.826  16.584 -1.1709 -0.7885 -1.4071
10689TIP3    H253483   3.790   3.881  16.658 -0.7104 -0.5092 -0.8589
10690TIP3   OH253484   1.391   0.691  15.174  0.1560 -0.3319 -0.0257
10690TIP3    H153485   1.314   0.671  15.228 -1.2238  1.1151 -1.3811
10690TIP3    H253486   1.430   0.768  15.216 -0.4527  0.2975 -0.5822
10691TIP3   OH253487   5.230   4.529  11.250 -0.4747  0.2187  0.0190
10691TIP3    H153488   5.267   4.617  11.253  0.1068 -0.0368  0.2954
10691TIP3    H253489   5.305   4.471  11.261 -0.6576 -0.3518 -1.5521
10692TIP3   OH253490   1.570   3.163  11.482 -0.7243 -0.1891 -0.1967
10692TIP3    H153491   1.579   3.152  11.387  1.5085 -0.8390  0.0855
10692TIP3    H253492   1.646   3.119  11.519 -0.9476  1.0937  1.8440
10693TIP3   OH253493   1.918   3.863   3.230  0.0040 -0.2574  0.2518
10693TIP3    H153494   2.011   3.860   3.209  0.2897 -0.8297  1.5671
10693TIP3    H253495   1.909   3.937   3.289 -0.4599  0.0872 -0.2423
10694TIP3   OH253496   3.417   0.208  16.567 -0.0833 -0.1556 -0.1956
10694TIP3    H153497   3.417   0.161  16.651  0.1151  1.2042  0.5832
10694TIP3    H253498   3.347   0.167  16.517 -1.3603  0.1243  1.2997
10695TIP3   OH253499   2.761   2.900   6.384  0.1493 -0.4042 -0.3623
10695TIP3    H153500   2.847   2.934   6.358 -0.0075 -0.1601 -0.5577
10695TIP3    H253501   2.767   2.806   6.366  0.3425 -0.3740 -0.4670
10696TIP3   OH253502   6.213   3.628  14.663 -0.0538 -0.0640  0.2348
10696TIP3    H153503   6.289   3.593  14.710 -0.3126  0.0539  0.7478
10696TIP3    H253504   6.197   3.714  14.704  1.8063  1.5873 -2.3535
10697TIP3   OH253505   3.747   1.831   0.073 -0.1323 -0.3202  0.4962
10697TIP3    H153506   3.654   1.853   0.064  0.3559  1.9020  0.5463
10697TIP3    H253507   3.790   1.915   0.089  1.6580 -1.5762  2.5038
10698TIP3   OH253508   2.956   2.986   3.922  0.0325 -0.4990 -0.4631
10698TIP3    H153509   2.940   3.080   3.923 -1.5692 -0.7710  0.9554
10698TIP3    H253510   3.009   2.972   3.843  0.6290  1.6253 -0.4789
10699TIP3   OH253511   4.539   5.286   5.975  0.5135  0.2123  0.3978
10699TIP3    H153512   4.464   5.263   5.919  1.5223  0.6621 -1.1411
10699TIP3    H253513   4.584   5.355   5.928  1.8369  0.0370  1.3937
10700TIP3   OH253514   1.782   3.886   2.581 -0.2359 -0.3569  0.0998
10700TIP3    H153515   1.720   3.877   2.508  0.9867 -0.8351 -0.8842
10700TIP3    H253516   1.739   3.949   2.640 -0.4845  1.3845 -1.8508
10701TIP3   OH253517   0.870   6.104   3.992  0.2803  0.0755  0.2041
10701TIP3    H153518   0.925   6.062   3.926 -2.9667  0.7182 -3.1461
10701TIP3    H253519   0.903   6.194   3.996  0.5290  0.0272 -0.5601
10702TIP3   OH253520   0.002   4.709   4.774  0.0664  0.0960  0.8106
10702TIP3    H153521  -0.001   4.651   4.697  0.9276  1.4088 -0.2342
10702TIP3    H253522   0.090   4.745   4.773 -0.1502  0.6726  2.0264
10703TIP3   OH253523   0.461   4.539   0.425  0.0838  0.6791  0.2455
10703TIP3    H153524   0.530   4.475   0.407 -0.1352 -0.1572  2.1489
10703TIP3    H253525   0.482   4.572   0.513 -1.2256  1.3579  0.3110
10704TIP3   OH253526   4.994   6.369   3.207 -0.3562  0.1302  0.0588
10704TIP3    H153527   5.031   6.354   3.294 -0.3520 -1.1900 -0.1484
10704TIP3    H253528   5.070   6.379   3.149 -0.2877 -1.7723 -0.2320
10705TIP3   OH253529   5.708   4.358  11.790 -0.4293  0.2202 -0.0030
10705TIP3    H153530   5.722   4.325  11.702  2.8130  0.7872  0.2210
10705TIP3    H253531   5.730   4.285  11.847 -1.8276  0.0725  0.3578
10706TIP3   OH253532   6.389   2.643   5.441  0.0570 -0.0696  0.2978
10706TIP3    H153533   6.481   2.658   5.419  0.4285 -3.4616 -0.8315
10706TIP3    H253534   6.341   2.688   5.371  0.9101  0.4428  0.0297
10707TIP3   OH253535   5.624   2.024   5.875 -0.0431 -0.0669 -1.4912
10707TIP3    H153536   5.700   2.071   5.841  0.7602 -1.0751 -1.1198
10707TIP3    H253537   5.587   2.082   5.942 -0.3471  0.9675 -2.5424
10708TIP3   OH253538   1.938   4.335  15.019  0.4265 -0.6037 -0.3136
10708TIP3    H153539   1.927   4.241  15.027  0.6646 -0.5914  0.2224
10708TIP3    H253540   1.948   4.366  15.110 -0.6237  0.0554 -0.4042
10709TIP3   OH253541   5.086   5.453   1.969 -0.4357  0.5647 -0.3502
10709TIP3    H153542   5.146   5.524   1.990  3.1497 -2.2648 -0.6257
10709TIP3    H253543   5.103   5.433   1.877 -0.8086 -1.1810 -0.0599
10710TIP3   OH253544   6.272   4.579  16.701  0.4395  0.3728  0.1166
10710TIP3    H153545   6.225   4.503  16.666 -1.0858  0.5266  1.7203
10710TIP3    H253546   6.274   4.642  16.630  0.1125 -0.4739 -0.6506
10711TIP3   OH253547   4.747   2.487  15.102  0.3523 -0.4568  0.4599
10711TIP3    H153548   4.735   2.556  15.037 -3.7198  0.2137  1.8237
10711TIP3    H253549   4.787   2.415  15.053 -0.5495  0.8241 -2.2799
10712TIP3   OH253550   5.238   1.865   3.928 -0.4007  0.5787  0.2489
10712TIP3    H153551   5.292   1.864   3.849  0.1454  1.1909  0.6139
10712TIP3    H253552   5.155   1.824   3.900  0.0932  0.0122 -0.4089
10713TIP3   OH253553   4.535   2.760   0.116 -0.2731 -0.4814  0.1636
10713TIP3    H153554   4.596   2.765   0.190  0.2001  0.5348 -0.2952
10713TIP3    H253555   4.473   2.691   0.141  1.4545 -2.0096  0.3301
10714TIP3   OH253556   3.379   3.721   2.086 -0.0974  0.1519  0.7818
10714TIP3    H153557   3.409   3.631   2.081 -0.0317  0.1939  0.4255
10714TIP3    H253558   3.421   3.756   2.164  1.2465  0.3841 -0.0422
10715TIP3   OH253559   5.055   1.230  14.726 -0.1794 -0.1078 -0.1649
10715TIP3    H153560   5.055   1.193  14.638  0.2375  1.0639 -0.6582
10715TIP3    H253561   5.114   1.305  14.721  1.0315 -0.9025  1.4760
10716TIP3   OH253562   4.975   0.210  13.386  0.2098  0.6829  0.0500
10716TIP3    H153563   5.069   0.199  13.402  0.3315 -0.1962 -1.1686
10716TIP3    H253564   4.959   0.302  13.402  1.1104  0.6640  1.1430
10717TIP3   OH253565   0.892   2.675   2.577  0.3683 -0.0812 -0.5717
10717TIP3    H153566   0.953   2.680   2.503  1.1411 -2.0364 -0.0905
10717TIP3    H253567   0.857   2.586   2.573  2.7819 -1.3075  3.2667
10718TIP3   OH253568   2.235   3.277  15.125  0.1238 -0.0738 -0.4901
10718TIP3    H153569   2.323   3.241  15.115  0.0274 -0.6923  0.7544
10718TIP3    H253570   2.201   3.281  15.036 -0.5265 -4.8308 -0.6141
10719TIP3   OH253571   5.662   2.431   4.941  0.2790  0.2981  0.3826
10719TIP3    H153572   5.614   2.365   4.891 -0.0579  0.8731 -0.0636
10719TIP3    H253573   5.753   2.419   4.915  0.2024  0.0743  0.2154
10720TIP3   OH253574   4.377   5.201   3.603  0.1276  0.5134  0.5005
10720TIP3    H153575   4.295   5.197   3.554  1.0416 -1.1462 -0.9195
10720TIP3    H253576   4.440   5.240   3.543  0.9073 -0.2191  0.8286
10721TIP3   OH253577   5.925   1.885  11.582 -0.1736 -0.3627 -0.2275
10721TIP3    H153578   5.894   1.801  11.617 -1.3088  0.3643  0.5522
10721TIP3    H253579   5.902   1.882  11.490 -2.5526  0.1309  0.3179
10722TIP3   OH253580   5.526   3.181   2.212 -0.0589 -0.0063 -0.2291
10722TIP3    H153581   5.502   3.259   2.162 -0.7633 -0.8873 -1.2780
10722TIP3    H253582   5.530   3.212   2.303 -0.9594  1.1069 -0.5514
10723TIP3   OH253583   5.806   3.720   6.136  0.3621  0.3720 -0.2309
10723TIP3    H153584   5.794   3.638   6.184 -0.1065 -0.1891 -1.2854
10723TIP3    H253585   5.847   3.779   6.199 -1.8786  0.2250  1.4291
10724TIP3   OH253586   0.262   3.632  15.179 -0.0123 -0.3112  0.4870
10724TIP3    H153587   0.292   3.675  15.100  1.7442 -0.0679  1.2611
10724TIP3    H253588   0.166   3.628  15.170  0.0162  1.4320 -0.7417
10725TIP3   OH253589   2.024   6.752   5.334  0.3945  0.4760 -0.2569
10725TIP3    H153590   2.100   6.808   5.321  0.4621  0.7566  1.1996
10725TIP3    H253591   2.060   6.664   5.344  0.4096  0.3974 -0.9758
10726TIP3   OH253592   5.413   6.369   5.658 -0.5212 -0.7453  0.4996
10726TIP3    H153593   5.317   6.368   5.656 -0.5366 -0.1255  0.8108
10726TIP3    H253594   5.435   6.343   5.748 -0.4103 -0.3538  0.5862
10727TIP3   OH253595   4.733   3.300  17.010 -0.4876 -0.5030 -0.1970
10727TIP3    H153596   4.815   3.319  16.965  0.5748 -0.4493  1.6900
10727TIP3    H253597   4.700   3.220  16.969  0.3802 -0.3690 -1.1490
10728TIP3   OH253598   5.551   3.733   1.272 -0.4683 -0.2133  1.2968
10728TIP3    H153599   5.546   3.660   1.210 -0.5402  0.5275  0.4220
10728TIP3    H253600   5.490   3.709   1.342 -0.6221 -0.9137  0.9269
10729TIP3   OH253601   6.238   5.852  12.962 -0.0740  0.3941 -0.3641
10729TIP3    H153602   6.287   5.934  12.955  0.1622  0.2511 -0.3742
10729TIP3    H253603   6.147   5.879  12.969 -0.1026  0.6301 -1.5161
10730TIP3   OH253604   5.553   2.577  14.061 -0.1405 -0.4827 -0.2317
10730TIP3    H153605   5.640   2.584  14.021 -0.8003  2.2695 -1.2862
10730TIP3    H253606   5.569   2.596  14.154  0.2382  1.3115 -0.6352
10731TIP3   OH253607   5.727   6.271   1.990 -0.1970  0.0191  0.0462
10731TIP3    H153608   5.723   6.175   1.985  2.8067 -0.2383  1.6365
10731TIP3    H253609   5.793   6.295   1.925 -0.3233  0.9586  0.2634
10732TIP3   OH253610   2.653   0.850   5.638  0.4755 -0.5900  0.3359
10732TIP3    H153611   2.558   0.860   5.644  0.2973 -1.2923 -1.0861
10732TIP3    H253612   2.687   0.940   5.635 -0.2705 -0.3426 -0.8771
10733TIP3   OH253613   1.116   0.811  16.654  0.2240  0.1802  0.3702
10733TIP3    H153614   1.117   0.776  16.743  1.9880  2.7465  1.4555
10733TIP3    H253615   1.163   0.746  16.601 -0.7720 -1.3264  1.3253
10734TIP3   OH253616   3.753   0.027  16.195 -0.2415  0.2905  0.2861
10734TIP3    H153617   3.679   0.011  16.137 -0.6195  0.6422  0.6651
10734TIP3    H253618   3.714   0.037  16.282  0.1646  1.3338  0.3543
10735TIP3   OH253619   0.989   4.157  14.032  0.3486 -0.0888 -0.2840
10735TIP3    H153620   0.932   4.081  14.038  0.2808  0.0072  0.2516
10735TIP3    H253621   1.077   4.121  14.027  0.1663 -0.3038 -2.6613
10736TIP3   OH253622   1.640   0.011  14.242 -0.4650 -0.5403 -0.2558
10736TIP3    H153623   1.589  -0.030  14.312  0.7264 -1.1638  0.2772
10736TIP3    H253624   1.605   0.099  14.235 -0.8493 -0.5890  0.8880
10737TIP3   OH253625   1.881   5.008  14.468  0.0919  1.0935 -0.7321
10737TIP3    H153626   1.786   5.020  14.477  0.0157  0.7297 -1.0454
10737TIP3    H253627   1.890   4.924  14.424  0.5834  0.6919  0.1352
10738TIP3   OH253628   3.779   1.695  13.462 -0.0571 -0.0421  0.7709
10738TIP3    H153629   3.724   1.618  13.478  0.4316 -0.5547  0.0269
10738TIP3    H253630   3.721   1.769  13.474 -1.5561 -0.6277 -2.3402
10739TIP3   OH253631   1.317   4.792   4.714 -0.0872 -0.3489  0.0661
10739TIP3    H153632   1.313   4.888   4.721  1.2504 -0.3261  0.6692
10739TIP3    H253633   1.308   4.761   4.804 -0.9725 -0.8243 -0.1767
10740TIP3   OH253634   1.753   4.331  12.116  0.3932  0.2400 -0.3587
10740TIP3    H153635   1.756   4.294  12.204  0.3990 -0.3883 -0.6159
10740TIP3    H253636   1.697   4.271  12.067 -0.5941  1.2598 -0.4770
10741TIP3   OH253637   0.009   0.946  12.618  0.1567 -0.2007  0.0323
10741TIP3    H153638  -0.015   0.983  12.703  2.4822  0.9845  0.2322
10741TIP3    H253639  -0.071   0.905  12.586 -1.5003  1.7279  1.5450
10742TIP3   OH253640   2.098   1.656  16.493  0.1430  0.9489  0.2364
10742TIP3    H153641   2.064   1.589  16.553  0.0143  1.0764  0.3056
10742TIP3    H253642   2.128   1.607  16.417 -2.2169  1.0271 -0.7620
10743TIP3   OH253643   5.448   2.897   0.226  0.4757 -0.2230 -0.0537
10743TIP3    H153644   5.368   2.885   0.174  0.8492 -0.7721 -0.5071
10743TIP3    H253645   5.419   2.888   0.317 -0.2165  0.8965 -0.1482
10744TIP3   OH253646   6.718   2.646  13.978 -0.3411 -0.0576  0.0643
10744TIP3    H153647   6.747   2.661  14.068 -0.8389 -0.9324  0.3692
10744TIP3    H253648   6.645   2.585  13.985 -1.1168  0.7490 -0.8516
10745TIP3   OH253649   2.757   2.724   4.895  0.0178  0.0691  0.2553
10745TIP3    H153650   2.761   2.634   4.926 -1.5966 -0.6711 -1.6457
10745TIP3    H253651   2.848   2.752   4.892  0.6151 -1.8848 -0.2792
10746TIP3   OH253652   6.448   2.358   1.452 -0.2610  0.1353 -0.0448
10746TIP3    H153653   6.512   2.414   1.409 -0.6379  1.3060  0.8950
10746TIP3    H253654   6.423   2.406   1.531  0.0708 -1.7694  1.2334
10747TIP3   OH253655   4.481   3.195  14.037  0.8131 -0.3980  0.5706
10747TIP3    H153656   4.395   3.152  14.043  0.5605 -0.1391 -0.9671
10747TIP3    H253657   4.500   3.222  14.127 -0.1144 -1.6152  1.1498
10748TIP3   OH253658   3.997   2.361   5.382 -0.6686  0.4008 -0.4398
10748TIP3    H153659   3.990   2.370   5.287 -3.5542  0.2083 -0.2959
10748TIP3    H253660   3.957   2.441   5.417  0.1542  0.3629  0.6204
10749TIP3   OH253661   2.469   1.281  14.087 -0.3502  0.5001 -0.1059
10749TIP3    H153662   2.555   1.322  14.099 -0.7152  1.5932 -1.1539
10749TIP3    H253663   2.409   1.355  14.077 -1.2123 -0.2788 -0.7315
10750TIP3   OH253664   2.909   6.763  14.030 -1.4092  0.0638  0.1843
10750TIP3    H153665   2.981   6.731  14.085 -1.4282  0.0076  0.1768
10750TIP3    H253666   2.890   6.690  13.971 -0.8701  0.3977 -0.4174
10751TIP3   OH253667   3.442   3.116   5.320  0.3234  0.2588  0.6093
10751TIP3    H153668   3.358   3.148   5.354 -0.8124 -0.9693 -0.9805
10751TIP3    H253669   3.472   3.052   5.384  1.3101  2.5063  2.4622
10752TIP3   OH253670   2.412   4.214  14.334  0.3365  0.2795 -0.1488
10752TIP3    H153671   2.340   4.199  14.272 -0.6759 -0.3726  1.1429
10752TIP3    H253672   2.473   4.271  14.287 -0.4875 -0.0634 -1.6756
10753TIP3   OH253673   1.831   1.807  16.776 -0.5712  0.4557  0.4008
10753TIP3    H153674   1.837   1.809  16.681  1.6649  0.8786  0.5339
10753TIP3    H253675   1.910   1.852  16.807 -2.0000  1.6666  2.4446
10754TIP3   OH253676   6.261   5.029  15.230  0.1592 -0.1579 -0.1519
10754TIP3    H153677   6.326   5.081  15.277  0.7092  0.3801 -1.4883
10754TIP3    H253678   6.182   5.083  15.229  0.3267  0.0804 -0.3660
10755TIP3   OH253679   0.811   0.518   3.963  0.3195 -0.2284 -0.5988
10755TIP3    H153680   0.720   0.513   3.993  0.6489  0.4825  0.5532
10755TIP3    H253681   0.856   0.568   4.031  2.0125 -2.3578 -0.0686
10756TIP3   OH253682   4.432   2.844  13.166  0.1000 -0.2933  0.4033
10756TIP3    H153683   4.474   2.759  13.184 -1.3230 -1.0342  0.2717
10756TIP3    H253684   4.338   2.824  13.163 -0.1926  1.1739 -0.3359
10757TIP3   OH253685   4.569   2.114  12.629 -0.2390  0.2082 -0.4025
10757TIP3    H153686   4.560   2.208  12.643  1.4126  0.4611 -0.8550
10757TIP3    H253687   4.653   2.105  12.583 -1.1637 -1.3382 -1.8447
10758TIP3   OH253688   3.109   4.268  15.329 -0.7433 -0.1081 -0.3059
10758TIP3    H153689   3.160   4.206  15.381 -0.7388 -0.8022 -1.1178
10758TIP3    H253690   3.018   4.251  15.355 -0.6441  0.4516  0.4234
10759TIP3   OH253691   5.673   4.244  14.025 -0.1437  0.5477 -0.1976
10759TIP3    H153692   5.661   4.160  14.070  0.4781  0.6414  0.1555
10759TIP3    H253693   5.696   4.219  13.936  1.1284  0.3039  0.1734
10760TIP3   OH253694   0.724   5.618   1.099  0.5191  0.3799 -0.4429
10760TIP3    H153695   0.717   5.613   1.195 -1.0106 -0.7251 -0.6014
10760TIP3    H253696   0.758   5.533   1.073  1.6304  0.9341 -0.8440
10761TIP3   OH253697   6.068   1.676   1.077 -0.0594  0.2487 -0.3547
10761TIP3    H153698   6.122   1.663   1.155 -0.2075 -1.9248 -0.5857
10761TIP3    H253699   6.059   1.588   1.039 -3.2739  0.6431 -0.6432
10762TIP3   OH253700   3.878   0.756  17.082  0.0670  0.0363  0.1576
10762TIP3    H153701   3.839   0.715  17.159  1.4290  0.5758  1.1627
10762TIP3    H253702   3.881   0.849  17.104  1.1943  0.0971 -0.2228
10763TIP3   OH253703   6.678   4.027   0.641 -0.1252  0.6542 -0.3916
10763TIP3    H153704   6.754   4.039   0.584 -0.8932  1.2179 -1.3151
10763TIP3    H253705   6.604   4.055   0.588 -1.0610 -0.4973  0.2806
10764TIP3   OH253706   3.226   4.853   1.759 -0.1800 -0.5498  0.4917
10764TIP3    H153707   3.202   4.803   1.682  2.4539 -1.1356 -0.0009
10764TIP3    H253708   3.219   4.945   1.731 -1.6525 -0.7115  0.3308
10765TIP3   OH253709   0.788   5.268   3.960  0.0429  0.5912  0.0263
10765TIP3    H153710   0.775   5.322   4.038  0.5311 -1.0590  1.2790
10765TIP3    H253711   0.716   5.292   3.902 -0.8720  1.1728  1.3825
10766TIP3   OH253712   5.552   4.289   3.779 -0.0764  0.5012 -0.2245
10766TIP3    H153713   5.630   4.253   3.820 -0.4215  0.8660  0.7684
10766TIP3    H253714   5.583   4.329   3.698  0.8362  1.0816  0.4108
10767TIP3   OH253715   3.374   0.300  15.226 -0.5698 -0.6510 -0.4476
10767TIP3    H153716   3.318   0.228  15.198  0.1887 -1.5728  0.3784
10767TIP3    H253717   3.461   0.277  15.194 -0.4102  0.1205 -0.5745
10768TIP3   OH253718   4.324   2.101   2.536 -0.1552  0.3161 -0.3040
10768TIP3    H153719   4.293   2.159   2.606  1.8702 -0.2377  1.0930
10768TIP3    H253720   4.410   2.135   2.513  0.0986 -0.8029 -1.0395
10769TIP3   OH253721   3.464   1.061  12.498  0.0724  0.6547 -0.0194
10769TIP3    H153722   3.515   1.142  12.502 -0.0798  0.8270 -1.3181
10769TIP3    H253723   3.515   0.998  12.550  0.0774  1.6365  1.1786
10770TIP3   OH253724   5.141   2.990   5.803 -0.7190  0.3213  0.0895
10770TIP3    H153725   5.155   2.914   5.745 -2.8015  0.8459 -1.1309
10770TIP3    H253726   5.081   2.958   5.870  1.8516 -0.3419  2.1410
10771TIP3   OH253727   2.937   3.903  15.048  0.0204  0.5712  1.1256
10771TIP3    H153728   3.009   3.941  15.099 -0.2986 -0.4822  2.3829
10771TIP3    H253729   2.874   3.874  15.114 -0.5417 -0.5196  0.1094
10772TIP3   OH253730   2.695   2.786   3.135  0.0836  0.4082 -0.0651
10772TIP3    H153731   2.713   2.785   3.041 -1.9676 -0.0457 -0.4780
10772TIP3    H253732   2.734   2.867   3.166  1.3571  0.2425 -1.1839
10773TIP3   OH253733   5.547   2.179  11.961  0.3903  0.3379 -0.3050
10773TIP3    H153734   5.487   2.187  12.035 -0.5738 -3.4761 -0.5355
10773TIP3    H253735   5.633   2.161  12.001  0.1669 -0.1882 -0.0538
10774TIP3   OH253736   4.337   3.266  11.450  0.5714  0.8623  0.0200
10774TIP3    H153737   4.296   3.212  11.383  1.9031  1.7729 -1.5722
10774TIP3    H253738   4.387   3.204  11.503  1.9804  0.4771 -1.7103
10775TIP3   OH253739   6.629   3.308   4.665 -0.1948 -0.5374 -0.4708
10775TIP3    H153740   6.655   3.328   4.755 -0.1162  2.6359 -1.1341
10775TIP3    H253741   6.708   3.325   4.614 -0.8969  0.0094 -1.3923
10776TIP3   OH253742   0.057   2.207  14.720  0.2264  0.0185 -0.3676
10776TIP3    H153743  -0.008   2.276  14.726 -0.2655 -0.5831  1.4961
10776TIP3    H253744   0.011   2.134  14.677  0.3794  0.4088 -1.1982
10777TIP3   OH253745   2.337   5.791   4.569 -0.7311  0.3668 -0.7365
10777TIP3    H153746   2.406   5.727   4.587 -0.2860  0.8691 -0.6258
10777TIP3    H253747   2.310   5.773   4.479  0.6568  1.1843 -1.3327
10778TIP3   OH253748   1.082   5.540   5.942 -0.5093 -0.0999  0.0252
10778TIP3    H153749   1.029   5.561   6.019 -1.0456  0.5360 -0.5059
10778TIP3    H253750   1.132   5.620   5.925  1.5451 -1.0921  1.2489
10779TIP3   OH253751   6.014   6.456   6.199  0.0254  0.2887 -0.3639
10779TIP3    H153752   5.967   6.529   6.239 -0.2409 -0.8094  1.3678
10779TIP3    H253753   6.103   6.464   6.233  0.0232 -0.1177 -0.2576
10780TIP3   OH253754   4.768   0.805   4.808  0.3671  0.1615  0.0920
10780TIP3    H153755   4.821   0.882   4.786  0.4598  0.8665  2.6239
10780TIP3    H253756   4.760   0.809   4.903 -0.7049 -2.2807  0.1137
10781TIP3   OH253757   6.721   3.034   1.861 -0.1317  0.8102  0.2836
10781TIP3    H153758   6.736   3.084   1.941 -0.4929  0.8739  0.3141
10781TIP3    H253759   6.735   2.943   1.887 -3.5275  0.4981  1.2756
10782TIP3   OH253760   1.351   2.182  13.468  0.1650  0.0297 -0.4996
10782TIP3    H153761   1.289   2.191  13.541 -0.7175  0.8968 -1.3370
10782TIP3    H253762   1.427   2.232  13.494 -0.0894  0.2125 -0.1021
10783TIP3   OH253763   2.201   1.396  14.999 -0.3199  0.4620 -0.2334
10783TIP3    H153764   2.274   1.384  14.939 -0.5420 -1.4844 -0.1490
10783TIP3    H253765   2.163   1.308  15.008 -0.4729  0.7711  2.4997
10784TIP3   OH253766   6.647   6.582   5.567 -0.9853  0.1910 -0.2026
10784TIP3    H153767   6.713   6.623   5.510 -1.0454 -0.4045 -0.7043
10784TIP3    H253768   6.683   6.496   5.587 -0.6780  0.6213  1.1745
10785TIP3   OH253769   2.813   1.348  14.496 -0.0628  0.8958 -0.5378
10785TIP3    H153770   2.894   1.316  14.536  0.2924  0.4711 -1.5718
10785TIP3    H253771   2.821   1.323  14.404 -0.9333  1.7134 -0.8399
10786TIP3   OH253772   6.712   0.627  11.827  0.0907  0.6599 -0.1082
10786TIP3    H153773   6.616   0.617  11.828  0.2109 -0.4371  0.9196
10786TIP3    H253774   6.735   0.646  11.918  1.1363 -1.9583  0.2154
10787TIP3   OH253775   3.590   5.750   1.288 -0.5685  0.0579  0.4091
10787TIP3    H153776   3.652   5.799   1.342 -1.1783  1.0150  0.2590
10787TIP3    H253777   3.546   5.691   1.349 -0.4402  0.3084  0.7446
10788TIP3   OH253778   2.721   5.489   0.175 -0.3428  0.0670  0.0510
10788TIP3    H153779   2.739   5.583   0.176  0.4351 -0.0694  2.8210
10788TIP3    H253780   2.776   5.453   0.244 -3.7601 -1.8074  1.9746
10789TIP3   OH253781   0.256   3.812  11.669  0.4607 -0.1417  0.2064
10789TIP3    H153782   0.288   3.855  11.589  2.5233 -1.0218  0.5298
10789TIP3    H253783   0.329   3.816  11.730 -0.7690 -0.3427  1.7357
10790TIP3   OH253784   3.213   4.166   5.657 -0.1900 -0.4660 -0.0550
10790TIP3    H153785   3.279   4.201   5.716  0.9469 -0.1284 -1.5075
10790TIP3    H253786   3.249   4.083   5.627 -0.6010 -0.4739 -0.5393
10791TIP3   OH253787   0.677   2.412  14.003 -0.0687  0.6398  0.2834
10791TIP3    H153788   0.632   2.487  13.964 -0.3830  0.4731  0.3207
10791TIP3    H253789   0.607   2.362  14.044  0.3840  1.3847  2.0047
10792TIP3   OH253790   0.304   3.317  12.847 -0.6043 -0.1756  0.6501
10792TIP3    H153791   0.352   3.265  12.782 -0.4769 -1.0497  1.4327
10792TIP3    H253792   0.372   3.349  12.907 -0.6345  1.2279 -0.0347
10793TIP3   OH253793   6.770   5.904  16.496 -0.1070  0.2742 -0.7673
10793TIP3    H153794   6.805   5.925  16.409  1.0391  1.6766  0.0053
10793TIP3    H253795   6.792   5.981  16.549 -1.0229 -0.4681  0.6957
10794TIP3   OH253796   6.121   0.049  17.237  0.6932 -0.0203  0.4251
10794TIP3    H153797   6.175   0.023  17.162 -0.4081 -2.0666  0.3090
10794TIP3    H253798   6.031   0.047  17.204  0.3006  0.4102  1.4468
10795TIP3   OH253799   0.829   3.950  14.050  0.0586  0.5846  0.0093
10795TIP3    H153800   0.741   3.939  14.086 -1.2858  2.5561 -2.5389
10795TIP3    H253801   0.886   3.901  14.110 -2.4941  0.9841  2.8365
10796TIP3   OH253802   1.402   6.169  12.642  0.1046  0.2533  0.1168
10796TIP3    H153803   1.403   6.158  12.547 -0.4417  0.0650  0.1322
10796TIP3    H253804   1.477   6.117  12.673  0.7287  0.9092 -0.2682
10797TIP3   OH253805   2.057   1.896  16.976 -0.3502  0.7231  0.5223
10797TIP3    H153806   2.089   1.955  16.907 -0.7645  0.7848  0.3801
10797TIP3    H253807   2.046   1.952  17.052  0.5310  0.5711  0.7700
10798TIP3   OH253808   2.401   5.877  15.871  0.1238  0.0951 -0.5348
10798TIP3    H153809   2.353   5.795  15.878  0.0086  0.0611 -1.5351
10798TIP3    H253810   2.492   5.853  15.891 -0.1346 -0.0008  0.5374
10799TIP3   OH253811   5.134   4.839   3.176 -0.0499 -0.0867 -0.8212
10799TIP3    H153812   5.064   4.904   3.168 -0.8761 -0.8577 -0.0683
10799TIP3    H253813   5.113   4.792   3.257  0.9706 -0.7637 -0.9495
10800TIP3   OH253814   0.288   2.842   2.855 -0.0402  0.5830  0.3192
10800TIP3    H153815   0.312   2.925   2.815 -0.3466  0.7200  0.4200
10800TIP3    H253816   0.338   2.840   2.937  1.0132  0.0531 -0.3153
10801TIP3   OH253817   0.410   2.247   4.803  0.1517 -0.0901 -0.1198
10801TIP3    H153818   0.386   2.161   4.836  0.5300 -0.1796 -0.0855
10801TIP3    H253819   0.417   2.302   4.881  0.6662 -0.2106 -0.0821
10802TIP3   OH253820   2.277   4.758  17.154  0.5232 -1.0903  0.3399
10802TIP3    H153821   2.268   4.679  17.101  1.0626 -0.8461 -0.1286
10802TIP3    H253822   2.188   4.791  17.163  0.6462  0.1145 -2.3572
10803TIP3   OH253823   5.445   3.158  15.107 -0.7215 -0.4556 -0.5466
10803TIP3    H153824   5.468   3.075  15.148  1.7893  0.2182 -0.5278
10803TIP3    H253825   5.506   3.221  15.145 -0.3359  0.7552 -3.1006
10804TIP3   OH253826   0.573   5.850  14.596 -0.2933 -0.5348 -0.4092
10804TIP3    H153827   0.487   5.854  14.556 -0.8773 -0.4361  0.8473
10804TIP3    H253828   0.632   5.829  14.523 -1.1114  1.2081 -1.5964
10805TIP3   OH253829   4.301   3.554   4.796  0.0794 -0.4301  0.1801
10805TIP3    H153830   4.222   3.514   4.759  0.2198 -0.6133  0.0782
10805TIP3    H253831   4.310   3.514   4.882  0.5647 -1.0694 -0.1693
10806TIP3   OH253832   1.550   3.254  13.356  0.5028  0.1417  0.6707
10806TIP3    H153833   1.463   3.281  13.385 -0.3057 -1.1934 -0.4381
10806TIP3    H253834   1.553   3.279  13.264  0.7618 -1.0738  0.3413
10807TIP3   OH253835   3.090   4.181  11.246  0.7651  0.0394 -0.7640
10807TIP3    H153836   3.092   4.128  11.166 -0.2647 -0.6647 -0.3468
10807TIP3    H253837   3.092   4.116  11.317  0.6284  0.6083 -0.2388
10808TIP3   OH253838   3.703   4.213  11.780 -0.0412 -0.0623  0.2334
10808TIP3    H153839   3.680   4.265  11.857  1.1550 -0.8826  1.1722
10808TIP3    H253840   3.648   4.248  11.710  0.3576  2.0910  0.9568
10809TIP3   OH253841   1.894   2.785   0.594 -0.7539  0.1785  0.1619
10809TIP3    H153842   1.838   2.862   0.582  0.2767  0.6847 -1.6798
10809TIP3    H253843   1.978   2.811   0.556 -0.7488 -2.2653 -1.6277
10810TIP3   OH253844   0.097   3.072   2.606 -0.2042 -0.4183  0.1117
10810TIP3    H153845   0.044   3.002   2.568  1.2440 -0.8342 -1.1976
10810TIP3    H253846   0.046   3.152   2.592 -0.0790 -0.6834 -1.9543
10811TIP3   OH253847   6.374   5.196   3.618  0.6099  0.1414  0.3890
10811TIP3    H153848   6.311   5.258   3.654  0.1020  0.3156 -0.7807
10811TIP3    H253849   6.363   5.117   3.670 -0.0683  0.4081  0.6500
10812TIP3   OH253850   6.107   2.210  14.142 -0.0889  0.3468 -0.3852
10812TIP3    H153851   6.103   2.132  14.197 -1.0178 -0.0723 -1.0242
10812TIP3    H253852   6.199   2.218  14.117 -0.2068 -1.3695 -1.4559
10813TIP3   OH253853   0.979   4.889   3.859  0.1803  0.4548  0.0776
10813TIP3    H153854   0.925   4.812   3.843  1.6346 -0.4658 -0.5130
10813TIP3    H253855   1.015   4.912   3.774  2.4754 -0.2977  0.8089
10814TIP3   OH253856   5.110   4.846  12.264  0.0920 -0.5803  0.3083
10814TIP3    H153857   5.113   4.819  12.356 -1.0369 -1.0069  0.2274
10814TIP3    H253858   5.202   4.859  12.239  0.3194  1.6952  2.1267
10815TIP3   OH253859   6.052   3.012   1.496 -0.1564 -0.1021 -0.1007
10815TIP3    H153860   6.147   3.004   1.484 -0.2570 -0.2976 -0.8068
10815TIP3    H253861   6.028   3.090   1.447 -0.2316  0.4847  0.8541
10816TIP3   OH253862   2.099   0.954  16.041  0.1870  0.2665  0.2346
10816TIP3    H153863   2.189   0.936  16.071  0.2814 -2.0130 -1.2813
10816TIP3    H253864   2.109   1.025  15.978  1.2438 -1.5036 -1.6301
10817TIP3   OH253865   2.924   2.285  13.752 -0.9069  0.3416  0.2079
10817TIP3    H153866   3.018   2.290  13.771 -0.5120  1.3783 -1.8541
10817TIP3    H253867   2.904   2.191  13.754  0.1538  0.1235  0.7786
10818TIP3   OH253868   2.773   6.066   0.147  0.4123 -0.4474  0.3772
10818TIP3    H153869   2.838   6.055   0.217  0.7400 -0.4087  0.0838
10818TIP3    H253870   2.823   6.051   0.066  0.6207  2.0667  0.0151
10819TIP3   OH253871   5.981   2.932   4.128 -0.0174 -0.2143  0.5224
10819TIP3    H153872   5.927   2.951   4.205 -0.1840 -1.8827  0.8485
10819TIP3    H253873   5.929   2.963   4.054 -1.1775 -1.2434  0.8796
10820TIP3   OH253874   3.629   6.015   1.821  0.4831 -0.0720  0.3414
10820TIP3    H153875   3.674   5.956   1.761  0.8005  0.0568  0.4512
10820TIP3    H253876   3.559   5.961   1.860 -0.2957  0.0930 -0.8056
10821TIP3   OH253877   4.667   4.505   1.673 -0.7339  0.5305  0.4476
10821TIP3    H153878   4.588   4.467   1.711 -0.1512 -0.8975  0.2598
10821TIP3    H253879   4.703   4.560   1.742 -2.1778  1.6362  0.3485
10822TIP3   OH253880   5.150   5.359   3.161 -0.1916 -0.2696 -0.4816
10822TIP3    H153881   5.092   5.288   3.189 -1.5535  0.4073 -1.5087
10822TIP3    H253882   5.173   5.336   3.071 -0.4359  0.4527 -0.7321
10823TIP3   OH253883   6.661   2.836   3.425 -0.0899 -0.1748 -0.1178
10823TIP3    H153884   6.757   2.839   3.427  0.0139 -1.5220 -2.0934
10823TIP3    H253885   6.634   2.865   3.513  2.0832  1.2064  0.1318
10824TIP3   OH253886   6.551   2.249  12.379  0.1200  0.6236 -0.0890
10824TIP3    H153887   6.467   2.242  12.423  0.7811 -0.7030  0.9726
10824TIP3    H253888   6.530   2.244  12.286 -0.7825 -2.0127  0.2239
10825TIP3   OH253889   0.927   6.583  15.805  0.4027 -0.2584 -0.1808
10825TIP3    H153890   0.962   6.520  15.868 -1.9401  0.1145  1.5461
10825TIP3    H253891   0.997   6.647  15.794  0.7067 -0.0896  2.4140
10826TIP3   OH253892   5.533   5.578   3.219 -0.3217 -0.1060 -0.0927
10826TIP3    H153893   5.574   5.660   3.192  0.8747 -1.0634 -1.2076
10826TIP3    H253894   5.439   5.597   3.218 -0.2377  0.3306 -3.4824
10827TIP3   OH253895   5.998   0.669  15.224  0.7398 -0.4398  0.5334
10827TIP3    H153896   5.947   0.739  15.264 -0.8332 -1.6318  0.6538
10827TIP3    H253897   6.090   0.694  15.240  0.2557  2.1083 -0.3496
10828TIP3   OH253898   4.156   0.738  17.042 -0.3195  0.4476 -0.3061
10828TIP3    H153899   4.062   0.733  17.057 -0.1962  1.1938  0.7379
10828TIP3    H253900   4.176   0.832  17.045  0.2808  0.3731 -1.6268
10829TIP3   OH253901   2.092   0.203   5.085 -0.1010 -0.6454  0.4682
10829TIP3    H153902   2.139   0.237   5.009  2.0838 -2.9408  0.7176
10829TIP3    H253903   2.158   0.198   5.154 -0.9667 -2.8168  1.1941
10830TIP3   OH253904   4.627   3.683  12.988  0.2655  0.1245 -0.0806
10830TIP3    H153905   4.643   3.595  12.953  0.5157  0.6662 -1.3594
10830TIP3    H253906   4.708   3.706  13.033  0.7510  0.2872 -1.0238
10831TIP3   OH253907   5.393   1.580   1.897  0.4319  0.3351 -0.1401
10831TIP3    H153908   5.423   1.667   1.871 -1.9201  1.1786 -0.1065
10831TIP3    H253909   5.378   1.534   1.814  1.3302  0.0609 -0.1592
10832TIP3   OH253910   2.521   3.144   5.454  0.7794  0.0755  0.6828
10832TIP3    H153911   2.470   3.063   5.466  0.1890  0.0425 -1.8390
10832TIP3    H253912   2.563   3.158   5.539 -0.4484 -1.9612  1.6754
10833TIP3   OH253913   3.632   4.289   4.036  0.0010 -0.4006 -0.2493
10833TIP3    H153914   3.622   4.260   3.945  0.2456 -1.7080  0.1313
10833TIP3    H253915   3.566   4.239   4.084  1.1710 -1.1797  0.5906
10834TIP3   OH253916   4.609   3.505   0.532  0.2442 -0.2777 -0.3163
10834TIP3    H153917   4.672   3.541   0.470 -1.1559  2.4234 -0.2150
10834TIP3    H253918   4.540   3.466   0.477  0.2813 -0.1712 -0.4362
10835TIP3   OH253919   6.049   0.644  16.888  0.6932 -1.0497 -0.2128
10835TIP3    H153920   5.997   0.661  16.967  1.4370 -1.8807  0.4628
10835TIP3    H253921   6.004   0.694  16.819 -0.5194 -1.0906  0.5265
10836TIP3   OH253922   0.726   6.420  11.432  0.1503  0.7067  0.4249
10836TIP3    H153923   0.713   6.500  11.381  2.8562  0.8823 -0.0716
10836TIP3    H253924   0.639   6.381  11.438 -1.0731  3.2636 -0.0154
10837TIP3   OH253925   6.300   4.576  10.953 -0.3294 -0.4114  0.2346
10837TIP3    H153926   6.284   4.665  10.921 -0.7536 -2.1596 -4.7423
10837TIP3    H253927   6.222   4.554  11.004 -0.8299  1.5266  0.3587
10838TIP3   OH253928   3.940   4.461  11.804 -0.2133 -0.0132 -0.2810
10838TIP3    H153929   3.977   4.510  11.730 -0.8301  3.2489  1.4424
10838TIP3    H253930   4.013   4.411  11.839  0.8324  0.8140 -1.2368
10839TIP3   OH253931   0.384   2.504   0.626 -0.2378  0.8796 -0.2738
10839TIP3    H153932   0.407   2.421   0.584  3.2256  0.7878  1.5977
10839TIP3    H253933   0.426   2.570   0.572 -2.5087  1.4387 -1.4294
10840TIP3   OH253934   0.658   5.805  16.294 -0.2226 -0.0522  0.2192
10840TIP3    H153935   0.727   5.808  16.360  1.3455  2.6801 -1.4283
10840TIP3    H253936   0.676   5.725  16.244  1.1419  0.0949  0.4522
10841TIP3   OH253937   1.079   1.088  16.734 -0.2737  0.0248  0.2149
10841TIP3    H153938   1.100   1.130  16.651  0.5946  0.7879  0.8201
10841TIP3    H253939   1.100   0.995  16.721  1.0661  0.3618  0.0087
10842TIP3   OH253940   6.763   2.860  16.581 -0.1682  0.2609 -0.2227
10842TIP3    H153941   6.710   2.825  16.510 -2.0087  1.1590  0.6546
10842TIP3    H253942   6.713   2.936  16.612  0.0439 -0.7384  2.7217
10843TIP3   OH253943   2.944   4.532  11.940 -0.1580 -0.6443  0.5808
10843TIP3    H153944   2.880   4.601  11.955  0.6102  0.1448  0.2561
10843TIP3    H253945   2.905   4.454  11.981 -0.5414  0.2197  1.9147
10844TIP3   OH253946   5.762   0.978  16.024  0.6872  0.0732  0.2696
10844TIP3    H153947   5.763   0.949  15.932  0.1360  1.2893 -0.1379
10844TIP3    H253948   5.670   0.990  16.044  0.6908 -1.9004  1.5673
10845TIP3   OH253949   3.714   0.620  16.887 -0.1140 -0.6202  0.6064
10845TIP3    H153950   3.780   0.619  16.818  0.0084 -3.5578  0.6874
10845TIP3    H253951   3.756   0.664  16.961  0.1747  1.4688 -0.7594
10846TIP3   OH253952   4.996   4.764   2.698 -0.6209 -0.0946  0.7656
10846TIP3    H153953   5.048   4.844   2.697  0.6784 -0.9269  0.4989
10846TIP3    H253954   5.027   4.714   2.623 -1.6439 -0.7173  0.7442
10847TIP3   OH253955   3.991   5.100  14.994  0.4791 -0.5666  0.0633
10847TIP3    H153956   4.036   5.185  14.993 -2.5436  1.1337  1.1360
10847TIP3    H253957   3.921   5.111  15.059 -0.3524 -3.7014 -0.2302
10848TIP3   OH253958   3.803   5.486   1.224 -0.1222 -0.2720  0.0973
10848TIP3    H153959   3.888   5.444   1.212 -0.3913 -0.9017  0.3729
10848TIP3    H253960   3.817   5.577   1.196  0.9756 -0.0370  1.3738
10849TIP3   OH253961   4.569   3.354  16.683  0.3577  0.2811  0.1352
10849TIP3    H153962   4.552   3.295  16.610  0.8675  0.7382 -0.3587
10849TIP3    H253963   4.527   3.312  16.758  0.1840 -0.3963 -0.3370
10850TIP3   OH253964   2.023   5.190  11.977 -0.3700  0.3598 -0.3056
10850TIP3    H153965   2.089   5.211  12.043 -1.0807  0.1461  0.4708
10850TIP3    H253966   1.967   5.267  11.973 -0.4191  0.3139 -0.5556
10851TIP3   OH253967   1.475   4.690  11.852  0.1754 -0.2499 -0.0016
10851TIP3    H153968   1.491   4.718  11.762 -1.6643  1.4643  0.1744
10851TIP3    H253969   1.412   4.618  11.843 -2.1462  1.7413  0.0424
10852TIP3   OH253970   0.210   0.556   4.827 -0.1648  0.3633  0.0199
10852TIP3    H153971   0.216   0.584   4.735 -1.1692  0.2500 -0.0851
10852TIP3    H253972   0.183   0.465   4.823  1.0242 -0.0202  0.4162
10853TIP3   OH253973   1.248   2.120   1.109  0.3532 -0.3197 -0.6846
10853TIP3    H153974   1.254   2.026   1.123 -1.6804 -0.5944 -1.4188
10853TIP3    H253975   1.283   2.159   1.190  1.1133 -1.6895 -0.3438
10854TIP3   OH253976   1.142   4.519   1.760 -0.1641  0.1134 -0.0407
10854TIP3    H153977   1.160   4.547   1.670 -3.7250 -1.6057 -1.3674
10854TIP3    H253978   1.077   4.583   1.792  1.1638  0.7837  1.3886
10855TIP3   OH253979   5.406   5.489   0.785 -0.4737  0.6108  0.5555
10855TIP3    H153980   5.372   5.572   0.752 -0.5820  0.1509 -0.4788
10855TIP3    H253981   5.362   5.422   0.733  1.9271  0.0064 -0.7437
10856TIP3   OH253982   6.769   2.255   1.095 -0.0585 -0.0792  0.3103
10856TIP3    H153983   6.711   2.296   1.031 -0.9665 -0.3274  0.9812
10856TIP3    H253984   6.723   2.177   1.124  0.8630 -0.5942  0.4191
10857TIP3   OH253985   3.364   5.700   5.244 -0.8129  0.5165  0.4014
10857TIP3    H153986   3.391   5.690   5.153 -0.3823  0.8693  0.4882
10857TIP3    H253987   3.288   5.642   5.253  0.3807 -1.0797  0.3661
10858TIP3   OH253988   0.599   3.741  16.744 -0.1012  0.4319  0.1642
10858TIP3    H153989   0.638   3.657  16.768  0.9720  1.0806  0.7157
10858TIP3    H253990   0.519   3.718  16.697 -0.2266 -0.8808  1.0257
10859TIP3   OH253991   4.158   4.012  12.090  0.2343 -0.0453 -0.3476
10859TIP3    H153992   4.167   4.107  12.099  0.8158 -0.1962  0.7146
10859TIP3    H253993   4.204   3.976  12.165 -0.1640 -1.1711 -0.6308
10860TIP3   OH253994   1.793   2.951  11.592  0.0643 -0.0760  0.5313
10860TIP3    H153995   1.830   2.897  11.522  0.1751  0.6162  0.0449
10860TIP3    H253996   1.860   3.018  11.607 -0.3425  0.2878  0.6950
10861TIP3   OH253997   0.485   0.570   5.448 -0.1375  0.4446 -0.0629
10861TIP3    H153998   0.469   0.481   5.417 -0.6011  0.5109 -0.0252
10861TIP3    H253999   0.434   0.625   5.389 -0.6523  0.6059  0.5273
10862TIP3   OH254000   4.254   2.500  16.201 -0.2569 -0.1293 -0.2143
10862TIP3    H154001   4.247   2.577  16.145 -0.5859  0.1190  0.1637
10862TIP3    H254002   4.169   2.495  16.245 -0.5952 -1.2817 -0.9858
10863TIP3   OH254003   2.422   2.377  15.081  0.4667  1.0051  0.4012
10863TIP3    H154004   2.472   2.454  15.053  1.0753 -0.2868 -2.2268
10863TIP3    H254005   2.433   2.314  15.010 -2.1832 -0.5636  1.2991
10864TIP3   OH254006   1.630   2.834  10.685  0.3209  0.0496  0.5385
10864TIP3    H154007   1.653   2.913  10.636 -0.5313  1.4556  2.3376
10864TIP3    H254008   1.536   2.842  10.702  0.7994  0.1600  3.3323
10865TIP3   OH254009   0.739   2.012   2.023 -0.4939  0.4357  0.4056
10865TIP3    H154010   0.812   1.993   2.082 -0.9699  2.4702  1.7143
10865TIP3    H254011   0.773   2.081   1.965 -0.3583 -0.8509 -1.0705
10866TIP3   OH254012   6.546   1.070   1.532  0.1522 -0.3738 -0.3746
10866TIP3    H154013   6.628   1.045   1.574  0.5120 -1.1692 -1.5073
10866TIP3    H254014   6.483   1.080   1.604  1.4958  1.3277  0.6083
10867TIP3   OH254015   5.760   1.152   0.410 -0.5898  0.1300  0.2061
10867TIP3    H154016   5.748   1.231   0.358 -1.2112 -0.6763 -0.8806
10867TIP3    H254017   5.833   1.173   0.469  0.8710  0.6530 -1.7376
10868TIP3   OH254018   1.354   0.149   3.672  0.1136  0.2348  0.1552
10868TIP3    H154019   1.413   0.078   3.649 -1.0962 -1.2932  1.6519
10868TIP3    H254020   1.273   0.129   3.626 -0.5399  0.1231  1.3355
10869TIP3   OH254021   3.066   5.719  11.436  0.2494  0.1007 -0.4767
10869TIP3    H154022   3.074   5.777  11.512 -1.2326 -0.4340  0.1092
10869TIP3    H254023   3.110   5.638  11.463 -1.1979 -0.4626  0.2159
10870TIP3   OH254024   4.239   2.693  16.022  0.2893  0.0713 -0.4710
10870TIP3    H154025   4.318   2.693  15.968  0.3617  1.3730 -0.3856
10870TIP3    H254026   4.169   2.668  15.962  0.3113  1.8965 -1.3019
10871TIP3   OH254027   0.879   4.145   5.218  0.2036 -0.2790  0.2593
10871TIP3    H154028   0.934   4.078   5.260 -0.0840 -0.7620 -0.1282
10871TIP3    H254029   0.827   4.181   5.289  0.2585 -0.5693  0.4489
10872TIP3   OH254030   6.505   4.061  11.534 -0.6938  0.1270 -0.1329
10872TIP3    H154031   6.571   4.107  11.586 -1.3076  0.1239  0.6520
10872TIP3    H254032   6.539   3.972  11.526  0.3123  0.6103 -1.3330
10873TIP3   OH254033   0.414   4.628  15.794 -0.9157 -0.3889  0.2726
10873TIP3    H154034   0.431   4.623  15.700 -0.2641  1.4683  0.2697
10873TIP3    H254035   0.336   4.684  15.801 -1.5149 -1.2775  0.7928
10874TIP3   OH254036   2.890   2.155  15.302  0.1676  0.3662  0.1439
10874TIP3    H154037   2.953   2.205  15.354  1.3609  0.1822 -1.0962
10874TIP3    H254038   2.927   2.067  15.297 -0.7304 -0.0241  0.3148
10875TIP3   OH254039   3.068   0.625   3.489 -0.5113 -0.5304  0.0016
10875TIP3    H154040   3.059   0.720   3.483 -1.0815 -0.6514 -0.9908
10875TIP3    H254041   2.982   0.591   3.469 -0.3952 -1.2584  0.7027
10876TIP3   OH254042   3.264   0.335   5.540 -0.0276  0.4804  0.1646
10876TIP3    H154043   3.200   0.301   5.478  0.4146  0.2975 -0.2004
10876TIP3    H254044   3.212   0.381   5.606 -0.6645 -1.2421  0.8927
10877TIP3   OH254045   5.557   0.538  17.025  0.0744 -0.1573 -0.2019
10877TIP3    H154046   5.464   0.517  17.029  0.1224 -0.1929  0.8717
10877TIP3    H254047   5.562   0.630  17.051  0.4460 -0.4786  0.8844
10878TIP3   OH254048   6.151   3.287  17.112 -0.0635 -0.8570 -0.5314
10878TIP3    H154049   6.197   3.312  17.192 -0.2785  0.4241 -0.7997
10878TIP3    H254050   6.059   3.288  17.135 -0.2136  0.7511 -1.1036
10879TIP3   OH254051   2.516   3.949   1.775  0.1868  0.6603  0.0931
10879TIP3    H154052   2.599   3.986   1.805  0.6270 -2.1835  2.7327
10879TIP3    H254053   2.465   3.937   1.855 -0.9609 -1.7928 -0.9328
10880TIP3   OH254054   4.039   0.176  14.379 -0.1614 -0.2501  0.2072
10880TIP3    H154055   4.089   0.156  14.459 -1.1322 -0.8704  0.6689
10880TIP3    H254056   4.017   0.268  14.387  0.2858 -0.1551  0.3522
10881TIP3   OH254057   3.065   0.143   5.786 -0.4426 -0.1215  0.1169
10881TIP3    H154058   3.018   0.190   5.855  0.2443 -0.2488  0.6772
10881TIP3    H254059   3.155   0.135   5.818 -0.4288 -1.3949 -0.1749
10882TIP3   OH254060   1.926   6.639   3.330 -0.3330  0.1956 -0.0295
10882TIP3    H154061   1.900   6.726   3.358  0.2130  0.8602 -1.5372
10882TIP3    H254062   1.858   6.612   3.269  0.5566  0.4207 -1.1389
10883TIP3   OH254063   4.337   4.366   1.331 -0.6539  0.1807 -0.0813
10883TIP3    H154064   4.293   4.395   1.251 -1.3593 -0.5832  0.0138
10883TIP3    H254065   4.365   4.276   1.311  0.9755  0.6943 -0.1755
10884TIP3   OH254066   4.868   1.822   1.936 -0.1592 -0.1997 -0.2477
10884TIP3    H154067   4.798   1.818   1.871 -0.0439  1.5338 -0.5082
10884TIP3    H254068   4.949   1.814   1.884 -0.0786  0.8766 -0.3091
10885TIP3   OH254069   2.264   4.176  14.108  0.3820 -0.1962 -0.3637
10885TIP3    H154070   2.286   4.098  14.056  3.7889 -0.3377  1.2190
10885TIP3    H254071   2.313   4.247  14.067 -1.2193  0.7858 -0.6252
10886TIP3   OH254072   4.903   3.387  14.783  0.1793  0.0232  0.8248
10886TIP3    H154073   4.873   3.297  14.779  1.6014 -0.4024 -0.6702
10886TIP3    H254074   4.892   3.421  14.693  1.0063  0.8642  1.0202
10887TIP3   OH254075   2.849   2.592  13.312  0.4360 -0.1512  0.0347
10887TIP3    H154076   2.895   2.659  13.260  1.6304  1.3794  2.9780
10887TIP3    H254077   2.907   2.516  13.311 -0.8194 -1.1542 -3.1305
10888TIP3   OH254078   3.011   6.038  13.736  0.2896 -0.4260  0.3053
10888TIP3    H154079   3.074   5.979  13.777 -0.1578 -2.3806 -1.7489
10888TIP3    H254080   3.027   6.031  13.642 -1.6284  0.5967 -0.1466
10889TIP3   OH254081   0.588   1.591   2.589 -0.2458 -0.4390  0.3198
10889TIP3    H154082   0.572   1.657   2.656 -0.5991 -1.0819  0.8670
10889TIP3    H254083   0.681   1.599   2.569 -0.5585  1.1940 -0.6436
10890TIP3   OH254084   3.101   5.586  16.892  0.4079 -0.2079  0.2806
10890TIP3    H154085   3.156   5.509  16.901 -0.8003 -1.1581 -0.3935
10890TIP3    H254086   3.119   5.638  16.971  1.1721 -1.1973  0.7626
10891TIP3   OH254087   0.934   2.662   2.856 -0.0997 -0.0841  0.0311
10891TIP3    H154088   0.981   2.582   2.879  1.0619  0.4581 -0.4439
10891TIP3    H254089   0.883   2.639   2.779 -1.6585 -1.0474  1.3116
10892TIP3   OH254090   4.238   5.471  12.946 -0.0273  0.0335  0.6235
10892TIP3    H154091   4.177   5.444  13.015  0.9566  0.8895  1.8466
10892TIP3    H254092   4.198   5.549  12.907 -0.1545  0.0605  0.8122
10893TIP3   OH254093   4.173   1.381  14.163  0.1143 -0.0151  0.0838
10893TIP3    H154094   4.156   1.312  14.099  0.1824 -0.3503  0.4206
10893TIP3    H254095   4.124   1.354  14.241  0.4983  0.0883  0.3633
10894TIP3   OH254096   6.293   4.089  15.116  0.3069 -0.2184 -0.4822
10894TIP3    H154097   6.235   4.061  15.187  1.2394 -1.6306 -0.2557
10894TIP3    H254098   6.239   4.145  15.061 -0.9050 -0.4993  0.4125
10895TIP3   OH254099   5.324   1.194   2.425 -0.3857  0.0255 -0.0962
10895TIP3    H154100   5.380   1.240   2.362 -0.8553 -1.0779 -1.3252
10895TIP3    H254101   5.237   1.229   2.410 -0.8621 -1.6958 -1.4767
10896TIP3   OH254102   4.144   1.626   1.889  0.1918 -0.7664  0.0015
10896TIP3    H154103   4.193   1.681   1.828  0.5460 -1.9171 -0.7684
10896TIP3    H254104   4.180   1.538   1.876 -0.6482 -1.2528  0.9178
10897TIP3   OH254105   3.449   6.446   4.343  0.2450 -0.3714 -0.0517
10897TIP3    H154106   3.482   6.535   4.359 -0.6988  0.1335 -0.8884
10897TIP3    H254107   3.359   6.448   4.374 -0.2798 -0.5778 -1.5265
10898TIP3   OH254108   5.269   4.160   4.650  0.2802 -0.1033  0.3167
10898TIP3    H154109   5.341   4.182   4.709 -0.4010 -0.0052  1.1182
10898TIP3    H254110   5.266   4.233   4.587 -0.6869  1.1584  1.7620
10899TIP3   OH254111   1.179   2.736  14.919  0.4502  0.5095  0.4981
10899TIP3    H154112   1.094   2.741  14.963  0.0564  0.8625 -0.2923
10899TIP3    H254113   1.243   2.736  14.990 -0.2250 -0.1074  1.1094
10900TIP3   OH254114   5.286   4.943   3.849 -0.1419 -0.2573 -0.0254
10900TIP3    H154115   5.214   4.988   3.894 -2.0198 -0.0052 -3.1531
10900TIP3    H254116   5.267   4.850   3.860  1.3700 -0.2757  2.7150
10901TIP3   OH254117   4.461   4.600  13.166 -0.2443 -0.1746  0.2122
10901TIP3    H154118   4.365   4.611  13.170 -0.2779 -0.7960  1.3885
10901TIP3    H254119   4.478   4.525  13.223  0.7692 -1.2272 -1.4563
10902TIP3   OH254120   4.133   0.802  13.771  0.4470 -0.5898  0.2306
10902TIP3    H154121   4.069   0.869  13.794  1.6864  1.0919 -1.1647
10902TIP3    H254122   4.097   0.721  13.808 -2.6680  0.2578 -0.7937
10903TIP3   OH254123   2.703   0.107  12.983  0.2244  0.5429  0.0489
10903TIP3    H154124   2.754   0.180  13.020  1.9704  0.2577 -1.6947
10903TIP3    H254125   2.765   0.035  12.979 -0.9823 -0.4971 -0.0137
10904TIP3   OH254126   6.168   4.247   6.598 -0.2234 -0.1768 -0.3823
10904TIP3    H154127   6.078   4.256   6.627 -1.0918 -1.4642 -2.5853
10904TIP3    H254128   6.190   4.331   6.558  0.2839  0.8652  1.9827
10905TIP3   OH254129   0.831   5.084   5.703  0.0132  0.0480 -0.4151
10905TIP3    H154130   0.739   5.099   5.680  0.0926  1.2774  0.0166
10905TIP3    H254131   0.873   5.168   5.688  0.7804 -0.1201  0.7513
10906TIP3   OH254132   6.050   5.927  13.995  0.2528  0.5532  0.6992
10906TIP3    H154133   6.006   5.946  13.913  1.2112  1.0082  0.2920
10906TIP3    H254134   5.987   5.873  14.044 -1.5049  2.6855  0.8747
10907TIP3   OH254135   3.595   4.031  11.509  0.1499 -0.4136 -0.5644
10907TIP3    H154136   3.587   4.125  11.529  0.9651 -0.3406 -0.5249
10907TIP3    H254137   3.509   4.005  11.478  0.1807  0.5815 -1.5076
10908TIP3   OH254138   0.860   1.589  16.701 -0.5705  0.3755 -0.3922
10908TIP3    H154139   0.951   1.567  16.722 -0.3791  0.1086 -1.4761
10908TIP3    H254140   0.836   1.529  16.631 -0.9156  1.8185 -1.5413
10909TIP3   OH254141   0.393   1.734  13.310  0.2239  0.5737  0.6044
10909TIP3    H154142   0.401   1.827  13.290 -2.2621  0.5465 -0.7971
10909TIP3    H254143   0.443   1.690  13.241  0.3717  0.8383  0.5435
10910TIP3   OH254144   1.771   2.234  11.066  0.4636 -0.1009 -0.5123
10910TIP3    H154145   1.854   2.261  11.106  0.9802  0.4280 -1.9247
10910TIP3    H254146   1.774   2.138  11.066 -0.1283 -0.1461  1.9242
10911TIP3   OH254147   1.986   4.336   5.211  0.2963  0.1753  0.6751
10911TIP3    H154148   1.912   4.348   5.152 -0.0853 -2.8150  0.4753
10911TIP3    H254149   1.947   4.308   5.293  1.0044  1.9129  1.6367
10912TIP3   OH254150   2.781   1.974  16.841 -0.2048  0.2005 -0.1105
10912TIP3    H154151   2.804   2.025  16.919 -1.5335  0.7317 -0.0407
10912TIP3    H254152   2.689   1.997  16.824 -0.7590 -1.9965 -0.2211
10913TIP3   OH254153   3.934   5.521   4.496 -0.4336 -0.5371 -0.3420
10913TIP3    H154154   3.905   5.601   4.452 -0.4634 -0.4146 -0.1004
10913TIP3    H254155   3.970   5.466   4.425  1.0664  0.3464 -0.2896
10914TIP3   OH254156   2.927   4.643  16.204 -0.3886 -0.5034  0.3756
10914TIP3    H154157   2.899   4.581  16.138  0.1388 -1.0243  0.6344
10914TIP3    H254158   3.019   4.660  16.184 -0.3778 -0.2338  0.6405
10915TIP3   OH254159   0.139   3.666  16.163 -0.2382  0.0884  0.2543
10915TIP3    H154160   0.057   3.715  16.162  0.3595  1.1400 -1.5557
10915TIP3    H254161   0.203   3.728  16.199  0.2998  0.2849 -1.0004
10916TIP3   OH254162   2.455   6.504  12.660  0.1544 -0.2767 -0.3498
10916TIP3    H154163   2.368   6.501  12.700 -0.8849  0.1787 -2.5214
10916TIP3    H254164   2.495   6.583  12.695 -0.6880  0.0557 -0.1260
10917TIP3   OH254165   5.676   2.296  11.185 -0.0771  0.2709  0.2529
10917TIP3    H154166   5.605   2.349  11.148  1.3461  1.7405 -0.3859
10917TIP3    H254167   5.749   2.308  11.125  0.9367 -0.7132  1.2753
10918TIP3   OH254168   2.140   3.457   3.274 -0.0597 -0.6596  0.4195
10918TIP3    H154169   2.045   3.448   3.265 -0.0375 -1.6696  1.0537
10918TIP3    H254170   2.161   3.540   3.231 -1.0580 -1.0542 -0.8549
10919TIP3   OH254171   2.508   1.453  14.603  0.4898  0.8498  0.3001
10919TIP3    H154172   2.431   1.398  14.617 -0.6326  1.8118 -1.8362
10919TIP3    H254173   2.577   1.391  14.577 -0.8551  0.4100 -2.4095
10920TIP3   OH254174   2.213   4.150   1.200  0.0836  0.1185 -0.0741
10920TIP3    H154175   2.238   4.225   1.147 -0.8732  0.2300 -0.3772
10920TIP3    H254176   2.117   4.151   1.200  0.0700 -0.0671  1.3992
10921TIP3   OH254177   0.550   3.365   4.402 -0.0004  0.0859 -0.0261
10921TIP3    H154178   0.597   3.448   4.404  0.0562  0.0441  0.5001
10921TIP3    H254179   0.551   3.338   4.310 -1.7483  1.6535 -0.5397
10922TIP3   OH254180   1.239   0.215  15.600 -0.0292 -0.8145 -0.1417
10922TIP3    H154181   1.321   0.261  15.618 -0.9760  0.1728  1.8860
10922TIP3    H254182   1.263   0.143  15.542  2.4886 -1.3776  1.5430
10923TIP3   OH254183   3.762   1.526  14.301 -0.2837 -0.1479  0.1291
10923TIP3    H154184   3.754   1.603  14.244 -1.3267 -1.1446 -1.1234
10923TIP3    H254185   3.680   1.525  14.351  0.3115  0.3014  1.1301
10924TIP3   OH254186   2.266   3.880  15.770 -0.0535 -1.2477 -0.0607
10924TIP3    H154187   2.188   3.837  15.804 -1.6789  0.6900 -1.2830
10924TIP3    H254188   2.262   3.868  15.675 -0.3126  1.1857 -0.3888
10925TIP3   OH254189   3.029   1.169   2.120 -0.2755  0.2050  0.1403
10925TIP3    H154190   2.935   1.188   2.123 -0.5492 -1.0712  0.0706
10925TIP3    H254191   3.034   1.073   2.123  0.9289  0.1542 -2.2972
10926TIP3   OH254192   2.781   2.193  10.561 -0.0698 -0.5505 -0.3073
10926TIP3    H154193   2.743   2.127  10.504 -2.1315  0.6076 -0.3443
10926TIP3    H254194   2.707   2.225  10.613  1.2628  0.2947  1.1247
10927TIP3   OH254195   0.416   0.052   6.200  0.5078  0.3821  0.6640
10927TIP3    H154196   0.382   0.029   6.286  0.8674 -0.7242  0.5194
10927TIP3    H254197   0.344   0.098   6.157 -0.1053 -0.1553  1.0985
10928TIP3   OH254198   3.867   0.387  14.116 -0.3887  0.6311 -0.0557
10928TIP3    H154199   3.775   0.391  14.143 -0.1871  1.6943  0.4929
10928TIP3    H254200   3.916   0.380  14.198 -0.0066 -0.6514 -0.3778
10929TIP3   OH254201   6.180   0.074   2.090 -0.3976  0.8656  0.3102
10929TIP3    H154202   6.125  -0.003   2.076 -0.8110  1.0991  0.6543
10929TIP3    H254203   6.202   0.103   2.001  0.0238  0.1715  0.1757
10930TIP3   OH254204   1.249   1.766   2.806 -0.1702 -0.3681  0.5176
10930TIP3    H154205   1.246   1.802   2.895 -0.3641  1.9870 -0.4247
10930TIP3    H254206   1.289   1.680   2.817 -0.4946 -0.2542  2.9286
10931TIP3   OH254207   6.125   2.531  16.175  0.3277  0.4956 -0.7730
10931TIP3    H154208   6.090   2.585  16.104  2.0215  0.4699 -1.6434
10931TIP3    H254209   6.178   2.465  16.131  0.3699 -0.2955  0.4449
10932TIP3   OH254210   1.482   4.445  14.195  0.1506  0.0893  0.3993
10932TIP3    H154211   1.427   4.503  14.248  2.0661  1.1132  1.3265
10932TIP3    H254212   1.473   4.479  14.106 -2.4071 -1.1083  0.1411
10933TIP3   OH254213   1.664   2.450   2.851  0.7464  0.5314  0.4515
10933TIP3    H154214   1.677   2.380   2.787  0.3145  0.8675 -0.0070
10933TIP3    H254215   1.667   2.406   2.936  0.1219 -0.0991  0.1475
10934TIP3   OH254216   5.807   4.631  16.265 -0.3236 -0.0243  0.0676
10934TIP3    H154217   5.817   4.600  16.175  0.3668  1.3799 -0.3538
10934TIP3    H254218   5.719   4.669  16.267 -1.1991 -2.0108  0.6052
10935TIP3   OH254219   4.819   0.145  16.062  0.0074  0.1248  0.1850
10935TIP3    H154220   4.872   0.123  16.139  1.0348  0.9302 -0.2840
10935TIP3    H254221   4.814   0.063  16.013 -1.2461 -0.5800  1.4390
10936TIP3   OH254222   5.132   4.210   2.002 -0.1073 -0.1051  0.2137
10936TIP3    H154223   5.216   4.167   1.987  0.3378  1.1917 -1.1635
10936TIP3    H254224   5.145   4.300   1.972 -1.6594  0.4181  1.0271
10937TIP3   OH254225   4.782   2.800  13.790  0.3249 -0.1246  0.7251
10937TIP3    H154226   4.744   2.879  13.828 -0.9772 -0.9649  1.1937
10937TIP3    H254227   4.760   2.730  13.852 -1.3123 -1.4179 -1.2236
10938TIP3   OH254228   3.071   1.680   2.650  0.1417  0.6063  0.7474
10938TIP3    H154229   2.999   1.716   2.702 -0.4452 -0.4962  0.7114
10938TIP3    H254230   3.039   1.596   2.619  0.7031  1.0005 -0.9447
10939TIP3   OH254231   6.702   1.576  16.202 -0.6098 -0.3138 -0.5158
10939TIP3    H154232   6.630   1.621  16.247 -1.5070 -2.6652  0.4941
10939TIP3    H254233   6.768   1.564  16.270 -0.9550 -1.7121 -0.4050
10940TIP3   OH254234   0.692   5.132  14.355  0.1112  0.0842 -0.1245
10940TIP3    H154235   0.686   5.122  14.450 -3.4647  1.5456 -0.1177
10940TIP3    H254236   0.686   5.226  14.341 -2.3953 -0.3149 -1.9209
10941TIP3   OH254237   0.798   6.775  14.776  0.3101  0.0229 -0.2726
10941TIP3    H154238   0.806   6.761  14.870 -1.0182  0.9455 -0.0117
10941TIP3    H254239   0.828   6.865  14.762 -0.8501  0.3909 -0.5115
10942TIP3   OH254240   4.933   1.162  12.490  0.1511 -0.5541  0.3391
10942TIP3    H154241   4.840   1.170  12.512  0.0676 -1.3897  0.3157
10942TIP3    H254242   4.979   1.202  12.564 -0.1902 -1.6051  1.1318
10943TIP3   OH254243   6.055   3.159  11.412  0.3775 -0.0699 -0.1971
10943TIP3    H154244   6.100   3.226  11.362  0.2448  0.3554  0.2443
10943TIP3    H254245   5.969   3.198  11.432  0.1200 -0.5579 -0.3543
10944TIP3   OH254246   3.325   4.722  11.729  0.0930 -0.6328 -0.0085
10944TIP3    H154247   3.264   4.660  11.768  0.8858 -0.2766  1.8957
10944TIP3    H254248   3.308   4.804  11.775  0.4164  0.0444 -1.0888
10945TIP3   OH254249   4.198   4.610   4.007  0.4528  0.1148 -0.3211
10945TIP3    H154250   4.239   4.576   3.927 -0.5073  0.4519 -0.9630
10945TIP3    H254251   4.187   4.703   3.990 -1.6445 -0.1553 -0.6419
10946TIP3   OH254252   1.754   1.432   0.243 -0.2094  0.9433 -0.9065
10946TIP3    H154253   1.696   1.371   0.196 -0.0210  0.1920 -0.1739
10946TIP3    H254254   1.694   1.492   0.287 -0.4249  0.6169 -0.7472
10947TIP3   OH254255   2.797   1.951   1.875 -0.0520  0.2692 -0.2788
10947TIP3    H154256   2.774   2.015   1.942  0.9040  0.0358  0.2790
10947TIP3    H254257   2.893   1.954   1.871 -0.0080 -1.1017 -0.2910
10948TIP3   OH254258   2.269   1.198   5.145  0.1071 -0.2589  0.1381
10948TIP3    H154259   2.338   1.231   5.202 -0.0800 -1.9211  1.3726
10948TIP3    H254260   2.313   1.134   5.089  0.4475  1.9041 -2.1600
10949TIP3   OH254261   1.758   3.086  13.202  0.1665 -0.2214  0.2914
10949TIP3    H154262   1.810   3.044  13.133  0.9663  1.8493 -0.4044
10949TIP3    H254263   1.686   3.128  13.156 -0.3307 -0.3692  0.9254
10950TIP3   OH254264   2.886   1.143  11.090 -0.3429  0.4777  0.0032
10950TIP3    H154265   2.839   1.070  11.048 -0.8555  0.0488  1.3087
10950TIP3    H254266   2.844   1.152  11.176  0.4863  1.5667  0.2983
10951TIP3   OH254267   0.307   3.243   5.292  0.3594  0.4547  0.0433
10951TIP3    H154268   0.386   3.199   5.322  0.2758  0.3336  0.0848
10951TIP3    H254269   0.331   3.280   5.207  0.6692  0.9980  0.3630
10952TIP3   OH254270   2.470   5.948  12.862  0.2066  0.2006 -0.1916
10952TIP3    H154271   2.534   5.888  12.824  1.5295  0.2322  1.8855
10952TIP3    H254272   2.492   6.033  12.824  0.2022 -0.1171 -0.9088
10953TIP3   OH254273   4.014   1.211  16.879  0.4475 -0.0796 -0.1149
10953TIP3    H154274   4.100   1.245  16.854 -0.3392  1.8119 -0.2916
10953TIP3    H254275   3.980   1.171  16.799  0.4649  0.6208 -0.4692
10954TIP3   OH254276   0.746   4.733   0.757 -0.2083  0.0618 -0.0114
10954TIP3    H154277   0.731   4.693   0.843 -0.1269  0.8666  0.3748
10954TIP3    H254278   0.841   4.748   0.754 -0.1029 -0.6532 -0.5503
10955TIP3   OH254279   3.299   2.815  10.451 -0.1873 -0.4830  0.1589
10955TIP3    H154280   3.324   2.723  10.442  2.2582  0.1233  0.2860
10955TIP3    H254281   3.349   2.846  10.527 -0.0782  1.2232 -0.5765
10956TIP3   OH254282   2.306   3.710  11.122  0.5734 -0.2798  0.2501
10956TIP3    H154283   2.334   3.741  11.035  0.0102  1.1264  0.5446
10956TIP3    H254284   2.214   3.737  11.128  1.0480  1.0858  1.8980
10957TIP3   OH254285   3.469   0.347   3.107  0.1865  0.1086 -0.4192
10957TIP3    H154286   3.375   0.359   3.120  0.2864 -0.1636  0.5668
10957TIP3    H254287   3.507   0.354   3.194  0.9987 -0.5297 -0.7115
10958TIP3   OH254288   2.588   2.655  13.026  0.3557 -0.0060  0.3579
10958TIP3    H154289   2.502   2.652  12.984 -0.4604  0.7485  1.9186
10958TIP3    H254290   2.638   2.586  12.983 -0.6535  0.3070 -1.3781
10959TIP3   OH254291   5.659   2.067  14.712 -0.1372  0.0902  0.0462
10959TIP3    H154292   5.678   2.150  14.757 -1.3448 -0.1541  1.0082
10959TIP3    H254293   5.678   1.999  14.777  1.4578 -0.4418 -0.9417
10960TIP3   OH254294   3.601   0.287  12.929  0.7867 -0.0930  0.5252
10960TIP3    H154295   3.670   0.250  12.873 -0.4490 -0.4389 -0.8048
10960TIP3    H254296   3.645   0.304  13.012  2.3367 -0.8725 -0.0995
10961TIP3   OH254297   4.447   1.165   2.099  0.4289  0.1525 -0.0474
10961TIP3    H154298   4.490   1.199   2.177  2.8585 -0.8995 -0.9017
10961TIP3    H254299   4.452   1.070   2.108 -0.7763  0.0143 -0.6912
10962TIP3   OH254300   4.015   0.102   1.434  0.3126 -0.0613 -0.8516
10962TIP3    H154301   4.021   0.178   1.376 -1.2533 -1.3675 -2.8146
10962TIP3    H254302   3.952   0.044   1.390 -0.9355 -1.1013  2.1637
10963TIP3   OH254303   5.213   4.335   4.888  0.5756 -0.3768 -0.0572
10963TIP3    H154304   5.237   4.357   4.978  2.4465 -1.4693 -0.2720
10963TIP3    H254305   5.161   4.255   4.896 -0.9163  0.5952  0.1931
10964TIP3   OH254306   3.434   2.005  14.360 -0.8495  0.6159  0.0665
10964TIP3    H154307   3.399   1.917  14.353  0.7463  0.0417 -0.8902
10964TIP3    H254308   3.448   2.018  14.454 -1.4401 -0.0106  0.2409
10965TIP3   OH254309   1.567   3.159  12.096  0.1765 -0.5773 -0.1611
10965TIP3    H154310   1.537   3.086  12.151  0.3162  0.0151  0.7022
10965TIP3    H254311   1.622   3.211  12.154 -0.8250  0.8322 -0.4582
10966TIP3   OH254312   3.282   4.605  12.045  0.9476  0.1468  0.4043
10966TIP3    H154313   3.298   4.520  12.004 -0.2192  0.7729 -1.4286
10966TIP3    H254314   3.369   4.637  12.067  1.3855 -1.5980  1.3042
10967TIP3   OH254315   5.889   0.353  14.556 -0.1451 -0.0292 -0.6855
10967TIP3    H154316   5.822   0.331  14.491  0.1969  0.9746 -1.3930
10967TIP3    H254317   5.907   0.446  14.541  2.8578 -0.7263 -1.8455
10968TIP3   OH254318   5.056   2.497   3.925 -0.4666  0.1021 -1.3912
10968TIP3    H154319   4.974   2.499   3.875 -0.9918 -2.5019 -0.6914
10968TIP3    H254320   5.117   2.448   3.870 -0.6973 -1.7481 -0.0330
10969TIP3   OH254321   5.290   3.155  15.929  0.2109  0.2539 -0.2910
10969TIP3    H154322   5.198   3.167  15.904 -0.3525 -1.8070  0.6922
10969TIP3    H254323   5.315   3.240  15.967 -0.7296  1.4153 -2.1772
10970TIP3   OH254324   5.280   0.808  16.593 -0.1812 -0.2988  0.2516
10970TIP3    H154325   5.340   0.794  16.520  1.0310 -1.3365  1.4215
10970TIP3    H254326   5.336   0.818  16.669 -1.4383  0.6045  1.0972
10971TIP3   OH254327   2.228   0.542   4.665 -0.6454  0.0965 -0.1664
10971TIP3    H154328   2.216   0.494   4.583 -1.4637 -0.5693  0.3447
10971TIP3    H254329   2.147   0.590   4.678 -1.1236 -0.9973  1.0335
10972TIP3   OH254330   4.869   3.894  12.840  0.0857 -0.1927  0.2420
10972TIP3    H154331   4.861   3.892  12.935 -0.8682  1.9768  0.2394
10972TIP3    H254332   4.866   3.802  12.814  2.3407 -0.9405  2.4415
10973TIP3   OH254333   0.862   5.873   3.800 -0.4586 -0.6254 -0.2697
10973TIP3    H154334   0.942   5.864   3.748 -0.9881  0.0454 -1.2172
10973TIP3    H254335   0.865   5.800   3.861  1.3688 -0.0653  0.3696
10974TIP3   OH254336   4.728   6.307  16.401 -0.1063 -0.1001 -0.1871
10974TIP3    H154337   4.710   6.401  16.413  0.6159  0.1251 -0.8464
10974TIP3    H254338   4.816   6.295  16.438  0.4535 -0.1997 -1.5169
10975TIP3   OH254339   5.983   6.248   3.356 -0.0438 -0.1632  0.4814
10975TIP3    H154340   6.009   6.339   3.340 -1.2433  0.0811 -0.2138
10975TIP3    H254341   6.065   6.200   3.368  0.6281  0.8674  0.0358
10976TIP3   OH254342   1.336   4.862   0.671 -0.3481 -0.2196 -0.1587
10976TIP3    H154343   1.361   4.771   0.688 -2.1696 -0.7589 -0.2434
10976TIP3    H254344   1.315   4.863   0.578 -1.1876  0.0724  0.0325
10977TIP3   OH254345   4.172   6.674  10.614  0.1185  0.2773 -0.0308
10977TIP3    H154346   4.133   6.657  10.700 -0.8145  2.2195 -0.0592
10977TIP3    H254347   4.266   6.665  10.628 -0.0826 -0.2607  1.0001
10978TIP3   OH254348   2.845   5.262   6.047 -0.2592 -0.3458 -0.1985
10978TIP3    H154349   2.786   5.326   6.008 -0.4164 -0.5977 -0.3778
10978TIP3    H254350   2.930   5.279   6.006  0.0891  0.8375  0.9824
10979TIP3   OH254351   3.712   0.848   1.556 -0.6666 -0.0472 -0.4267
10979TIP3    H154352   3.684   0.835   1.465 -1.9251  0.8801 -0.1796
10979TIP3    H254353   3.652   0.794   1.608 -0.5798  0.2004 -0.0693
10980TIP3   OH254354   3.755   4.262  12.911 -0.3071  0.3876 -0.0209
10980TIP3    H154355   3.817   4.265  12.838  0.9472  0.3572  1.0344
10980TIP3    H254356   3.677   4.220  12.874 -0.2361  1.7029 -1.7262
10981TIP3   OH254357   3.331   6.166   3.067 -0.3069 -0.5646  0.4072
10981TIP3    H154358   3.379   6.243   3.037 -0.1745 -0.8359 -0.0939
10981TIP3    H254359   3.340   6.167   3.162  0.8843 -0.7269  0.3018
10982TIP3   OH254360   5.161   2.029  10.467 -0.4700  0.1784  0.4154
10982TIP3    H154361   5.205   2.087  10.529  0.7075  0.3536 -0.5503
10982TIP3    H254362   5.148   1.947  10.515  0.0399  0.4531  1.0318
10983TIP3   OH254363   1.089   6.140  11.626  0.4578 -0.3008  0.4660
10983TIP3    H154364   1.068   6.170  11.538 -0.7305 -1.4293  0.3513
10983TIP3    H254365   1.049   6.205  11.684  1.1919  0.4106  0.1812
10984TIP3   OH254366   2.456   0.155  10.597 -0.3485 -0.3276  0.1624
10984TIP3    H154367   2.458   0.073  10.647  1.9807 -0.7452 -0.5560
10984TIP3    H254368   2.544   0.192  10.609 -0.9055  1.3279 -0.7513
10985TIP3   OH254369   2.935   1.340  17.163 -0.2799  0.2015 -0.4043
10985TIP3    H154370   2.856   1.289  17.180  0.3325 -0.3910  0.7066
10985TIP3    H254371   2.914   1.391  17.084 -1.4167 -0.6548 -0.6676
10986TIP3   OH254372   4.105   1.482   5.724  0.1287 -0.3434  0.1394
10986TIP3    H154373   4.054   1.522   5.654 -1.2168 -1.8127  0.2402
10986TIP3    H254374   4.194   1.476   5.690 -0.0433  1.0181 -0.5683
10987TIP3   OH254375   4.288   4.062   1.845 -0.0104 -0.4576 -0.2912
10987TIP3    H154376   4.332   4.072   1.929  2.9866 -0.0587 -1.8421
10987TIP3    H254377   4.199   4.095   1.860  0.3539 -0.7365  2.7793
10988TIP3   OH254378   4.815   6.313  15.684 -0.3042 -0.0731 -0.4423
10988TIP3    H154379   4.862   6.253  15.627  1.7910  1.7735 -0.7463
10988TIP3    H254380   4.827   6.277  15.772  0.4081 -0.4447 -0.6836
10989TIP3   OH254381   6.775   6.647   1.133  0.0006 -0.1620  0.3739
10989TIP3    H154382   6.824   6.570   1.106 -2.4808 -1.6682 -0.0302
10989TIP3    H254383   6.765   6.637   1.228  0.2247 -0.0140  0.4127
10990TIP3   OH254384   2.234   5.289   1.875 -0.1904 -0.9562  0.0071
10990TIP3    H154385   2.155   5.339   1.855 -0.4057  0.1328  3.2525
10990TIP3    H254386   2.202   5.202   1.900 -0.0941 -1.5566 -1.9141
10991TIP3   OH254387   3.205   6.685   4.947 -0.5071 -0.3127 -0.0857
10991TIP3    H154388   3.223   6.677   4.854  1.4153  2.9167 -0.0915
10991TIP3    H254389   3.162   6.770   4.956 -2.3867 -1.4060  1.7923
10992TIP3   OH254390   0.580   0.252  14.493 -0.0523  0.5488 -0.3047
10992TIP3    H154391   0.619   0.164  14.496  2.2720  1.5177 -1.1050
10992TIP3    H254392   0.590   0.279  14.402 -1.6799  1.2717 -0.2882
10993TIP3   OH254393   0.296   6.320  11.188 -0.3176 -0.1206  0.0394
10993TIP3    H154394   0.238   6.392  11.213  0.0855 -1.2107  4.4685
10993TIP3    H254395   0.373   6.331  11.243  0.3214 -3.1516 -0.1788
10994TIP3   OH254396   3.657   1.035   1.795 -0.0231 -0.6528  0.2592
10994TIP3    H154397   3.627   0.949   1.765  2.5293 -0.9985 -1.5180
10994TIP3    H254398   3.733   1.015   1.850  0.6303  0.4759 -0.2340
10995TIP3   OH254399   5.645   3.372   5.003 -0.6381 -0.6635  0.1575
10995TIP3    H154400   5.719   3.317   5.028  0.8857  0.6489 -1.3182
10995TIP3    H254401   5.577   3.352   5.067  0.4033 -3.1268  0.5518
10996TIP3   OH254402   1.490   0.811  13.387  0.7882 -0.1708  0.4654
10996TIP3    H154403   1.531   0.726  13.400  0.4400 -0.1084  2.0759
10996TIP3    H254404   1.422   0.816  13.455  0.0628  0.9292 -0.3169
10997TIP3   OH254405   3.784   4.667  12.970 -0.0672  0.4142 -0.1167
10997TIP3    H154406   3.729   4.600  13.010 -0.5971  0.7600 -0.2544
10997TIP3    H254407   3.749   4.750  13.004  0.3290  0.6396 -0.2567
10998TIP3   OH254408   2.515   3.566   1.349 -0.3727 -0.1439  0.1772
10998TIP3    H154409   2.496   3.656   1.322  1.2895  0.1614 -0.0128
10998TIP3    H254410   2.570   3.576   1.427  0.0159 -0.9963  0.0086
10999TIP3   OH254411   6.395   4.433   3.169 -0.6044 -0.2309  0.1995
10999TIP3    H154412   6.342   4.405   3.094  0.5119  2.5798 -1.7534
10999TIP3    H254413   6.342   4.501   3.211  0.3959  0.9133 -0.3517
11000TIP3   OH254414   5.138   5.960   5.340  0.2887  0.6147  0.3254
11000TIP3    H154415   5.144   5.976   5.434 -0.8195  1.6177  0.2371
11000TIP3    H254416   5.229   5.956   5.311  0.6504 -0.8008  1.6078
11001TIP3   OH254417   4.780   6.513  15.190 -0.1945 -0.2407  0.2251
11001TIP3    H154418   4.838   6.562  15.131 -0.9689  1.8938  1.1812
11001TIP3    H254419   4.821   6.522  15.276  0.0062 -1.8757  0.3090
11002TIP3   OH254420   3.616   0.757  16.111 -0.4419  0.3379 -0.4666
11002TIP3    H154421   3.524   0.782  16.120 -0.1426  1.3943 -0.2576
11002TIP3    H254422   3.646   0.741  16.200 -0.3563  0.2556 -0.5079
11003TIP3   OH254423   4.086   0.299  13.139 -0.3416 -0.0350  0.2916
11003TIP3    H154424   4.132   0.284  13.056 -1.5478 -1.5363 -0.1213
11003TIP3    H254425   4.010   0.352  13.115 -1.9218 -2.3484  0.0490
11004TIP3   OH254426   6.544   6.178  14.510 -0.0568  0.4038 -0.0745
11004TIP3    H154427   6.619   6.238  14.513  1.3074 -1.2986  0.8893
11004TIP3    H254428   6.497   6.195  14.592 -0.5626  1.2733 -0.5454
11005TIP3   OH254429   0.208   6.213  16.407  0.0996  0.0913 -0.2545
11005TIP3    H154430   0.192   6.288  16.351  0.7605  0.0824 -0.4596
11005TIP3    H254431   0.224   6.141  16.346  0.3615 -0.0185 -0.0575
11006TIP3   OH254432   3.081   5.516   0.058 -0.1476  0.5695 -0.9081
11006TIP3    H154433   3.156   5.457   0.061 -0.3927  0.3286  1.8604
11006TIP3    H254434   3.013   5.465   0.014  0.5895 -0.0916 -1.2877
11007TIP3   OH254435   4.095   3.543  14.154  0.6500 -0.0668  0.2743
11007TIP3    H154436   4.189   3.541  14.139  0.5588  0.9468 -0.4778
11007TIP3    H254437   4.065   3.624  14.111 -0.4958 -0.1746  0.8395
11008TIP3   OH254438   3.310   5.524   5.775 -0.2543 -0.0442  0.2239
11008TIP3    H154439   3.248   5.484   5.714 -1.1306  2.5183 -0.6443
11008TIP3    H254440   3.257   5.549   5.851 -0.7468  3.7913 -1.2728
11009TIP3   OH254441   3.704   1.575  16.509  0.3307 -0.1695  0.1155
11009TIP3    H154442   3.619   1.548  16.475 -0.0526  1.0008  0.1097
11009TIP3    H254443   3.714   1.666  16.479  1.3740 -0.1479  0.5000
11010TIP3   OH254444   4.618   0.798   5.953  0.8023 -0.9012  0.1180
11010TIP3    H154445   4.622   0.703   5.958  1.1013 -0.8590  0.6051
11010TIP3    H254446   4.539   0.815   5.900  1.1574 -1.4292 -0.5884
11011TIP3   OH254447   2.795   1.854  13.039  0.1646  0.2274 -0.3782
11011TIP3    H154448   2.885   1.878  13.061  0.4551  0.0054 -1.3102
11011TIP3    H254449   2.744   1.879  13.116  0.8568  1.4204 -0.2957
11012TIP3   OH254450   3.576   5.799  12.872 -0.2166 -0.1819 -0.2002
11012TIP3    H154451   3.522   5.720  12.864 -1.2597  0.5780 -0.7930
11012TIP3    H254452   3.531   5.853  12.936  0.6859 -0.2133  0.4677
11013TIP3   OH254453   5.398   5.655   5.348 -0.0237  0.2884  0.3433
11013TIP3    H154454   5.463   5.713   5.388 -0.4965  0.2301  1.2153
11013TIP3    H254455   5.430   5.567   5.364  0.7484  0.3054 -1.0769
11014TIP3   OH254456   5.495   5.381   3.019 -0.1464 -0.3568  0.2113
11014TIP3    H154457   5.488   5.317   3.089  0.6245 -0.5668  0.1014
11014TIP3    H254458   5.513   5.464   3.063  3.6771 -1.0382  0.1411
11015TIP3   OH254459   4.230   1.956  15.790  0.2487 -0.2555  0.1559
11015TIP3    H154460   4.252   1.940  15.882  1.8599 -1.1345 -0.3528
11015TIP3    H254461   4.299   2.015  15.759  0.0277 -0.3990 -0.6200
11016TIP3   OH254462   2.163   1.826   4.044  0.0419  0.6630 -0.2291
11016TIP3    H154463   2.081   1.835   3.997  0.7818 -0.7739 -1.8429
11016TIP3    H254464   2.170   1.905   4.097 -0.4696  2.6617 -3.0613
11017TIP3   OH254465   1.556   6.717   3.155  0.2528 -0.6406 -0.0233
11017TIP3    H154466   1.590   6.644   3.103  0.2244 -1.6126  1.2856
11017TIP3    H254467   1.627   6.741   3.213 -0.3802 -0.8891  0.8651
11018TIP3   OH254468   2.788   3.699   4.315  0.3125 -0.0103  0.0650
11018TIP3    H154469   2.883   3.709   4.316  0.3485 -0.3493  1.0673
11018TIP3    H254470   2.757   3.759   4.383 -0.1516 -0.2935  0.1063
11019TIP3   OH254471   0.834   0.606   1.357 -0.3928 -0.2609 -0.6967
11019TIP3    H154472   0.927   0.621   1.338 -0.1427 -1.2287 -0.2240
11019TIP3    H254473   0.790   0.632   1.276  0.3597 -0.6394 -1.2371
11020TIP3   OH254474   5.531   4.267   5.696  0.3954  0.1286 -0.3101
11020TIP3    H154475   5.505   4.313   5.617 -1.9021 -1.1517 -0.3439
11020TIP3    H254476   5.591   4.198   5.666 -0.8341 -0.6436 -0.9899
11021TIP3   OH254477   0.452   1.271   3.954 -0.1218 -0.0887  0.0825
11021TIP3    H154478   0.454   1.207   4.025 -2.1806 -0.1022  0.1755
11021TIP3    H254479   0.541   1.272   3.919  0.1724 -2.3178  0.6989
11022TIP3   OH254480   6.042   1.569   3.672  0.0953  1.0524  0.1343
11022TIP3    H154481   6.077   1.480   3.678 -0.0946  1.0434  1.3409
11022TIP3    H254482   6.052   1.593   3.580  2.5034  0.7610  0.3030
11023TIP3   OH254483   4.359   3.143   1.877  0.4426  0.2009  0.1765
11023TIP3    H154484   4.298   3.171   1.946 -1.0134  0.4615 -1.1892
11023TIP3    H254485   4.342   3.050   1.867 -1.5036  0.7422 -1.8971
11024TIP3   OH254486   4.575   0.173  12.906 -0.0586  0.0504 -0.0633
11024TIP3    H154487   4.530   0.107  12.958 -1.6099  1.4871  0.4570
11024TIP3    H254488   4.655   0.192  12.954 -0.3963 -0.2721  0.6210
11025TIP3   OH254489   0.052   5.031   0.218 -0.6930  0.2871  0.1651
11025TIP3    H154490   0.084   4.947   0.252  1.0007  0.5906 -0.6097
11025TIP3    H254491   0.129   5.089   0.220 -1.8420  1.8383  0.7248
11026TIP3   OH254492   3.584   3.087   0.724  0.1281 -0.7040 -0.0624
11026TIP3    H154493   3.638   3.166   0.721 -1.7758  0.6672  0.6850
11026TIP3    H254494   3.526   3.094   0.648 -0.5121 -1.0175  0.3870
11027TIP3   OH254495   4.878   1.964   4.907 -0.3539 -0.1690 -0.4180
11027TIP3    H154496   4.899   1.874   4.884  0.8947 -0.6403  2.3946
11027TIP3    H254497   4.825   1.957   4.986 -0.7714  1.5406 -0.5272
11028TIP3   OH254498   5.832   4.636  15.997 -0.1482  0.0787  0.6975
11028TIP3    H154499   5.771   4.566  15.973 -0.4350  0.3864  0.5310
11028TIP3    H254500   5.859   4.674  15.914 -0.4692  0.5700  0.8187
11029TIP3   OH254501   1.989   0.689   1.089 -0.5511  0.1689 -0.2136
11029TIP3    H154502   1.988   0.772   1.040  0.4296  1.0700  1.2346
11029TIP3    H254503   1.981   0.716   1.181 -0.2380 -1.3632  0.2715
11030TIP3   OH254504   2.770   6.492   6.850  0.5234  0.4061  0.0700
11030TIP3    H154505   2.727   6.410   6.873 -0.4246  1.1281  0.9182
11030TIP3    H254506   2.706   6.538   6.795  0.9038  0.7252 -0.1089
11031TIP3   OH254507   6.487   1.797  14.590  0.3981  1.0054 -0.3810
11031TIP3    H154508   6.395   1.770  14.590  0.7776 -0.2679 -0.6388
11031TIP3    H254509   6.536   1.716  14.588  1.5402  1.7403 -2.7877
11032TIP3   OH254510   2.905   5.220  16.876  0.0535  0.1816 -0.6502
11032TIP3    H154511   2.835   5.275  16.841 -1.3389 -0.9054  0.3652
11032TIP3    H254512   2.918   5.152  16.810 -0.2113  0.1043 -0.6266
11033TIP3   OH254513   6.033   6.180   5.401 -0.0613  0.0875  0.7021
11033TIP3    H154514   5.994   6.111   5.454  1.1641 -0.7538  0.5380
11033TIP3    H254515   6.122   6.149   5.384  0.3630  1.5140  0.2751
11034TIP3   OH254516   5.558   0.080  11.128 -0.2415 -0.5966 -1.3357
11034TIP3    H154517   5.518   0.025  11.196 -1.5489 -0.4347 -1.9641
11034TIP3    H254518   5.607   0.018  11.073  1.1576 -0.6802 -0.0355
11035TIP3   OH254519   6.723   4.984  14.259 -0.4568  0.1132 -0.0300
11035TIP3    H154520   6.741   5.012  14.348  0.0088 -0.1586 -0.0352
11035TIP3    H254521   6.717   5.065  14.208  0.2817  0.2285  0.0616
11036TIP3   OH254522   0.943   5.511  14.782  0.1904 -0.1901 -0.0992
11036TIP3    H154523   0.988   5.469  14.856 -0.6010 -1.6761 -0.4486
11036TIP3    H254524   1.004   5.501  14.708  0.2725 -0.1454 -0.0384
11037TIP3   OH254525   6.488   5.931  16.588  0.2980  0.3064  0.3415
11037TIP3    H154526   6.469   5.838  16.578 -0.2966  0.3314  1.2279
11037TIP3    H254527   6.574   5.942  16.547  0.0215 -0.4774 -0.4797
11038TIP3   OH254528   5.499   3.452   0.080  0.2757  0.1594 -0.4665
11038TIP3    H154529   5.426   3.422   0.025  1.5673 -2.0145 -1.0613
11038TIP3    H254530   5.504   3.387   0.150  2.1345 -0.1750 -0.8786
11039TIP3   OH254531   1.672   0.378  14.210  0.5903 -0.1822 -0.1316
11039TIP3    H154532   1.682   0.401  14.118  0.0843 -1.0831 -0.4213
11039TIP3    H254533   1.582   0.345  14.217  0.7436 -0.4575  0.6026
11040TIP3   OH254534   1.640   1.841  12.336 -0.0917  0.0224 -0.1376
11040TIP3    H154535   1.618   1.935  12.334 -0.0842  0.0228 -0.2015
11040TIP3    H254536   1.561   1.799  12.371 -0.2883 -0.0042 -0.6158
11041TIP3   OH254537   3.064   6.069   3.120  0.2257  0.1750 -0.0816
11041TIP3    H154538   3.150   6.103   3.094  0.2232  0.7788  0.6892
11041TIP3    H254539   3.005   6.097   3.050  0.2124  1.8325  0.5674
11042TIP3   OH254540   2.561   0.022   1.664  0.3639  0.0831  0.4713
11042TIP3    H154541   2.521   0.048   1.747 -0.7566  1.3056 -0.4331
11042TIP3    H254542   2.627   0.090   1.646  0.7167 -0.2655  0.4339
11043TIP3   OH254543   6.293   5.535  12.674  0.6022  0.5666 -0.0059
11043TIP3    H154544   6.262   5.532  12.765  2.5899  1.5570  0.7101
11043TIP3    H254545   6.352   5.460  12.666  0.1007  0.2226 -0.6345
11044TIP3   OH254546   1.139   5.484  12.939 -0.4439 -0.2094 -0.2822
11044TIP3    H154547   1.208   5.440  12.989  1.2841  0.5460 -1.9021
11044TIP3    H254548   1.152   5.454  12.849 -1.7512  0.5399 -0.7389
11045TIP3   OH254549   4.044   3.639   0.505  0.1265  0.3196  0.1046
11045TIP3    H154550   4.044   3.632   0.410  2.0198  0.5562  0.0578
11045TIP3    H254551   4.137   3.634   0.529 -0.4372 -1.2977  2.0618
11046TIP3   OH254552   3.873   3.512   4.113 -0.2940 -0.1579 -0.0449
11046TIP3    H154553   3.814   3.540   4.043  1.7944 -1.2790 -2.3042
11046TIP3    H254554   3.952   3.564   4.102 -0.2569  0.3100  2.0887
11047TIP3   OH254555   1.888   3.068   2.317  0.6818 -0.5258 -0.3172
11047TIP3    H154556   1.801   3.109   2.321  0.3803 -1.0507 -1.4311
11047TIP3    H254557   1.891   3.025   2.232  2.3298  0.1024 -0.5855
11048TIP3   OH254558   0.930   5.593   3.847 -0.4454  0.4408 -1.0958
11048TIP3    H154559   0.868   5.565   3.779 -0.3184  1.7030 -1.7393
11048TIP3    H254560   1.016   5.589   3.804 -0.2974  0.6297 -0.8163
11049TIP3   OH254561   5.356   0.564   0.025  0.3670  0.1462  0.0355
11049TIP3    H154562   5.323   0.475   0.015 -0.0993  0.3080  0.1205
11049TIP3    H254563   5.280   0.620   0.007  0.0339  0.4937  2.3015
11050TIP3   OH254564   1.806   6.042   0.582 -0.0778 -0.0693 -0.4006
11050TIP3    H154565   1.785   6.131   0.609 -0.8406 -0.2310 -0.4384
11050TIP3    H254566   1.739   5.988   0.624  0.5527 -0.6516 -0.1487
11051TIP3   OH254567   1.204   3.467  14.192  0.1637 -0.1611 -0.2602
11051TIP3    H154568   1.114   3.444  14.214  0.1860 -0.5214 -0.5360
11051TIP3    H254569   1.198   3.556  14.157 -0.2451 -0.5955 -1.3258
11052TIP3   OH254570   1.732   4.539   4.860  0.0182  0.0883 -0.7660
11052TIP3    H154571   1.751   4.588   4.940 -1.6325 -0.5040  0.0057
11052TIP3    H254572   1.704   4.453   4.891  0.8764 -0.6646 -2.0374
11053TIP3   OH254573   3.643   0.938  12.703 -0.1933  0.5083  0.6938
11053TIP3    H154574   3.701   0.873  12.664  0.0582  1.3196 -0.2981
11053TIP3    H254575   3.561   0.891  12.720 -0.0814 -0.0155 -0.2184
11054TIP3   OH254576   1.418   5.176   1.405  1.2116  0.4903 -0.3379
11054TIP3    H154577   1.509   5.174   1.435  1.1881 -1.8698 -0.3569
11054TIP3    H254578   1.367   5.185   1.486  1.4013  0.0946 -0.1711
11055TIP3   OH254579   0.517   6.680  13.106 -0.2538  0.1359 -0.0268
11055TIP3    H154580   0.511   6.690  13.011 -2.6310 -0.4207  0.0446
11055TIP3    H254581   0.510   6.769  13.140 -2.3850  0.0687 -0.2508
11056TIP3   OH254582   2.692   5.346   2.448  0.3872  0.4826  0.1117
11056TIP3    H154583   2.724   5.435   2.436  1.0519  0.2036 -0.1758
11056TIP3    H254584   2.770   5.295   2.469  0.0828 -0.1376 -0.2711
11057TIP3   OH254585   0.649   6.451   0.749 -0.0810 -0.0836  0.5521
11057TIP3    H154586   0.692   6.474   0.831  0.5294 -1.2877  0.5769
11057TIP3    H254587   0.721   6.430   0.690 -0.5090  0.8565 -0.3311
11058TIP3   OH254588   3.708   0.472  15.763  0.1365  0.0862 -0.4128
11058TIP3    H154589   3.795   0.454  15.799  0.1495 -2.3344 -1.5599
11058TIP3    H254590   3.650   0.470  15.839  0.6178 -1.7794 -0.0653
11059TIP3   OH254591   5.818   4.096   2.143  0.0231  0.2507 -0.8413
11059TIP3    H154592   5.889   4.032   2.143 -1.9509 -2.0841  1.0198
11059TIP3    H254593   5.858   4.177   2.171  2.1270 -0.8044 -0.7206
11060TIP3   OH254594   1.209   5.939  10.496  0.1072 -0.1170 -0.0372
11060TIP3    H154595   1.181   5.878  10.564  2.0210  0.0628  0.9348
11060TIP3    H254596   1.303   5.926  10.489  0.2824  1.5303 -1.0081
11061TIP3   OH254597   3.597   5.830  13.516  0.3998  0.0521  0.6959
11061TIP3    H154598   3.690   5.809  13.507  0.5240 -0.1448  2.3949
11061TIP3    H254599   3.575   5.808  13.606 -0.9227  1.6099  0.7845
11062TIP3   OH254600   5.367   5.087  15.167  0.0227  0.7135  0.3947
11062TIP3    H154601   5.436   5.073  15.231  0.0044  0.8422  0.4424
11062TIP3    H254602   5.376   5.013  15.106  0.8184  1.2470 -0.1499
11063TIP3   OH254603   4.440   2.606  13.774  0.1573 -0.0516  0.0355
11063TIP3    H154604   4.427   2.511  13.771 -1.0736  0.1179 -0.7553
11063TIP3    H254605   4.394   2.635  13.853 -1.2244  0.1091 -0.8041
11064TIP3   OH254606   0.714   4.518  14.025  0.0988 -0.0326 -0.2630
11064TIP3    H154607   0.655   4.560  13.963  0.4047  1.1890  0.2616
11064TIP3    H254608   0.663   4.446  14.062 -0.2518 -0.4531 -1.5456
11065TIP3   OH254609   2.084   3.140   3.181 -0.4318 -0.2201  0.8740
11065TIP3    H154610   2.073   3.056   3.137 -0.7524 -0.1598  0.8336
11065TIP3    H254611   2.118   3.198   3.113  1.1047 -0.6606  1.2580
11066TIP3   OH254612   0.660   2.896  11.400 -0.1155 -0.3003  0.1617
11066TIP3    H154613   0.672   2.932  11.312 -0.7129  0.9303  0.5686
11066TIP3    H254614   0.571   2.921  11.424  0.6933  1.0010  1.8491
11067TIP3   OH254615   1.505   0.135   0.992 -0.1340  0.0157 -0.4757
11067TIP3    H154616   1.422   0.138   1.040  0.3485 -1.2926  0.4537
11067TIP3    H254617   1.534   0.044   1.000  1.9534  0.7218  0.1666
11068TIP3   OH254618   2.779   2.248   1.216  0.2894  0.1551  0.1862
11068TIP3    H154619   2.776   2.179   1.283 -0.7556 -1.1994 -1.2458
11068TIP3    H254620   2.856   2.227   1.163  0.6363  0.7649  0.4328
11069TIP3   OH254621   3.731   6.192   4.821  0.2320 -0.8992 -0.1589
11069TIP3    H154622   3.811   6.211   4.870 -1.1488 -1.1002  2.2474
11069TIP3    H254623   3.701   6.278   4.790  1.0848 -0.7613 -0.6135
11070TIP3   OH254624   5.911   3.686  15.826  0.1260  0.5434  0.6291
11070TIP3    H154625   5.841   3.702  15.890  1.2284  0.3400  1.8924
11070TIP3    H254626   5.972   3.759  15.839  1.7601 -0.9988  1.7368
11071TIP3   OH254627   0.939   0.958   5.121  0.2087 -0.1015 -0.2397
11071TIP3    H154628   1.022   0.949   5.167  0.1191  0.0192 -0.0508
11071TIP3    H254629   0.948   1.039   5.070  0.3937 -0.3610 -0.6156
11072TIP3   OH254630   2.358   1.143  12.360 -0.0855 -0.1401  0.4003
11072TIP3    H154631   2.366   1.068  12.300 -0.3469 -0.3037  0.5708
11072TIP3    H254632   2.398   1.216  12.313  1.0767 -0.6176  0.6265
11073TIP3   OH254633   0.446   0.108   2.295 -0.7181 -0.1597  0.0704
11073TIP3    H154634   0.408   0.074   2.375 -0.2457 -2.4450 -0.6357
11073TIP3    H254635   0.531   0.064   2.288 -0.6003  0.2762 -1.4951
11074TIP3   OH254636   3.266   0.631   4.240  0.2723 -0.5347 -0.1916
11074TIP3    H154637   3.219   0.679   4.172  0.2488 -1.4611 -0.8381
11074TIP3    H254638   3.358   0.655   4.226  0.2802 -0.8099 -0.6199
11075TIP3   OH254639   1.843   1.739   0.868  1.0545 -0.2968 -0.2143
11075TIP3    H154640   1.807   1.651   0.880  0.4145  0.0275  0.2824
11075TIP3    H254641   1.776   1.786   0.819  0.6895  0.3719  0.9057
11076TIP3   OH254642   6.457   4.849  13.325 -0.2203 -0.1339  0.2987
11076TIP3    H154643   6.393   4.892  13.269 -1.2011  0.0245  1.5308
11076TIP3    H254644   6.542   4.883  13.295 -0.8221  0.8784 -0.2682
11077TIP3   OH254645   4.842   1.432  11.899 -0.5113 -0.1303  0.6043
11077TIP3    H154646   4.788   1.357  11.873 -1.3746  0.5738  0.3594
11077TIP3    H254647   4.903   1.444  11.826 -1.0602  0.0649  0.1789
11078TIP3   OH254648   6.004   3.774  16.153 -0.3525 -0.5419  0.4592
11078TIP3    H154649   6.069   3.829  16.196  1.3213  0.1555 -2.8196
11078TIP3    H254650   5.926   3.829  16.146  0.3861  0.4325 -0.2001
11079TIP3   OH254651   1.066   5.667  16.341  0.4956 -0.2651 -0.1887
11079TIP3    H154652   1.003   5.605  16.303  0.0915  0.0289 -0.0040
11079TIP3    H254653   1.109   5.617  16.411 -1.8223  0.5063  1.8525
11080TIP3   OH254654   4.305   5.370   4.342 -0.5368 -0.1061  0.0865
11080TIP3    H154655   4.281   5.282   4.314 -1.2616  0.4561 -1.1146
11080TIP3    H254656   4.254   5.428   4.285  1.2402  1.0946 -0.3411
11081TIP3   OH254657   1.687   3.338   0.372 -0.2293 -0.1920 -0.3701
11081TIP3    H154658   1.608   3.285   0.381 -0.9571  0.8453 -0.4672
11081TIP3    H254659   1.670   3.393   0.295  0.6975 -0.1413 -0.5489
11082TIP3   OH254660   5.500   0.580   5.687 -0.1196 -0.3184 -0.1749
11082TIP3    H154661   5.500   0.517   5.759  1.1374  0.1599  0.2739
11082TIP3    H254662   5.414   0.621   5.689 -0.4355 -1.0177  0.4246
11083TIP3   OH254663   4.814   3.668  15.802 -0.0816 -0.2559 -0.4752
11083TIP3    H154664   4.722   3.683  15.781 -0.0889  1.4062  0.5615
11083TIP3    H254665   4.862   3.728  15.744  0.2664 -0.2720 -0.2091
11084TIP3   OH254666   3.157   5.365  11.440  0.1276  0.7273 -0.1725
11084TIP3    H154667   3.226   5.407  11.389 -0.4584  1.4769 -0.3497
11084TIP3    H254668   3.097   5.328  11.375  0.5538 -0.2687 -0.0198
11085TIP3   OH254669   5.424   0.027   4.122  0.0166  0.0212 -0.4464
11085TIP3    H154670   5.421   0.122   4.130  2.4363  0.0798  0.2577
11085TIP3    H254671   5.516   0.005   4.139 -0.8149 -2.5761  0.8076
11086TIP3   OH254672   2.397   4.922  15.982 -0.2222  0.5985  0.3828
11086TIP3    H154673   2.478   4.885  15.946 -0.6496 -1.9560  1.9397
11086TIP3    H254674   2.427   4.981  16.051  0.3207 -0.0079  0.6714
11087TIP3   OH254675   2.651   6.663   4.631 -0.1077 -0.5679 -0.2409
11087TIP3    H154676   2.613   6.729   4.573 -1.0421 -0.4655  0.4650
11087TIP3    H254677   2.602   6.583   4.612  0.1618 -0.7429 -0.2012
11088TIP3   OH254678   4.171   3.851  16.197  0.0666 -0.2002 -0.5115
11088TIP3    H154679   4.169   3.803  16.114  1.1392 -1.5857  0.2589
11088TIP3    H254680   4.240   3.917  16.185 -0.7611  0.5530 -1.2240
11089TIP3   OH254681   6.325   6.734  14.061 -0.7218 -0.1018  0.2195
11089TIP3    H154682   6.265   6.659  14.053  0.7318 -1.0351 -2.4790
11089TIP3    H254683   6.295   6.796  13.995  0.1373  0.2695  0.1761
11090TIP3   OH254684   4.551   3.866  12.032 -0.9147 -0.0751  0.2588
11090TIP3    H154685   4.586   3.927  12.096 -2.2425 -0.3259  1.2421
11090TIP3    H254686   4.626   3.840  11.979 -0.0293  1.0415  0.9653
11091TIP3   OH254687   1.921   5.775   2.230 -0.6371 -0.5027  0.1445
11091TIP3    H154688   1.992   5.826   2.271 -1.1574  0.5063 -0.1880
11091TIP3    H254689   1.842   5.826   2.249 -1.2292 -1.4555  0.2255
11092TIP3   OH254690   1.986   3.087  15.614  0.1548  0.1925  0.6083
11092TIP3    H154691   2.024   3.035  15.685 -1.1201 -2.8589 -0.8403
11092TIP3    H254692   1.892   3.091  15.635 -0.4781 -1.9733 -1.5666
11093TIP3   OH254693   6.486   5.047   1.602  0.5379 -0.2880 -0.2944
11093TIP3    H154694   6.458   5.037   1.693  0.2806 -0.0978 -0.3526
11093TIP3    H254695   6.582   5.046   1.606  0.5267 -0.4852 -0.0456
11094TIP3   OH254696   5.134   2.469  12.047 -0.2274  0.1633 -0.1284
11094TIP3    H154697   5.169   2.463  12.136  0.8118 -0.4959 -0.5759
11094TIP3    H254698   5.135   2.379  12.014 -1.5169  0.2676 -0.4674
11095TIP3   OH254699   6.763   4.660   0.467 -0.1141 -0.3831  0.6329
11095TIP3    H154700   6.728   4.629   0.383  0.6361 -2.6426  1.1322
11095TIP3    H254701   6.843   4.610   0.480 -0.4319 -0.3626  2.9125
11096TIP3   OH254702   5.452   0.345  14.007  0.3147  0.2871  0.2132
11096TIP3    H154703   5.544   0.345  13.981  0.2144 -0.4076 -0.1427
11096TIP3    H254704   5.454   0.332  14.101  0.4997 -2.1707 -0.1089
11097TIP3   OH254705   1.587   4.549  12.983  0.2916 -0.0184 -0.3469
11097TIP3    H154706   1.507   4.541  13.034  0.8405  2.2375  0.9569
11097TIP3    H254707   1.639   4.473  13.009  0.3044  0.7593  2.0599
11098TIP3   OH254708   5.383   1.904   5.710  0.4961  0.2748 -0.1877
11098TIP3    H154709   5.377   1.878   5.618  2.2809  1.2404 -0.6162
11098TIP3    H254710   5.477   1.912   5.726  0.1605  1.3592  1.3698
11099TIP3   OH254711   3.536   0.210  14.522 -0.0532 -0.2466 -0.0636
11099TIP3    H154712   3.586   0.291  14.511  0.5815 -0.8321 -1.4944
11099TIP3    H254713   3.596   0.140  14.498 -1.4094 -0.9804 -1.4219
11100TIP3   OH254714   1.160   1.012  17.157  0.1901 -0.1787  0.5993
11100TIP3    H154715   1.187   0.920  17.163 -0.0088 -0.2327  0.6734
11100TIP3    H254716   1.209   1.046  17.082 -1.6728 -1.0448 -1.0752
11101TIP3   OH254717   4.570   2.873   3.597  0.0975 -0.1659 -0.1085
11101TIP3    H154718   4.533   2.863   3.509 -1.6727  0.0552  0.5788
11101TIP3    H254719   4.624   2.952   3.592 -1.3024  0.7758 -0.5905
11102TIP3   OH254720   2.888   6.549   1.826 -0.2444 -0.1647 -0.0919
11102TIP3    H154721   2.956   6.542   1.892 -0.7382 -2.0302  0.2414
11102TIP3    H254722   2.922   6.500   1.751 -0.3334  0.6597 -0.6749
11103TIP3   OH254723   2.471   1.992   5.257  0.1050 -0.8343  0.3975
11103TIP3    H154724   2.508   1.924   5.201 -0.0595 -0.0853 -0.6359
11103TIP3    H254725   2.430   2.053   5.196 -0.3371 -0.1615  1.3579
11104TIP3   OH254726   5.262   3.986   1.375 -0.0097  0.3819  0.7405
11104TIP3    H154727   5.294   3.897   1.389  2.8236  1.2630  0.0435
11104TIP3    H254728   5.198   3.978   1.304  1.8474 -0.7776 -0.8362
11105TIP3   OH254729   1.363   3.334  12.123 -0.2218 -0.5187  0.2443
11105TIP3    H154730   1.300   3.265  12.140  0.0218 -0.9062 -0.3889
11105TIP3    H254731   1.442   3.288  12.093 -0.4156  0.0738 -1.2465
11106TIP3   OH254732   3.769   1.967  10.993 -0.3735 -0.3980  0.0025
11106TIP3    H154733   3.789   2.060  10.992 -0.1937 -0.4333  0.2331
11106TIP3    H254734   3.820   1.931  10.920 -2.1404  0.0233 -1.4618
11107TIP3   OH254735   5.408   3.087   4.472  0.2494  0.1390  0.2470
11107TIP3    H154736   5.439   3.142   4.545  1.7778 -0.3669  0.0025
11107TIP3    H254737   5.423   3.140   4.394 -0.7204  0.3984  0.2358
11108TIP3   OH254738   3.252   6.138   4.915 -0.3027  0.0255  0.2675
11108TIP3    H154739   3.195   6.203   4.954  0.3452  0.9856 -0.3595
11108TIP3    H254740   3.282   6.178   4.833  0.1389 -1.0384 -0.1084
11109TIP3   OH254741   1.173   0.421   3.939 -0.0851  0.6737 -0.0934
11109TIP3    H154742   1.121   0.414   4.020  0.5949  0.3361  0.3165
11109TIP3    H254743   1.140   0.500   3.896 -0.3071  0.9727  0.6193
11110TIP3   OH254744   2.507   2.262  16.985  0.3691  0.3888 -0.5901
11110TIP3    H154745   2.554   2.283  16.904  0.1429  0.7847 -0.6225
11110TIP3    H254746   2.525   2.169  17.000  0.3503  0.2920 -1.1384
11111TIP3   OH254747   0.651   0.902   3.470 -0.8214  0.6305  0.5761
11111TIP3    H154748   0.581   0.915   3.406  0.0027 -1.1520 -0.7191
11111TIP3    H254749   0.684   0.814   3.452 -0.1746  0.3176  3.0693
11112TIP3   OH254750   4.964   4.404   4.308  0.8205  0.0718 -0.0391
11112TIP3    H154751   4.980   4.366   4.222  0.3795 -0.1220 -0.0371
11112TIP3    H254752   4.983   4.498   4.297  1.4076 -0.0618 -0.1737
11113TIP3   OH254753   6.316   1.590   2.786  0.9349 -0.5029  0.1276
11113TIP3    H154754   6.277   1.658   2.841  2.2752 -0.5403  1.1569
11113TIP3    H254755   6.410   1.601   2.799  1.1675 -2.2874 -0.0116
11114TIP3   OH254756   6.089   1.244   2.253  0.2965  0.8137  0.3959
11114TIP3    H154757   6.052   1.286   2.175  0.7290  1.7057  0.6649
11114TIP3    H254758   6.098   1.152   2.229 -0.1856  0.9655 -0.3791
11115TIP3   OH254759   0.367   0.265   4.480  0.2415 -0.3713  0.2403
11115TIP3    H154760   0.412   0.242   4.562  0.8542 -1.8963 -0.5139
11115TIP3    H254761   0.431   0.248   4.411 -0.7367 -0.3932 -0.6777
11116TIP3   OH254762   4.689   1.261  15.532  0.0020  0.3371  0.0753
11116TIP3    H154763   4.712   1.247  15.624 -0.7684  1.9005  0.5174
11116TIP3    H254764   4.660   1.176  15.501  0.0450 -0.1457  1.3405
11117TIP3   OH254765   4.855   5.063   5.910 -0.0041 -0.9817  0.5715
11117TIP3    H154766   4.947   5.038   5.898 -0.2051 -1.5545  0.2129
11117TIP3    H254767   4.813   4.984   5.944 -0.5777 -1.0314 -0.2380
11118TIP3   OH254768   1.099   3.551   3.998 -1.1994 -0.1586  0.0385
11118TIP3    H154769   1.076   3.590   3.914 -0.8737  0.1474  0.0896
11118TIP3    H254770   1.144   3.469   3.975  0.0576  0.5602 -0.1181
11119TIP3   OH254771   2.092   0.127  12.097  0.6653  0.0711  0.3590
11119TIP3    H154772   2.084   0.222  12.106 -1.0050 -0.3134  3.5895
11119TIP3    H254773   2.006   0.099  12.067  0.8740 -0.5069  0.3071
11120TIP3   OH254774   1.929   6.648   1.903 -0.2065  0.3353 -0.5711
11120TIP3    H154775   2.017   6.611   1.910 -0.3113  0.2795  0.6751
11120TIP3    H254776   1.941   6.742   1.916 -0.5052  0.1360  1.4332
11121TIP3   OH254777   5.349   2.878  15.165 -0.3414  0.2570  0.2460
11121TIP3    H154778   5.389   2.805  15.213 -1.1412  0.0696  0.6341
11121TIP3    H254779   5.267   2.895  15.211 -1.0704  0.1462 -1.0011
11122TIP3   OH254780   4.288   3.680  15.993 -0.4010  0.3736  0.2090
11122TIP3    H154781   4.295   3.607  15.932  0.2482  0.1386  0.5582
11122TIP3    H254782   4.350   3.745  15.961  1.3422 -0.5362  1.6936
11123TIP3   OH254783   3.652   6.412   4.632 -0.0853  0.6824 -0.4117
11123TIP3    H154784   3.692   6.391   4.547  2.0106  0.6949  0.5329
11123TIP3    H254785   3.671   6.505   4.644  0.7827  0.3801  0.6507
11124TIP3   OH254786   3.473   1.756   2.312  0.1533 -0.7168 -0.4790
11124TIP3    H154787   3.552   1.714   2.279 -0.3786 -0.9424 -1.4797
11124TIP3    H254788   3.447   1.703   2.387  0.8927 -0.6896 -0.1937
11125TIP3   OH254789   0.694   6.098  14.088 -0.3098 -0.3009 -0.0766
11125TIP3    H154790   0.768   6.140  14.130  1.3009  0.1023 -3.2183
11125TIP3    H254791   0.708   6.004  14.103  1.5004 -0.3093 -1.6107
11126TIP3   OH254792   6.299   2.611   1.548 -0.2400 -0.1705 -0.2982
11126TIP3    H154793   6.285   2.702   1.575 -1.2168 -0.3405 -0.2030
11126TIP3    H254794   6.353   2.617   1.469 -0.3792  0.4900 -0.3456
11127TIP3   OH254795   2.474   3.805  15.227  0.7769 -0.2954  0.1778
11127TIP3    H154796   2.480   3.767  15.315  0.9423  0.6220  0.5701
11127TIP3    H254797   2.562   3.838  15.209  0.8610 -0.8809 -0.5277
11128TIP3   OH254798   2.323   1.099  13.937  0.2996  0.3439 -0.0324
11128TIP3    H154799   2.243   1.150  13.945 -0.4829 -0.6944 -1.0248
11128TIP3    H254800   2.391   1.154  13.976 -0.6200  1.8886 -0.5622
11129TIP3   OH254801   4.005   5.704  15.126 -0.4198 -0.0613  0.4912
11129TIP3    H154802   4.038   5.767  15.191 -0.0783  0.5439 -0.2567
11129TIP3    H254803   4.080   5.689  15.068 -0.2486 -1.8183  1.1559
11130TIP3   OH254804   3.175   6.630   2.294  0.3225 -0.0314  0.5096
11130TIP3    H154805   3.257   6.616   2.339  0.5923 -0.7181 -0.1729
11130TIP3    H254806   3.190   6.707   2.239  0.7378 -0.5581 -0.1268
11131TIP3   OH254807   2.506   3.519  13.479 -0.1960 -0.0714 -0.7713
11131TIP3    H154808   2.468   3.588  13.424  0.1606 -0.2570 -1.2463
11131TIP3    H254809   2.433   3.489  13.533 -0.8533 -0.8131 -2.0709
11132TIP3   OH254810   2.371   6.453  12.034 -0.5870  0.4038  0.0324
11132TIP3    H154811   2.310   6.411  11.974  1.2197  0.5840 -2.0135
11132TIP3    H254812   2.336   6.541  12.047 -1.5041  0.0392  0.0143
11133TIP3   OH254813   2.556   6.774  12.480 -0.6768 -0.7195  0.2173
11133TIP3    H154814   2.549   6.680  12.463  2.7918 -1.0538  0.1342
11133TIP3    H254815   2.563   6.813  12.392  4.2537 -1.1371  0.2538
11134TIP3   OH254816   0.763   4.036   6.308  0.1847 -0.8853 -0.3949
11134TIP3    H154817   0.692   4.094   6.279  1.4220  0.2701 -1.1513
11134TIP3    H254818   0.724   3.949   6.307 -1.6574 -0.1069  0.5801
11135TIP3   OH254819   3.338   5.258  16.610 -0.2902  0.2419 -0.1579
11135TIP3    H154820   3.350   5.172  16.571 -0.4776  0.9797 -1.8809
11135TIP3    H254821   3.427   5.294  16.618 -0.2060 -0.1441  0.6371
11136TIP3   OH254822   1.497   3.485   2.295  0.0331  0.2193  0.2926
11136TIP3    H154823   1.441   3.514   2.367  1.1670  0.1182  1.2163
11136TIP3    H254824   1.575   3.540   2.301  0.6471 -0.5920 -0.1200
11137TIP3   OH254825   0.307   5.715   1.310  1.2600  0.7321 -0.7654
11137TIP3    H154826   0.336   5.768   1.384  0.1661  1.9723 -1.2014
11137TIP3    H254827   0.301   5.777   1.237 -1.0757  0.2333 -1.0283
11138TIP3   OH254828   2.726   1.976  14.979 -0.0247 -0.1753  0.0873
11138TIP3    H154829   2.799   1.965  14.919 -1.5999 -1.1484 -1.7004
11138TIP3    H254830   2.675   1.896  14.970 -2.5169  1.3920 -0.3899
11139TIP3   OH254831   2.054   3.071  14.111 -0.0313 -0.2183 -0.1799
11139TIP3    H154832   2.065   3.082  14.017  0.3879  0.1636 -0.0893
11139TIP3    H254833   2.142   3.048  14.142  0.0842  0.7880  0.2690
11140TIP3   OH254834   0.593   4.703   2.047 -0.2292  0.4767  0.1620
11140TIP3    H154835   0.610   4.624   2.098 -0.6350 -0.8608 -1.6916
11140TIP3    H254836   0.500   4.698   2.026  0.5657 -0.7782 -3.4745
11141TIP3   OH254837   4.951   6.441  11.697  0.7330 -0.7648 -0.0821
11141TIP3    H154838   4.941   6.370  11.633  0.7636 -1.8616  1.1178
11141TIP3    H254839   4.902   6.412  11.774  0.1886  0.8152  0.1962
11142TIP3   OH254840   6.337   0.245   5.010  0.1932  0.1486  0.1878
11142TIP3    H154841   6.378   0.166   4.975 -0.1220  0.3754 -0.7272
11142TIP3    H254842   6.302   0.219   5.095  0.7910 -0.4781  0.2494
11143TIP3   OH254843   6.352   6.297  11.327 -0.1453  0.3863 -0.1897
11143TIP3    H154844   6.447   6.293  11.339 -0.2826  0.1423  0.9197
11143TIP3    H254845   6.324   6.206  11.331 -0.1933  0.2644 -2.7062
11144TIP3   OH254846   3.691   3.623   0.452  0.4889  0.5018  0.2046
11144TIP3    H154847   3.603   3.586   0.462  0.7424  0.4862  2.4971
11144TIP3    H254848   3.675   3.717   0.435  0.0156  0.2861 -0.6112
11145TIP3   OH254849   2.845   1.566  15.243 -0.7794  0.0801 -0.0239
11145TIP3    H154850   2.849   1.470  15.243 -1.2350  0.0615 -0.3884
11145TIP3    H254851   2.754   1.587  15.225 -1.2403  0.5695  2.5754
11146TIP3   OH254852   1.675   2.954   0.594 -0.3930 -0.1477 -0.7527
11146TIP3    H154853   1.661   2.998   0.510 -1.8954  0.1523 -0.3595
11146TIP3    H254854   1.602   2.892   0.601 -0.0601 -0.4443  0.1600
11147TIP3   OH254855   6.324   0.792   0.299 -0.3513  0.4106 -0.4590
11147TIP3    H154856   6.298   0.700   0.305 -0.9685  0.7259  2.1472
11147TIP3    H254857   6.370   0.809   0.381  1.8792  1.8083 -1.9567
11148TIP3   OH254858   2.651   3.643   0.633 -0.3481 -0.2215 -0.0786
11148TIP3    H154859   2.628   3.585   0.705  1.6562 -1.5869 -0.4861
11148TIP3    H254860   2.605   3.725   0.652  0.3359 -0.4741  2.8867
11149TIP3   OH254861   6.715   4.310   1.649  0.0799  0.4703 -0.1340
11149TIP3    H154862   6.708   4.380   1.714  1.1122  1.0707 -0.6581
11149TIP3    H254863   6.797   4.266   1.671 -1.0980 -1.2860  0.8743
11150TIP3   OH254864   0.690   3.023  13.755  0.1068  0.1096  0.9832
11150TIP3    H154865   0.707   2.940  13.800  1.0285 -0.8237 -1.0161
11150TIP3    H254866   0.767   3.077  13.774  0.1569 -0.0087  1.1170
11151TIP3   OH254867   4.636   1.148  14.378 -0.5410 -0.3178  0.7714
11151TIP3    H154868   4.564   1.163  14.316 -0.5686 -0.8824  0.6636
11151TIP3    H254869   4.612   1.067  14.423  0.1687 -0.6675  0.5287
11152TIP3   OH254870   0.934   1.509  14.426 -0.3908  0.4781  0.4493
11152TIP3    H154871   0.968   1.509  14.516  0.0022  0.7868  0.3050
11152TIP3    H254872   0.988   1.446  14.380  2.0013  3.1104 -0.5059
11153TIP3   OH254873   6.047   6.367  16.876  0.4506  0.2262 -0.6398
11153TIP3    H154874   6.025   6.440  16.934  1.3654 -0.0920  0.1379
11153TIP3    H254875   5.963   6.332  16.847  0.0076  1.3520 -0.7097
11154TIP3   OH254876   6.409   0.833   0.061  0.6233 -0.8346  0.4205
11154TIP3    H154877   6.428   0.927   0.069 -0.8059 -0.3310 -1.7111
11154TIP3    H254878   6.364   0.810   0.142 -1.7867  1.0413 -0.3387
11155TIP3   OH254879   1.440   5.172  14.030  0.2961  0.7982  0.2347
11155TIP3    H154880   1.442   5.112  13.956 -1.7713  0.0566  0.7651
11155TIP3    H254881   1.401   5.252  13.996  2.0673  1.4985 -0.2010
11156TIP3   OH254882   0.982   2.294   5.100  0.1244 -0.5617  0.1780
11156TIP3    H154883   1.033   2.273   5.022 -0.7981  0.6427 -0.7713
11156TIP3    H254884   0.901   2.243   5.090  0.1877 -0.7508  0.5856
11157TIP3   OH254885   2.918   4.356   1.175  0.9209 -0.3990  0.0996
11157TIP3    H154886   2.896   4.350   1.082 -0.8186  0.5671  0.4310
11157TIP3    H254887   2.845   4.314   1.220  1.1271  0.2863  1.0971
11158TIP3   OH254888   0.170   3.913  15.739  0.4520 -0.2097 -0.4879
11158TIP3    H154889   0.116   3.890  15.814 -0.0553  2.6237  0.0930
11158TIP3    H254890   0.111   3.963  15.682  1.5498 -0.0211 -1.4638
11159TIP3   OH254891   1.789   1.418  11.603 -0.2107  0.2679  0.9273
11159TIP3    H154892   1.825   1.454  11.522 -2.5723 -0.9625 -0.7112
11159TIP3    H254893   1.727   1.485  11.633 -0.7134 -0.1156  0.7321
11160TIP3   OH254894   3.535   4.148   1.876  0.2350 -0.0947  0.3727
11160TIP3    H154895   3.533   4.211   1.805 -0.3434 -0.7310 -0.1802
11160TIP3    H254896   3.451   4.157   1.920 -0.1004 -0.8980 -0.0851
11161TIP3   OH254897   0.356   0.893   2.903 -0.1541 -0.3816  0.6285
11161TIP3    H154898   0.425   0.941   2.949  1.2616  2.3036 -3.9304
11161TIP3    H254899   0.394   0.807   2.887  1.8276  0.7004 -0.8319
11162TIP3   OH254900   6.599   2.077   1.911  0.2117  0.7885 -0.1479
11162TIP3    H154901   6.620   2.050   2.001 -0.7387 -0.1814 -0.2096
11162TIP3    H254902   6.684   2.099   1.872  0.9883 -1.8386  0.0003
11163TIP3   OH254903   3.559   6.084   2.438  0.2705  0.7593  0.1087
11163TIP3    H154904   3.629   6.020   2.427 -1.4313 -1.4148  1.4273
11163TIP3    H254905   3.525   6.099   2.350  1.1973  0.4315 -0.3021
11164TIP3   OH254906   4.150   6.052   2.187  0.1511 -0.3328 -0.0751
11164TIP3    H154907   4.126   5.974   2.139 -0.7449 -0.9157  1.2877
11164TIP3    H254908   4.246   6.052   2.188  0.1492 -1.2312 -0.3651
11165TIP3   OH254909   4.203   4.959  12.157 -0.1915 -0.5818 -0.7094
11165TIP3    H154910   4.179   5.020  12.087 -0.2173 -1.3542 -1.3740
11165TIP3    H254911   4.158   4.993  12.234  2.8489  2.5130 -0.1275
11166TIP3   OH254912   3.616   2.613   3.597 -0.1072 -0.1395 -0.2970
11166TIP3    H154913   3.551   2.641   3.534 -0.5878  0.9412  0.6650
11166TIP3    H254914   3.679   2.561   3.546  1.0690  3.0514 -2.2042
11167TIP3   OH254915   3.467   0.808   3.890  0.0438 -0.2635 -0.7061
11167TIP3    H154916   3.541   0.749   3.879  0.4184  0.1597 -0.4392
11167TIP3    H254917   3.498   0.876   3.950 -1.3622 -1.4812  1.4655
11168TIP3   OH254918   0.593   0.320   2.386  0.5494  0.0591  0.5112
11168TIP3    H154919   0.536   0.382   2.430  0.2512  0.2197 -0.0887
11168TIP3    H254920   0.554   0.235   2.402  0.8007  0.0544  1.0974
11169TIP3   OH254921   2.723   4.567  11.124  0.1005  0.5140 -0.1517
11169TIP3    H154922   2.761   4.508  11.059  0.0449  2.3084 -1.8531
11169TIP3    H254923   2.629   4.545  11.124 -0.0109  0.9640 -1.1782
11170TIP3   OH254924   1.767   6.512  12.315 -0.2677  0.2481 -0.2495
11170TIP3    H154925   1.694   6.457  12.345 -1.6788  1.6131 -1.0716
11170TIP3    H254926   1.799   6.468  12.236 -0.2088 -0.3519  0.1086
11171TIP3   OH254927   4.425   4.383  14.542  0.0123 -0.5019 -0.1068
11171TIP3    H154928   4.361   4.312  14.534 -0.8751  0.4750 -1.9136
11171TIP3    H254929   4.452   4.381  14.634 -1.6815 -1.7158  0.3791
11172TIP3   OH254930   2.244   5.644  15.916 -0.8801  0.0286 -0.0545
11172TIP3    H154931   2.195   5.600  15.986  0.1313 -2.5002 -0.8783
11172TIP3    H254932   2.219   5.598  15.836  1.9774 -0.6412 -0.6363
11173TIP3   OH254933   2.574   0.362  15.310  0.2538 -0.2821  0.4446
11173TIP3    H154934   2.488   0.388  15.277 -0.1787 -2.6505 -0.3703
11173TIP3    H254935   2.600   0.288  15.256  1.5051 -1.4696  2.5741
11174TIP3   OH254936   1.512   3.199   1.523  0.0075 -0.0888 -0.2032
11174TIP3    H154937   1.525   3.156   1.607 -2.7084  0.6131  0.6171
11174TIP3    H254938   1.521   3.129   1.458 -0.0290 -1.0508  0.8202
11175TIP3   OH254939   1.008   3.623   2.181 -0.2605 -0.1706  0.2186
11175TIP3    H154940   1.054   3.677   2.246 -0.1522 -0.5740  0.4746
11175TIP3    H254941   1.063   3.546   2.169 -0.5557 -0.3597  0.0550
11176TIP3   OH254942   3.988   2.875  16.584 -0.8387 -0.2406 -0.0901
11176TIP3    H154943   3.949   2.790  16.604 -1.1787  0.3549  1.8807
11176TIP3    H254944   3.918   2.938  16.600 -0.4335  0.4662 -1.0340
11177TIP3   OH254945   5.056   0.688   3.838  0.0391 -0.1496 -0.2925
11177TIP3    H154946   5.073   0.718   3.928  0.9842 -0.2407 -0.4301
11177TIP3    H254947   5.143   0.677   3.800 -0.3404 -0.8293 -0.9885
11178TIP3   OH254948   5.577   0.671  14.945  0.5418 -0.3427  0.1156
11178TIP3    H154949   5.577   0.600  14.880  1.8329  0.1497 -0.4290
11178TIP3    H254950   5.664   0.710  14.937 -0.6039  2.1470 -0.5023
11179TIP3   OH254951   6.212   3.137   5.555  0.1469 -0.6660  0.1006
11179TIP3    H154952   6.159   3.167   5.630 -1.1313  1.1946 -1.4997
11179TIP3    H254953   6.164   3.063   5.520 -0.3874 -0.1825 -0.1884
11180TIP3   OH254954   5.388   5.072  12.932  0.3525 -0.0114 -0.0845
11180TIP3    H154955   5.349   5.136  12.992 -1.1618  0.2970 -1.3584
11180TIP3    H254956   5.338   5.082  12.851  2.0897 -0.7086 -1.2715
11181TIP3   OH254957   6.598   4.134  13.049 -0.4414 -0.5986  0.1304
11181TIP3    H154958   6.642   4.204  13.000  1.0859 -0.8306  1.1272
11181TIP3    H254959   6.626   4.053  13.005 -1.2371 -0.6464 -0.2819
11182TIP3   OH254960   0.846   2.847   5.455 -0.0323  0.0774  0.0733
11182TIP3    H154961   0.838   2.847   5.550 -0.3116  1.0903  0.0509
11182TIP3    H254962   0.915   2.783   5.437 -1.6598 -1.9354  0.7980
11183TIP3   OH254963   3.060   1.987  13.601  0.1515 -0.2364  0.1657
11183TIP3    H154964   3.154   1.991  13.621  0.7838  0.3176 -2.6788
11183TIP3    H254965   3.042   1.894  13.592  1.0061 -0.2583 -1.6254
11184TIP3   OH254966   2.683   4.268   5.335 -0.0130  0.0202  0.1195
11184TIP3    H154967   2.618   4.320   5.289  0.7802  1.5131  0.6667
11184TIP3    H254968   2.639   4.185   5.354 -1.3372  0.5520 -0.6103
11185TIP3   OH254969   3.201   5.191  14.702  0.3751 -0.3077 -0.1581
11185TIP3    H154970   3.232   5.139  14.776 -1.9412  0.9261  1.7061
11185TIP3    H254971   3.170   5.126  14.639  1.1612 -1.3109  0.4645
11186TIP3   OH254972   0.077   2.146  10.779 -0.1371  0.1930  0.1104
11186TIP3    H154973   0.058   2.239  10.771 -1.6757 -0.0078  1.1429
11186TIP3    H254974   0.159   2.142  10.829  0.6938  1.0062 -1.1748
11187TIP3   OH254975   6.133   3.063   3.365  0.1081 -0.2618 -0.4009
11187TIP3    H154976   6.056   3.024   3.325 -0.8018  0.8080  0.2936
11187TIP3    H254977   6.106   3.084   3.454  1.0646  0.5198 -0.2878
11188TIP3   OH254978   1.867   4.123  12.786 -0.2526 -0.4017 -0.1278
11188TIP3    H154979   1.772   4.111  12.795 -0.1552 -0.5539  0.7192
11188TIP3    H254980   1.905   4.063  12.850  0.4388 -0.7582 -0.8631
11189TIP3   OH254981   1.644   5.392  11.269  0.2354 -0.7073 -1.2891
11189TIP3    H154982   1.701   5.365  11.197 -0.3132 -2.0112 -1.2533
11189TIP3    H254983   1.631   5.312  11.320  1.6155  0.4527  0.9738
11190TIP3   OH254984   0.694   4.847  11.898 -0.0421  0.2581  0.1070
11190TIP3    H154985   0.751   4.915  11.863  0.4872 -1.7841 -3.1943
11190TIP3    H254986   0.755   4.780  11.929 -0.6059 -0.1012  0.4339
11191TIP3   OH254987   5.407   1.209  15.709  0.2168 -0.8195  0.2955
11191TIP3    H154988   5.424   1.296  15.671 -2.5602 -0.6012 -0.5679
11191TIP3    H254989   5.350   1.226  15.784 -0.2275 -1.8912  0.2056
11192TIP3   OH254990   0.507   3.030  13.026 -0.0098  0.5627 -0.2382
11192TIP3    H154991   0.514   2.935  13.024 -0.2343  0.5248  0.6504
11192TIP3    H254992   0.426   3.048  13.073 -0.6453  1.1788 -1.5386
11193TIP3   OH254993   0.359   3.880   4.867  0.5280  0.3014 -0.2871
11193TIP3    H154994   0.306   3.910   4.794 -1.1990  1.2238  1.2976
11193TIP3    H254995   0.313   3.912   4.945  2.4110 -0.4913  1.1988
11194TIP3   OH254996   0.241   5.058  14.349 -0.7778 -0.0112 -1.0156
11194TIP3    H154997   0.254   5.129  14.412 -1.8057  2.5579 -3.5494
11194TIP3    H254998   0.163   5.012  14.379 -0.4412  0.2797  0.3336
11195TIP3   OH254999   0.671   5.486   3.702  0.0028 -0.0689 -0.4507
11195TIP3    H155000   0.695   5.403   3.663  2.6987  0.1765  0.5787
11195TIP3    H255001   0.604   5.464   3.767 -1.5210 -0.9846 -2.2657
11196TIP3   OH255002   1.208   0.347   3.041 -0.7059  0.4651  0.2173
11196TIP3    H155003   1.301   0.341   3.064 -0.3572  0.4611 -1.1658
11196TIP3    H255004   1.188   0.265   2.996 -0.7193  1.5265 -1.7693
11197TIP3   OH255005   4.912   1.850   5.192 -0.6046  0.1472  0.2761
11197TIP3    H155006   4.885   1.786   5.126  0.7511  0.0697 -0.2029
11197TIP3    H255007   4.834   1.904   5.206 -1.0813 -0.2146 -0.9425
11198TIP3   OH255008   5.149   6.256   4.814 -0.5204 -0.2178 -0.0194
11198TIP3    H155009   5.210   6.220   4.749 -0.8290 -0.1415 -0.3497
11198TIP3    H255010   5.077   6.292   4.762  0.4746  2.1960  0.2275
11199TIP3   OH255011   2.546   0.763  12.891 -0.1168  0.4017  0.5045
11199TIP3    H155012   2.542   0.804  12.978  0.0324 -1.5106  1.4517
11199TIP3    H255013   2.539   0.669  12.909 -1.8036  0.0593 -1.6855
11200TIP3   OH255014   5.610   1.900   4.762 -0.5995  0.4984  0.7663
11200TIP3    H155015   5.633   1.846   4.687 -0.9100 -0.0002  1.0356
11200TIP3    H255016   5.566   1.977   4.724  1.3787  1.4166  0.2385
11201TIP3   OH255017   2.190   6.593  12.738  0.6366 -0.3007  0.0214
11201TIP3    H155018   2.107   6.629  12.770  0.5756 -0.2656 -0.1698
11201TIP3    H255019   2.166   6.509  12.699  0.6967 -0.3134  0.0112
11202TIP3   OH255020   5.065   4.623  15.978  0.3584  0.2375 -0.2393
11202TIP3    H155021   4.993   4.675  15.943  0.7175  1.3483  0.6626
11202TIP3    H255022   5.124   4.686  16.019  0.5207 -0.9086  1.3704
11203TIP3   OH255023   4.307   3.077   5.657 -0.0539  0.3425 -0.2223
11203TIP3    H155024   4.320   3.052   5.749  0.0706  2.1132  0.2509
11203TIP3    H255025   4.275   3.167   5.661  1.3964  0.9518 -1.9766
11204TIP3   OH255026   4.315   2.982   5.915 -0.2935 -0.2136  0.1093
11204TIP3    H155027   4.405   3.014   5.917 -1.2742  2.6333  0.8103
11204TIP3    H255028   4.283   2.994   6.004 -0.6259 -3.5980  0.5277
11205TIP3   OH255029   2.156   5.567  13.815 -0.2185 -0.1621  0.0436
11205TIP3    H155030   2.180   5.658  13.799  1.3003 -0.7457 -1.1811
11205TIP3    H255031   2.064   5.562  13.790 -0.4092  1.1248  0.4783
11206TIP3   OH255032   3.556   0.600  13.958  0.3621 -0.3227 -0.4096
11206TIP3    H155033   3.644   0.628  13.931  1.0658 -2.0732  0.0376
11206TIP3    H255034   3.533   0.531  13.896 -0.5200 -0.2022 -0.2230
11207TIP3   OH255035   6.020   2.197   0.749  0.3444  0.3895  0.2187
11207TIP3    H155036   6.001   2.161   0.662 -0.2350  0.6746  0.2218
11207TIP3    H255037   6.114   2.216   0.748  0.4989 -0.3892 -0.0549
11208TIP3   OH255038   0.914   5.980   2.511 -0.1257  0.1203  0.3124
11208TIP3    H155039   0.880   5.946   2.594  0.4681 -0.5000  0.3022
11208TIP3    H255040   0.922   6.075   2.526 -2.6686  0.4223  0.0311
11209TIP3   OH255041   4.804   3.059   0.557  0.1550  0.0480  0.8620
11209TIP3    H155042   4.745   3.029   0.626 -0.3784 -1.9515 -0.4273
11209TIP3    H255043   4.761   3.136   0.521 -1.8815 -1.5594 -0.2556
11210TIP3   OH255044   5.205   0.117  12.876  0.0572  0.0095  0.4179
11210TIP3    H155045   5.149   0.113  12.954 -0.3721 -4.7846  0.0311
11210TIP3    H255046   5.294   0.120  12.911 -0.1655 -1.2866  1.1428
11211TIP3   OH255047   5.802   1.574  13.356  0.1642 -0.0736  0.0562
11211TIP3    H155048   5.871   1.534  13.304  0.8306  1.3195 -0.1370
11211TIP3    H255049   5.754   1.630  13.295  0.3429  0.8130  0.7213
11212TIP3   OH255050   1.707   1.190   4.444 -0.1875  0.3296 -0.3349
11212TIP3    H155051   1.791   1.155   4.476 -1.0562 -1.8840 -0.3906
11212TIP3    H255052   1.730   1.235   4.363  0.9644 -0.2429 -0.3444
11213TIP3   OH255053   0.521   3.978  15.239 -0.1834 -0.6327 -0.3931
11213TIP3    H155054   0.548   4.068  15.256 -1.0620 -0.8091  2.1373
11213TIP3    H255055   0.458   3.985  15.168  0.9417  0.5579 -1.3087
11214TIP3   OH255056   4.249   0.698   1.414  0.5932 -0.0412 -0.0405
11214TIP3    H155057   4.166   0.652   1.403  0.6862 -0.1988 -0.0976
11214TIP3    H255058   4.313   0.641   1.371  0.2646  1.6279 -2.8088
11215TIP3   OH255059   2.730   4.140  13.615 -0.0441 -0.4783  0.2621
11215TIP3    H155060   2.700   4.124  13.525 -1.2769  1.0543  0.3828
11215TIP3    H255061   2.751   4.234  13.617 -0.8487 -0.3223  1.8167
11216TIP3   OH255062   3.298   3.535   5.733 -0.1863  0.1026 -0.0696
11216TIP3    H155063   3.363   3.505   5.670  0.8757  1.2558  0.4631
11216TIP3    H255064   3.253   3.607   5.689 -1.4535 -1.0169 -0.6278
11217TIP3   OH255065   4.346   4.210   0.180 -0.5299 -0.3088  0.0055
11217TIP3    H155066   4.406   4.148   0.140  0.0588 -0.3457  0.9392
11217TIP3    H255067   4.259   4.182   0.150 -0.1652 -0.8320 -0.5670
11218TIP3   OH255068   5.259   0.448   0.880 -0.2153 -0.4196 -0.4261
11218TIP3    H155069   5.209   0.401   0.814 -1.5113  1.4695 -0.8363
11218TIP3    H255070   5.193   0.498   0.929  1.0524  0.5988  0.2844
11219TIP3   OH255071   0.124   4.847   4.197 -0.0463 -0.4780  0.0308
11219TIP3    H155072   0.115   4.757   4.164  1.2066 -0.4909 -0.3123
11219TIP3    H255073   0.036   4.870   4.228 -0.4154 -1.7701 -0.0033
11220TIP3   OH255074   6.467   2.299   2.640 -0.0488  0.5127  0.0906
11220TIP3    H155075   6.537   2.234   2.635 -0.3870 -0.0579  2.4937
11220TIP3    H255076   6.416   2.286   2.560  0.6770 -1.2472 -0.1034
11221TIP3   OH255077   1.300   6.312   4.365  0.0100  0.2534  0.7528
11221TIP3    H155078   1.390   6.283   4.350 -0.5103 -0.5257 -1.0509
11221TIP3    H255079   1.279   6.365   4.288 -1.4289 -0.4717  0.6427
11222TIP3   OH255080   0.709   0.487   4.919  0.6578 -0.2213 -0.3690
11222TIP3    H155081   0.740   0.574   4.943 -0.2497 -0.1698  0.6485
11222TIP3    H255082   0.778   0.428   4.949  0.6649  0.0365  0.1232
11223TIP3   OH255083   4.866   3.733   2.204 -0.1823 -0.0870  0.0188
11223TIP3    H155084   4.817   3.806   2.239  0.1585 -0.1757  0.6824
11223TIP3    H255085   4.858   3.664   2.270  1.5355  0.1836  0.5424
11224TIP3   OH255086   4.233   4.824  17.024  0.1479 -0.3730  0.0901
11224TIP3    H155087   4.256   4.792  16.937 -0.2950  0.2466 -0.2480
11224TIP3    H255088   4.183   4.752  17.063 -0.5641 -0.2286 -0.5521
11225TIP3   OH255089   5.483   5.178  13.700  0.0735 -0.0661  0.1663
11225TIP3    H155090   5.578   5.173  13.693  0.2031  2.2489 -0.1831
11225TIP3    H255091   5.467   5.246  13.766 -1.3417 -0.9577  0.7732
11226TIP3   OH255092   4.770   6.091  14.365 -0.5103  0.1877 -0.1069
11226TIP3    H155093   4.789   6.110  14.457  0.0415  0.5217 -0.2931
11226TIP3    H255094   4.674   6.098  14.359 -0.5453  0.1939  0.4327
11227TIP3   OH255095   5.484   5.630  11.170  0.3488 -0.8821 -0.1496
11227TIP3    H155096   5.495   5.685  11.092  0.1876  0.6273  0.8689
11227TIP3    H255097   5.569   5.632  11.213 -0.7347  1.8717  1.9858
11228TIP3   OH255098   6.351   4.939   3.277  0.3906 -0.5150  0.0816
11228TIP3    H155099   6.391   5.021   3.306 -0.2822 -0.1023 -0.1537
11228TIP3    H255100   6.406   4.871   3.316 -0.0023  0.0244  1.6189
11229TIP3   OH255101   3.482   2.809  11.959 -0.3942  0.0740  0.1991
11229TIP3    H155102   3.411   2.867  11.986 -0.1960 -0.6122  2.2703
11229TIP3    H255103   3.439   2.736  11.915 -0.9114  0.1105  0.6428
11230TIP3   OH255104   5.731   2.699  15.088 -0.6337 -0.0075 -0.5900
11230TIP3    H155105   5.800   2.701  15.021  1.0238 -1.0533  1.0533
11230TIP3    H255106   5.733   2.787  15.126  0.5704 -0.3624  0.2034
11231TIP3   OH255107   5.950   0.950  13.054  0.1493  0.1565 -0.1917
11231TIP3    H155108   5.979   1.035  13.021  4.0712 -2.1377 -2.9708
11231TIP3    H255109   6.002   0.936  13.133 -0.0911  0.0829 -0.0453
11232TIP3   OH255110   6.391   1.074  16.235 -0.3055  0.2821 -0.5942
11232TIP3    H155111   6.452   1.132  16.189 -0.8518  1.4947  0.1769
11232TIP3    H255112   6.401   1.098  16.327 -1.6791  0.2231 -0.4274
11233TIP3   OH255113   0.953   1.892  17.110 -0.5096 -0.3052  0.1450
11233TIP3    H155114   0.994   1.914  17.027  1.0728  0.1125  1.0220
11233TIP3    H255115   0.951   1.974  17.159 -1.8651 -0.4415  0.3571
11234TIP3   OH255116   5.446   4.009  13.689 -0.4483 -0.6799 -0.2330
11234TIP3    H155117   5.377   3.973  13.634 -0.9548  1.3128 -0.9482
11234TIP3    H255118   5.407   4.087  13.729  0.9969 -0.2014  0.2785
11235TIP3   OH255119   3.647   6.363   5.079  0.3780 -0.1665  0.2215
11235TIP3    H155120   3.574   6.424   5.069 -0.0562 -0.5123  1.1557
11235TIP3    H255121   3.614   6.281   5.041  0.4195 -0.2205  0.3024
11236TIP3   OH255122   0.520   3.502   0.812  0.2903 -0.1525  0.2973
11236TIP3    H155123   0.601   3.538   0.849  0.4700 -0.5939  0.3295
11236TIP3    H255124   0.530   3.514   0.718 -0.0843  0.7961  0.3702
11237TIP3   OH255125   5.714   3.242   5.531  0.8139  0.1826  0.0755
11237TIP3    H155126   5.681   3.321   5.487  1.5136  0.0288 -0.7438
11237TIP3    H255127   5.753   3.275   5.612  3.4952  1.0294 -1.4984
11238TIP3   OH255128   1.970   5.057   5.741 -0.3003 -0.2383 -0.0566
11238TIP3    H155129   2.056   5.016   5.739 -0.5764 -0.9044  1.0754
11238TIP3    H255130   1.953   5.083   5.651  1.1758  0.0987 -0.2398
11239TIP3   OH255131   2.616   5.365   0.506  0.4555  0.1718 -0.2506
11239TIP3    H155132   2.544   5.321   0.459  0.7677 -3.3481  2.3420
11239TIP3    H255133   2.576   5.398   0.586  1.0661  1.2260 -0.3757
11240TIP3   OH255134   4.381   6.244  12.047  0.1365  0.1713 -0.0809
11240TIP3    H155135   4.454   6.200  12.090 -0.4276  0.9903  1.7571
11240TIP3    H255136   4.326   6.172  12.015 -0.4762 -0.5244  2.3842
11241TIP3   OH255137   6.136   3.997  16.237 -0.0773  0.0564 -0.3667
11241TIP3    H155138   6.064   4.024  16.293 -1.4275 -1.7434 -1.2021
11241TIP3    H255139   6.205   4.062  16.254 -1.2740  0.8406  1.6599
11242TIP3   OH255140   1.364   6.666  14.048 -0.6133 -0.1144 -0.5043
11242TIP3    H155141   1.364   6.602  14.119  0.7187 -2.1790 -2.2804
11242TIP3    H255142   1.362   6.613  13.968 -0.3227  2.0790 -2.0270
11243TIP3   OH255143   4.913   4.322   0.482 -0.2651 -0.0515 -0.5686
11243TIP3    H155144   4.940   4.307   0.573  0.5446 -1.6483 -1.0433
11243TIP3    H255145   4.936   4.413   0.464  1.4027 -0.3076  0.2116
11244TIP3   OH255146   2.517   3.445   2.950 -0.3826 -0.2531 -0.2398
11244TIP3    H155147   2.592   3.435   3.009  0.3626  0.0023 -1.1305
11244TIP3    H255148   2.449   3.389   2.987  0.2867 -0.5756  0.5111
11245TIP3   OH255149   5.951   4.510   1.536  1.1205  0.0189  0.4083
11245TIP3    H155150   6.000   4.587   1.507 -1.1266  2.0729  1.9717
11245TIP3    H255151   5.986   4.490   1.623 -1.0533  1.7701  1.7268
11246TIP3   OH255152   4.202   6.630   0.960  0.0521  0.0129  0.1605
11246TIP3    H155153   4.270   6.574   0.997 -1.8992 -1.6043  1.3942
11246TIP3    H255154   4.128   6.621   1.020 -0.6871  3.1023 -0.1984
11247TIP3   OH255155   2.704   0.593   2.474  0.2105 -1.8180 -0.0615
11247TIP3    H155156   2.638   0.546   2.424 -0.0891 -1.3742 -0.0813
11247TIP3    H255157   2.694   0.560   2.564  0.8076 -2.6792 -0.3011
11248TIP3   OH255158   4.927   6.047   3.843 -0.5357  0.2498 -0.3084
11248TIP3    H155159   4.932   5.984   3.914  1.8298 -0.7595 -1.3113
11248TIP3    H255160   4.926   5.993   3.763 -0.5839  1.4327 -1.1212
11249TIP3   OH255161   3.289   5.877   3.319  0.6357  0.3421  0.5265
11249TIP3    H155162   3.343   5.847   3.247 -0.5282  0.4554 -0.4179
11249TIP3    H255163   3.330   5.840   3.397  2.0615  0.4416 -0.1593
11250TIP3   OH255164   6.061   2.153   4.663  0.4338 -0.8547  0.0814
11250TIP3    H155165   6.023   2.079   4.711 -0.9031 -0.0654  0.2675
11250TIP3    H255166   5.986   2.200   4.627  1.2020  0.9733  0.7867
11251TIP3   OH255167   4.122   2.167  10.674  0.4437 -0.5348  0.5790
11251TIP3    H155168   4.048   2.228  10.669  0.5820 -0.4122 -0.0353
11251TIP3    H255169   4.198   2.224  10.687  0.7780 -0.4454 -1.6537
11252TIP3   OH255170   2.563   2.469   3.708 -0.2294 -0.0149 -0.0850
11252TIP3    H155171   2.609   2.392   3.676  0.8626  1.4548 -2.2004
11252TIP3    H255172   2.626   2.512   3.767 -0.2679  0.0724 -0.1065
11253TIP3   OH255173   2.686   5.172  15.756 -0.4693 -0.1898  0.6264
11253TIP3    H155174   2.683   5.239  15.688 -2.8824  0.0272  0.8878
11253TIP3    H255175   2.724   5.096  15.714 -2.3081 -0.1848 -1.1224
11254TIP3   OH255176   0.707   3.213  11.370  0.6597 -0.0651 -0.0291
11254TIP3    H155177   0.700   3.303  11.338 -0.6693 -0.1349  0.0495
11254TIP3    H255178   0.622   3.174  11.350  0.1192 -0.3787  2.7444
11255TIP3   OH255179   6.647   4.182   1.188  1.0311 -0.0708  0.7385
11255TIP3    H155180   6.714   4.123   1.222  0.2560 -0.4260  1.6628
11255TIP3    H255181   6.584   4.191   1.259  0.0896  0.2497 -0.1234
11256TIP3   OH255182   2.368   4.394   3.433  0.3025  0.2349 -0.1398
11256TIP3    H155183   2.343   4.388   3.341 -0.8232  1.3432  0.0771
11256TIP3    H255184   2.426   4.471   3.437  1.6822 -0.7893 -0.1962
11257TIP3   OH255185   4.857   2.282   0.644 -0.2043  0.4883  0.5948
11257TIP3    H155186   4.767   2.305   0.667  0.4442  0.7155  2.9817
11257TIP3    H255187   4.897   2.365   0.619 -0.6108  0.3975 -0.4027
11258TIP3   OH255188   4.264   0.180  16.877  0.0919  0.1116 -0.0611
11258TIP3    H155189   4.355   0.171  16.905 -0.3763  1.3518  1.9200
11258TIP3    H255190   4.239   0.091  16.851  2.0725 -0.1148 -1.3714
11259TIP3   OH255191   4.594   1.707  13.132 -0.0569  1.0915 -0.5769
11259TIP3    H155192   4.561   1.782  13.181  3.9886  3.2488 -0.9886
11259TIP3    H255193   4.679   1.688  13.171 -0.3400 -2.3644 -1.4946
11260TIP3   OH255194   4.571   3.975   5.875  0.1064  0.4260  0.3569
11260TIP3    H155195   4.532   4.042   5.819 -0.0526 -0.7108 -0.9242
11260TIP3    H255196   4.498   3.917   5.897  0.4797 -0.0190  0.4333
11261TIP3   OH255197   5.816   1.960  14.515  0.0328 -0.2055  0.1661
11261TIP3    H155198   5.776   1.998  14.593  0.6650 -1.8439  1.3224
11261TIP3    H255199   5.791   2.018  14.444 -1.0727  0.9717  1.4991
11262TIP3   OH255200   3.393   2.358  11.171  0.2231  0.2983  0.6465
11262TIP3    H155201   3.394   2.373  11.077  0.0646  2.8895  1.0222
11262TIP3    H255202   3.483   2.334  11.193 -0.2015 -2.5189 -0.4389
11263TIP3   OH255203   5.044   2.036   0.115 -0.4167  0.2990  0.0848
11263TIP3    H155204   4.978   2.061   0.051  0.0631  1.7376  0.1330
11263TIP3    H255205   5.007   1.961   0.161 -1.7516  0.7289 -0.2879
11264TIP3   OH255206   2.383   0.390  12.808 -0.3181  0.0547 -0.3338
11264TIP3    H155207   2.393   0.314  12.866 -0.5657 -1.3144 -2.0472
11264TIP3    H255208   2.296   0.424  12.828 -0.4839 -0.5293 -0.0568
11265TIP3   OH255209   0.895   5.530  11.414  0.1920 -0.7894 -0.3021
11265TIP3    H155210   0.875   5.535  11.508  1.0005 -0.8387 -0.1211
11265TIP3    H255211   0.823   5.480  11.377 -0.0911 -0.8434  0.3100
11266TIP3   OH255212   2.492   6.412   4.908 -0.1208 -0.1457 -0.0068
11266TIP3    H155213   2.408   6.451   4.885  0.0149  0.7565  1.0287
11266TIP3    H255214   2.507   6.346   4.840 -0.8171  0.9131 -1.1953
11267TIP3   OH255215   6.657   4.927  10.495 -0.2560  0.1763  0.1392
11267TIP3    H155216   6.732   4.889  10.540  0.0794  0.9973  0.2681
11267TIP3    H255217   6.693   4.997  10.441 -1.0148  1.0133  0.7092
11268TIP3   OH255218   2.698   0.546   0.397 -0.0969  0.3704 -0.4564
11268TIP3    H155219   2.773   0.488   0.387 -0.3553 -0.3213  1.4236
11268TIP3    H255220   2.652   0.541   0.314  1.6987  0.4557 -1.4681
11269TIP3   OH255221   4.070   6.153   3.444  0.0917 -0.1403 -0.5053
11269TIP3    H155222   4.146   6.197   3.407  0.4378  0.2985  0.6791
11269TIP3    H255223   4.018   6.126   3.369  1.9931 -1.4946 -1.3510
11270TIP3   OH255224   5.187   5.031  14.201 -0.0136 -0.0163 -0.0505
11270TIP3    H155225   5.142   4.965  14.147  0.3897  0.5205 -1.0639
11270TIP3    H255226   5.276   4.997  14.211  0.0801  0.1760 -0.2295
11271TIP3   OH255227   0.099   4.942   5.697 -0.3048  0.0096 -0.8730
11271TIP3    H155228   0.027   4.905   5.747 -0.2539 -1.0639 -1.5849
11271TIP3    H255229   0.071   4.934   5.605  0.7134 -0.3925 -1.1532
11272TIP3   OH255230   3.387   0.839   4.486 -0.1881 -0.1915  0.0034
11272TIP3    H155231   3.408   0.809   4.575 -1.3728  0.8207  0.6545
11272TIP3    H255232   3.333   0.769   4.449 -0.7079 -0.0801  0.5346
11273TIP3   OH255233   4.202   2.483   2.058 -0.5586  0.8824 -0.4273
11273TIP3    H155234   4.179   2.409   2.003 -0.1195 -0.7083  1.4777
11273TIP3    H255235   4.281   2.520   2.018 -0.6551  0.1844 -1.2534
11274TIP3   OH255236   0.735   5.976  15.653  0.3671  0.0356 -0.0354
11274TIP3    H155237   0.786   5.913  15.704 -2.0176 -0.0611  2.3600
11274TIP3    H255238   0.652   5.932  15.637 -0.2428  1.4656 -0.9135
11275TIP3   OH255239   2.190   2.311  12.796  0.3460 -0.2602  0.1807
11275TIP3    H155240   2.234   2.249  12.738  1.2126  0.6567 -0.1714
11275TIP3    H255241   2.255   2.331  12.863  0.6835  1.5146 -0.6417
11276TIP3   OH255242   5.737   5.235  15.279  0.5658  0.2307  0.2404
11276TIP3    H155243   5.702   5.233  15.190 -0.4483  0.3799  0.6301
11276TIP3    H255244   5.664   5.209  15.335  1.5326 -1.0447  0.9371
11277TIP3   OH255245   3.905   0.700   0.862  0.3546 -0.2787 -0.0575
11277TIP3    H155246   3.917   0.791   0.889 -0.6598 -0.2003  0.1356
11277TIP3    H255247   3.974   0.651   0.907 -0.8610 -0.0437  2.0857
11278TIP3   OH255248   5.739   6.612  14.302  0.1195  0.1826  0.3180
11278TIP3    H155249   5.752   6.557  14.225 -0.5515  0.8158 -0.2599
11278TIP3    H255250   5.666   6.572  14.349 -0.4564  0.6421 -0.1722
11279TIP3   OH255251   0.031   1.377   4.769 -0.5973  0.5352  0.4910
11279TIP3    H155252   0.048   1.456   4.820 -2.0629  0.7824  0.6227
11279TIP3    H255253  -0.044   1.336   4.812  0.4683 -1.2109  0.7344
11280TIP3   OH255254   2.242   1.760   0.207 -0.3670  0.0206 -0.4151
11280TIP3    H155255   2.192   1.807   0.273 -0.2073  0.7739 -0.8241
11280TIP3    H255256   2.183   1.690   0.178 -0.4893 -0.2271  0.4142
11281TIP3   OH255257   3.244   4.039   0.050  0.0684  0.3584 -0.0420
11281TIP3    H155258   3.212   3.993   0.127 -1.4038  1.0709 -0.2228
11281TIP3    H255259   3.251   3.971  -0.017  2.2339 -0.4486  0.9313
11282TIP3   OH255260   3.132   4.308   7.065  0.2356  0.7639  0.1821
11282TIP3    H155261   3.176   4.318   6.981 -0.3601  0.0272 -0.2218
11282TIP3    H255262   3.156   4.220   7.094  1.5614  1.5191  1.4454
11283TIP3   OH255263   3.125   6.486  16.817 -0.7005  0.4547  0.1162
11283TIP3    H155264   3.106   6.453  16.729  0.0602 -0.4547  0.2909
11283TIP3    H255265   3.214   6.520  16.811 -2.1781  4.4485 -0.6248
11284TIP3   OH255266   6.652   6.048   1.770 -0.0880 -0.2308 -0.9385
11284TIP3    H155267   6.563   6.025   1.742 -0.7001  1.0964 -0.1230
11284TIP3    H255268   6.676   6.123   1.716  0.7422 -0.8951 -1.5062
11285TIP3   OH255269   5.446   0.362   0.614  0.1013  0.1822  0.1330
11285TIP3    H155270   5.393   0.296   0.569  0.5187  0.4618 -0.7651
11285TIP3    H255271   5.536   0.337   0.596  0.2671  0.3271  0.7668
11286TIP3   OH255272   6.431   1.101  12.578 -0.1426 -0.5508  0.1810
11286TIP3    H155273   6.384   1.120  12.496 -0.4458  1.2964  0.7677
11286TIP3    H255274   6.362   1.090  12.643  0.1765  1.4225  0.8890
11287TIP3   OH255275   2.504   6.473   4.516  0.1409  0.2394  0.0868
11287TIP3    H155276   2.482   6.527   4.439 -2.0720 -0.2139  0.3664
11287TIP3    H255277   2.531   6.389   4.479  2.4923  1.1383 -0.3074
11288TIP3   OH255278   1.854   4.271  11.491 -0.0308 -0.0306 -0.6746
11288TIP3    H155279   1.834   4.349  11.439 -0.7502  0.2270 -0.0260
11288TIP3    H255280   1.877   4.305  11.577 -0.6926 -0.5593 -0.2916
11289TIP3   OH255281   1.100   6.650   1.744 -0.7271  0.2823 -0.3824
11289TIP3    H155282   1.126   6.647   1.836 -0.2041  1.4606 -0.4897
11289TIP3    H255283   1.017   6.698   1.743 -1.8099 -1.5404 -0.3006
11290TIP3   OH255284   0.886   3.733  10.540  0.1758  0.2076  0.1754
11290TIP3    H155285   0.833   3.810  10.561  0.1321  0.2451 -0.0716
11290TIP3    H255286   0.912   3.746  10.449  0.6001  0.1865  0.2933
11291TIP3   OH255287   1.896   2.584   1.119  0.1475 -0.3042 -0.1097
11291TIP3    H155288   1.969   2.538   1.076  0.0759  0.2962 -0.8712
11291TIP3    H255289   1.822   2.572   1.060 -0.5260 -1.3732  0.9219
11292TIP3   OH255290   4.992   6.372  12.993  0.4714  0.0454  0.1789
11292TIP3    H155291   5.003   6.464  13.019 -0.4806 -0.0336  0.9024
11292TIP3    H255292   5.063   6.356  12.931  0.6041  1.2944 -0.0137
11293TIP3   OH255293   3.114   0.706   4.985  0.0802  0.0286  0.1561
11293TIP3    H155294   3.065   0.686   5.065  0.0849  0.3710  0.2441
11293TIP3    H255295   3.052   0.755   4.931 -0.4022 -1.4527 -0.6607
11294TIP3   OH255296   6.619   0.099  16.009 -0.4128 -0.2079  0.0155
11294TIP3    H155297   6.608   0.051  16.091 -2.3387  0.6347  0.2721
11294TIP3    H255298   6.677   0.044  15.957 -0.7604 -1.7092  1.1775
11295TIP3   OH255299   0.112   5.113  12.385 -0.4423  0.0533 -0.6013
11295TIP3    H155300   0.198   5.153  12.368  0.1234 -0.8894 -0.0386
11295TIP3    H255301   0.066   5.118  12.301  0.1017  0.7107 -0.8680
11296TIP3   OH255302   2.420   4.808  11.119 -0.5537  0.6817 -0.2344
11296TIP3    H155303   2.326   4.817  11.133 -0.4509  0.5651  0.5174
11296TIP3    H255304   2.438   4.715  11.135 -0.2548  0.7727 -0.0400
11297TIP3   OH255305   1.003   6.298  11.839  0.1703  0.6762  0.1281
11297TIP3    H155306   1.082   6.315  11.891  0.2433  0.4487  0.0923
11297TIP3    H255307   0.944   6.370  11.862  0.5308  1.0549 -0.1342
11298TIP3   OH255308   6.099   5.713   3.191 -0.0746 -0.1017 -0.1114
11298TIP3    H155309   6.084   5.763   3.272 -0.0833 -0.7341  0.2773
11298TIP3    H255310   6.194   5.702   3.187 -0.0504  0.1748 -0.3391
11299TIP3   OH255311   0.440   3.933   6.041  0.2059 -0.0401 -0.6126
11299TIP3    H155312   0.535   3.930   6.033  0.2215  0.4175 -0.6369
11299TIP3    H255313   0.417   4.024   6.022 -0.0178  0.4405  1.7077
11300TIP3   OH255314   2.694   1.634   2.562 -0.2875 -0.0339 -0.2013
11300TIP3    H155315   2.697   1.588   2.478  0.0445 -0.3970  0.0116
11300TIP3    H255316   2.785   1.659   2.579 -0.2315 -0.6583  0.4376
11301TIP3   OH255317   3.351   2.013  15.478 -0.1498 -0.1228 -0.1561
11301TIP3    H155318   3.328   1.947  15.413 -1.3254  0.6614 -0.5471
11301TIP3    H255319   3.439   1.988  15.507  0.6531 -0.1624 -2.4848
11302TIP3   OH255320   1.928   0.830  15.858  0.0701  0.0331 -0.1885
11302TIP3    H155321   1.927   0.737  15.838 -1.3898  0.2158 -1.0198
11302TIP3    H255322   1.994   0.839  15.927 -0.1512 -1.6810  0.2724
11303TIP3   OH255323   6.102   2.495  11.754  0.3106  0.3658  0.2193
11303TIP3    H155324   6.168   2.564  11.762 -0.3242  1.4065 -2.7468
11303TIP3    H255325   6.038   2.516  11.823  1.2241  1.4576  0.7621
11304TIP3   OH255326   5.148   1.741   4.979 -0.4684  0.3370  0.1161
11304TIP3    H155327   5.054   1.738   4.964 -0.7967  0.2885  2.0216
11304TIP3    H255328   5.159   1.706   5.068  1.2836  0.8730  0.1320
11305TIP3   OH255329   6.647   3.479   1.092  0.7423 -0.0839  0.1365
11305TIP3    H155330   6.621   3.503   1.003  1.1015 -1.2856 -0.2924
11305TIP3    H255331   6.564   3.473   1.140  0.3746 -1.7724 -0.6961
11306TIP3   OH255332   4.787   1.326   3.629  0.1758 -0.2444  0.2545
11306TIP3    H155333   4.718   1.341   3.564 -1.1229  0.1092  1.6679
11306TIP3    H255334   4.829   1.411   3.639 -0.2058 -0.0797  0.5008
11307TIP3   OH255335   5.725   6.195  14.471 -0.3297  0.0412  0.4939
11307TIP3    H155336   5.723   6.287  14.495 -1.2715  0.1794 -0.0906
11307TIP3    H255337   5.646   6.158  14.511  0.6631 -0.7862  1.7509
11308TIP3   OH255338   0.869   0.814   4.449  0.0433 -0.4785 -0.1826
11308TIP3    H155339   0.868   0.728   4.409  0.1325 -0.7438  0.3784
11308TIP3    H255340   0.777   0.838   4.459 -0.0135 -1.2036  1.1294
11309TIP3   OH255341   6.569   3.589  11.401 -0.1168  0.1468  0.2104
11309TIP3    H155342   6.580   3.625  11.313  0.0767  1.3652  0.7142
11309TIP3    H255343   6.481   3.551  11.401  0.7427 -1.9388 -1.2090
11310TIP3   OH255344   1.814   3.162  11.976 -0.4471  0.2084  0.0662
11310TIP3    H155345   1.719   3.158  11.967 -0.2292 -0.5166 -2.1795
11310TIP3    H255346   1.844   3.073  11.955  0.7013  0.3484  1.0645
11311TIP3   OH255347   2.946   3.020   3.174 -0.0223  0.0290 -0.1038
11311TIP3    H155348   2.927   3.017   3.268  0.0504  1.3621 -0.0452
11311TIP3    H255349   2.888   3.088   3.140 -0.2130 -0.6133 -1.0672
11312TIP3   OH255350   0.814   0.732  10.555 -0.6783 -0.1783 -0.3317
11312TIP3    H155351   0.855   0.815  10.581  0.2660 -0.7074 -0.0789
11312TIP3    H255352   0.872   0.665  10.591 -1.3123 -0.9476 -0.7287
11313TIP3   OH255353   3.908   3.873   0.395 -0.0041 -0.5796 -0.5253
11313TIP3    H155354   3.952   3.805   0.447 -0.0074  0.3614  0.7179
11313TIP3    H255355   3.817   3.871   0.425  0.2230  0.6884  0.2784
11314TIP3   OH255356   5.371   5.683  13.753 -0.2368 -0.1662 -0.0921
11314TIP3    H155357   5.396   5.715  13.840 -0.9638  2.7897 -0.9144
11314TIP3    H255358   5.452   5.645  13.718  0.6326  0.5965  1.0241
11315TIP3   OH255359   3.490   0.415  13.763  0.5826 -0.1219  0.6746
11315TIP3    H155360   3.553   0.344  13.771  0.0043 -0.5072  2.0302
11315TIP3    H255361   3.435   0.391  13.688  2.6274  0.6978 -1.1309
11316TIP3   OH255362   0.531   3.283   3.673  0.5977  0.5434 -0.3615
11316TIP3    H155363   0.548   3.360   3.619  1.6038 -1.3797 -2.8325
11316TIP3    H255364   0.618   3.251   3.697  0.1810  0.1758  0.6839
11317TIP3   OH255365   5.617   1.696  16.790 -0.0472 -0.4302 -0.0468
11317TIP3    H155366   5.571   1.613  16.776 -0.2556 -0.6481  1.7916
11317TIP3    H255367   5.710   1.674  16.785 -0.1060 -0.7680  0.3138
11318TIP3   OH255368   5.583   1.120   4.582  0.4326 -0.1166  0.1854
11318TIP3    H155369   5.571   1.049   4.646 -1.1997  0.5392  0.6253
11318TIP3    H255370   5.579   1.076   4.497  1.0310 -0.7822  0.5020
11319TIP3   OH255371   1.686   2.823   1.819  0.2005 -0.0732 -0.0352
11319TIP3    H155372   1.743   2.752   1.850  0.3882  0.3170  0.5217
11319TIP3    H255373   1.746   2.888   1.782  0.0402 -0.1418 -0.4102
11320TIP3   OH255374   3.225   1.559   5.416  0.2023 -0.0326  0.5138
11320TIP3    H155375   3.150   1.573   5.475  0.2432 -0.5124  0.6882
11320TIP3    H255376   3.271   1.643   5.415 -1.3295  0.8229 -1.0111
11321TIP3   OH255377   5.568   1.924   2.299 -0.3990 -0.5685 -0.2110
11321TIP3    H155378   5.525   1.848   2.338 -1.0080  0.1400  0.5073
11321TIP3    H255379   5.496   1.982   2.273  0.0896  0.3258  0.3923
11322TIP3   OH255380   3.639   0.826   2.765  0.2671 -0.1084  0.2334
11322TIP3    H155381   3.686   0.898   2.805  0.5879 -1.8497  3.1060
11322TIP3    H255382   3.555   0.864   2.738  0.0284  1.1052  2.5988
11323TIP3   OH255383   6.476   0.782   4.515  0.3755 -0.4376 -0.0683
11323TIP3    H155384   6.399   0.726   4.527  0.4932 -1.0774 -2.0794
11323TIP3    H255385   6.492   0.819   4.602 -0.6350 -2.3102  0.9616
11324TIP3   OH255386   0.156   4.638   5.740  0.2847 -0.1385  0.3320
11324TIP3    H155387   0.236   4.589   5.760  0.9383  0.5765 -0.5347
11324TIP3    H255388   0.179   4.730   5.755  0.1798  0.2333 -1.6943
11325TIP3   OH255389   2.781   2.028  10.923  0.1386 -0.4408  0.2499
11325TIP3    H155390   2.724   2.065  10.856  0.2833  0.5929  0.6969
11325TIP3    H255391   2.869   2.035  10.886  0.3169  1.0040  0.9462
11326TIP3   OH255392   5.421   2.341   6.410 -0.9069 -0.5005 -0.1213
11326TIP3    H155393   5.453   2.431   6.416  1.3064 -1.2571 -0.1816
11326TIP3    H255394   5.367   2.340   6.331  1.0690  0.1867 -1.5234
11327TIP3   OH255395   2.767   5.600   4.936  0.2060 -0.4197 -0.2189
11327TIP3    H155396   2.697   5.573   4.996 -0.0756  1.3839  0.3185
11327TIP3    H255397   2.726   5.667   4.881  1.5315  0.7960  0.2205
11328TIP3   OH255398   6.439   4.858   0.744 -0.4203  0.4075  0.4150
11328TIP3    H155399   6.428   4.931   0.684 -0.0781  0.3446  0.2774
11328TIP3    H255400   6.367   4.799   0.723  0.5081 -0.2768 -0.8838
11329TIP3   OH255401   4.105   2.481  12.464  0.3590 -0.3140  0.4688
11329TIP3    H155402   4.071   2.394  12.482  0.5663 -0.7349 -1.1806
11329TIP3    H255403   4.029   2.531  12.435  0.2836  0.0085  1.1979
11330TIP3   OH255404   5.852   4.091  13.028 -0.5457  0.2334 -0.6067
11330TIP3    H155405   5.931   4.142  13.012 -0.7983  0.7438 -0.2405
11330TIP3    H255406   5.876   4.031  13.099  0.0397 -0.8253 -1.6809
11331TIP3   OH255407   2.867   6.022  15.544 -0.2388  0.3119 -0.5476
11331TIP3    H155408   2.913   5.952  15.497  0.3500  1.2442 -1.3754
11331TIP3    H255409   2.880   6.001  15.637  2.2046  0.7433 -0.7479
11332TIP3   OH255410   0.455   2.799   5.202 -0.0124 -0.5178 -0.3730
11332TIP3    H155411   0.526   2.858   5.228 -0.6213  0.0283  0.0625
11332TIP3    H255412   0.484   2.761   5.119  1.5008 -1.5119  0.5850
11333TIP3   OH255413   2.366   4.626  12.797  0.4504  0.1878  0.6068
11333TIP3    H155414   2.400   4.707  12.758 -0.7634 -0.2371 -1.3835
11333TIP3    H255415   2.272   4.640  12.804  0.0260 -1.5061 -1.0067
11334TIP3   OH255416   3.488   5.880   0.709  0.3863  0.2793 -0.3609
11334TIP3    H155417   3.428   5.830   0.653  0.1804  0.4528 -0.2955
11334TIP3    H255418   3.509   5.821   0.781 -0.7595  0.6909  0.3190
11335TIP3   OH255419   1.874   5.425   5.171 -0.0012  0.1824  0.0372
11335TIP3    H155420   1.797   5.384   5.131 -0.1513  0.3332  0.1719
11335TIP3    H255421   1.851   5.434   5.263 -0.2950  1.3426 -0.1448
11336TIP3   OH255422   6.364   4.792   4.850 -0.5616  0.5092 -0.4653
11336TIP3    H155423   6.279   4.831   4.871 -0.5144  0.4139 -0.0914
11336TIP3    H255424   6.342   4.707   4.811 -0.6473  0.5876 -0.5850
11337TIP3   OH255425   6.117   1.924   5.808 -0.2653  0.5257  0.4641
11337TIP3    H155426   6.172   1.915   5.886  0.8293  0.7823 -0.2665
11337TIP3    H255427   6.033   1.888   5.834  0.1936  0.2887  1.6602
11338TIP3   OH255428   4.905   3.588   3.728  0.1444  0.1991  0.2437
11338TIP3    H155429   4.892   3.595   3.822  1.0425 -0.0533  0.3891
11338TIP3    H255430   4.826   3.627   3.690 -0.5216 -0.2969  1.1005
11339TIP3   OH255431   3.887   2.077  15.949  0.3767  0.1900  0.0940
11339TIP3    H155432   3.847   2.061  15.864 -0.5494  0.2876  0.5018
11339TIP3    H255433   3.958   2.138  15.932  0.1391  0.2713 -0.5946
11340TIP3   OH255434   3.084   1.043   3.241  0.1605  0.3369  0.2744
11340TIP3    H155435   2.997   1.011   3.264  0.7200 -2.1089 -0.8515
11340TIP3    H255436   3.072   1.084   3.155 -0.2140  1.6364  0.9341
11341TIP3   OH255437   2.963   4.652   6.201  0.1605  0.3964 -0.1902
11341TIP3    H155438   2.883   4.644   6.253  0.3365  0.2680  0.0603
11341TIP3    H255439   2.983   4.746   6.203  0.7096  0.2636  0.7909
11342TIP3   OH255440   1.435   3.200   3.499  0.1581  0.3504 -0.0040
11342TIP3    H155441   1.420   3.258   3.424 -2.2939 -0.2480 -0.0064
11342TIP3    H255442   1.471   3.257   3.567 -1.1441  1.6488 -0.3902
11343TIP3   OH255443   1.350   6.465  11.550 -0.1528 -0.3007  0.1609
11343TIP3    H155444   1.330   6.372  11.565 -0.7084 -0.0047  1.3078
11343TIP3    H255445   1.415   6.464  11.480 -1.8427 -1.4711 -1.4901
11344TIP3   OH255446   1.175   6.516  12.580  0.0535 -0.2554 -0.0664
11344TIP3    H155447   1.181   6.449  12.512  2.0470  0.2001 -0.3718
11344TIP3    H255448   1.266   6.544  12.594 -0.7682  2.5819 -0.1560
11345TIP3   OH255449   4.144   6.163   5.652 -0.1029  0.4277 -0.3558
11345TIP3    H155450   4.056   6.135   5.675  0.8840 -1.4719  1.3274
11345TIP3    H255451   4.159   6.243   5.702 -0.7885  0.6274 -0.4745
11346TIP3   OH255452   1.476   6.486  11.285 -0.2026 -0.0506 -0.5311
11346TIP3    H155453   1.388   6.503  11.252 -0.3734  0.6895  0.2579
11346TIP3    H255454   1.492   6.394  11.265 -0.8949 -0.0134 -1.2785
11347TIP3   OH255455   4.980   2.889   0.428 -0.2989  0.2904 -0.4790
11347TIP3    H155456   5.058   2.936   0.397  0.2077  0.3041  0.7550
11347TIP3    H255457   4.936   2.952   0.486 -1.7715  0.6349 -1.9422
11348TIP3   OH255458   0.915   0.126   0.873 -0.6619  0.6952  0.0557
11348TIP3    H155459   0.949   0.192   0.934 -0.9668  0.4528  0.4890
11348TIP3    H255460   0.854   0.174   0.817 -2.0698  0.4867  1.3619
11349TIP3   OH255461   0.735   6.502  14.780 -0.0886  0.2589 -0.0100
11349TIP3    H155462   0.647   6.523  14.812  0.0313  0.7671 -0.0130
11349TIP3    H255463   0.771   6.585  14.751  0.1312 -0.0624 -0.6676
11350TIP3   OH255464   6.293   2.199   2.429 -0.4746  1.1316  0.4015
11350TIP3    H155465   6.271   2.157   2.511  0.6081 -0.7120 -0.2227
11350TIP3    H255466   6.358   2.142   2.389 -0.5677  2.2826 -1.4808
11351TIP3   OH255467   1.418   1.518   1.566 -0.0068 -0.0709  0.3535
11351TIP3    H155468   1.410   1.466   1.646 -1.4966  0.1772  0.3691
11351TIP3    H255469   1.376   1.465   1.498  4.0060 -1.7525 -0.9957
11352TIP3   OH255470   2.511   4.765  12.105  0.5036 -0.0182 -0.3252
11352TIP3    H155471   2.520   4.682  12.152  0.6722  0.6142  0.7710
11352TIP3    H255472   2.419   4.769  12.081  0.8395 -1.3495 -1.9381
11353TIP3   OH255473   3.807   6.609   5.181 -0.1292  0.0426 -0.6517
11353TIP3    H155474   3.781   6.578   5.268 -1.6261 -0.9091 -1.4098
11353TIP3    H255475   3.889   6.655   5.196 -0.0037 -0.7064  1.1640
11354TIP3   OH255476   3.668   1.308  15.144  0.2903 -0.4553  0.4966
11354TIP3    H155477   3.671   1.213  15.156 -1.3008 -0.4608  0.9828
11354TIP3    H255478   3.585   1.323  15.099  1.1461  0.5940 -0.7586
11355TIP3   OH255479   0.687   2.349   2.084  0.0095  0.3252 -0.1453
11355TIP3    H155480   0.602   2.393   2.091 -0.4049 -0.4741 -0.0875
11355TIP3    H255481   0.738   2.383   2.158 -0.3015  0.7252 -0.1153
11356TIP3   OH255482   3.649   3.797   4.733 -0.5245  0.2363 -0.2160
11356TIP3    H155483   3.706   3.830   4.663 -1.3239 -0.4414 -1.1997
11356TIP3    H255484   3.564   3.835   4.715 -1.1166 -1.2325 -0.5446
11357TIP3   OH255485   1.160   5.976   4.042 -0.9171  0.1743 -0.1717
11357TIP3    H155486   1.120   6.038   4.103 -3.4884 -0.6083 -0.9891
11357TIP3    H255487   1.241   6.018   4.015 -1.7628  2.3868  0.6092
11358TIP3   OH255488   4.554   6.449  11.921  0.4040 -0.4058  0.7339
11358TIP3    H155489   4.502   6.382  11.967 -0.3747 -1.1181 -1.1524
11358TIP3    H255490   4.512   6.531  11.946 -0.2110 -0.8045  1.0580
11359TIP3   OH255491   0.237   0.480   3.436 -0.2447  1.3138  0.1995
11359TIP3    H155492   0.219   0.459   3.344  0.8053 -0.2484  0.3298
11359TIP3    H255493   0.204   0.404   3.485  1.1364  1.1672  0.9299
11360TIP3   OH255494   4.297   3.986  12.925 -0.6447  0.0657  0.1809
11360TIP3    H155495   4.336   4.012  12.842 -0.0757  1.0033  0.7340
11360TIP3    H255496   4.248   4.063  12.954 -1.3813 -0.4752  0.4005
11361TIP3   OH255497   5.013   2.195   4.621 -0.1170  0.2015 -0.0383
11361TIP3    H155498   4.962   2.208   4.541 -0.8424  2.1509  0.7260
11361TIP3    H255499   5.080   2.263   4.619  0.7878 -0.6574  0.3070
11362TIP3   OH255500   2.257   5.111   3.164  0.1209 -0.1171  0.7566
11362TIP3    H155501   2.315   5.184   3.139  0.7768 -1.3061 -1.4020
11362TIP3    H255502   2.292   5.080   3.247  0.0305  1.8208  1.5396
11363TIP3   OH255503   5.282   3.747   0.306  0.1834  0.4214 -0.5866
11363TIP3    H155504   5.300   3.672   0.363  0.4150  1.4722  0.7365
11363TIP3    H255505   5.212   3.717   0.248  0.2441 -0.7977 -0.0432
11364TIP3   OH255506   2.175   1.267  11.758 -0.2330 -0.1154 -0.3227
11364TIP3    H155507   2.236   1.341  11.757 -0.6688  0.2462 -0.6762
11364TIP3    H255508   2.111   1.290  11.826 -1.1956  0.5285 -1.4166
11365TIP3   OH255509   6.194   1.522  16.841  0.8972 -0.2977  0.3644
11365TIP3    H155510   6.221   1.609  16.812  0.8069 -0.6699 -0.8620
11365TIP3    H255511   6.273   1.483  16.878  1.5343 -0.5646 -1.2307
11366TIP3   OH255512   4.533   0.861  12.847  0.0581  0.1592 -0.1283
11366TIP3    H155513   4.472   0.888  12.915  1.0250  0.9626  0.4383
11366TIP3    H255514   4.606   0.821  12.895  0.6114  0.4713 -0.6989
11367TIP3   OH255515   2.366   1.505   6.531  0.3187 -0.6845 -0.2029
11367TIP3    H155516   2.448   1.487   6.578  0.2236  1.3936  0.8144
11367TIP3    H255517   2.381   1.590   6.489 -1.5438  0.0120  0.5101
11368TIP3   OH255518   3.567   4.749   1.392  0.2032 -0.2282 -0.2242
11368TIP3    H155519   3.480   4.789   1.390  1.2824  2.3551  1.5040
11368TIP3    H255520   3.621   4.804   1.335  0.5846 -2.2024 -1.8236
11369TIP3   OH255521   5.257   3.438   1.281 -0.7191 -0.0095 -0.7141
11369TIP3    H155522   5.175   3.391   1.270 -1.2253  1.1122 -1.7389
11369TIP3    H255523   5.257   3.505   1.213  0.3650  0.9635  0.2103
11370TIP3   OH255524   4.216   0.231  15.026  0.2138 -0.3869  0.2563
11370TIP3    H155525   4.267   0.310  15.042  0.9573 -0.8114 -0.0027
11370TIP3    H255526   4.125   0.260  15.031  0.4592  0.2255  1.5356
11371TIP3   OH255527   1.493   0.794  15.745  0.8436  0.0965 -0.1415
11371TIP3    H155528   1.564   0.758  15.693 -1.0540 -0.3181 -2.5066
11371TIP3    H255529   1.537   0.838  15.818  3.4805 -0.4269 -1.3608
11372TIP3   OH255530   5.040   3.937   5.525 -0.0034 -0.5215  0.3454
11372TIP3    H155531   5.007   3.857   5.485  0.5917 -0.6900  0.1929
11372TIP3    H255532   4.976   3.958   5.593 -0.5003 -0.7698 -0.0405
11373TIP3   OH255533   5.110   5.926  16.375 -0.0568 -0.2426 -0.2855
11373TIP3    H155534   5.084   6.016  16.357  0.4501  0.0116  0.2526
11373TIP3    H255535   5.180   5.933  16.439 -0.4479 -1.0457  0.2486
11374TIP3   OH255536   3.379   3.664   3.660 -0.0474  0.2667 -0.1072
11374TIP3    H155537   3.402   3.740   3.605 -2.0455  0.1826 -1.1352
11374TIP3    H255538   3.327   3.608   3.602  0.0589 -1.1282  1.1232
11375TIP3   OH255539   4.305   6.519  12.394  0.1843  0.3457  0.7786
11375TIP3    H155540   4.270   6.594  12.442  0.8621  1.3769 -0.3115
11375TIP3    H255541   4.267   6.527  12.306  2.4851  1.0273 -0.1786
11376TIP3   OH255542   5.462   1.872   3.775 -0.5147  0.2632  0.0231
11376TIP3    H155543   5.513   1.935   3.827 -2.3245  2.3844 -0.6960
11376TIP3    H255544   5.526   1.835   3.715  0.5059  1.7945  0.1218
11377TIP3   OH255545   5.515   6.380  10.968  0.3995 -0.5997  0.2194
11377TIP3    H155546   5.575   6.420  10.905  0.7965 -0.2302  0.8294
11377TIP3    H255547   5.558   6.391  11.053 -0.5914 -0.2022  0.6761
11378TIP3   OH255548   3.027   4.431   3.162  0.2528 -0.7542  0.4462
11378TIP3    H155549   2.988   4.351   3.127  0.8641 -0.8018 -0.1418
11378TIP3    H255550   3.054   4.407   3.251  1.6714 -1.6245 -0.1965
11379TIP3   OH255551   5.452   5.725  13.995 -0.1068 -0.7780  0.5924
11379TIP3    H155552   5.388   5.670  14.039 -1.9605  0.6439 -0.2769
11379TIP3    H255553   5.459   5.803  14.051  1.1782 -1.0800  0.8876
11380TIP3   OH255554   2.485   5.397   1.434 -0.2090 -0.6891 -0.2213
11380TIP3    H155555   2.539   5.334   1.386  0.4409 -0.7226  0.5455
11380TIP3    H255556   2.547   5.462   1.467 -0.5021 -1.2188  1.4345
11381TIP3   OH255557   4.778   3.947   1.751  0.1469  0.3044 -0.5943
11381TIP3    H155558   4.861   3.975   1.712 -0.0820 -0.0957 -1.3920
11381TIP3    H255559   4.799   3.867   1.798  0.2886  0.4053 -0.4876
11382TIP3   OH255560   0.178   1.680  12.162 -0.6710 -0.1931 -0.2614
11382TIP3    H155561   0.188   1.609  12.225  1.9305 -0.1016 -0.4881
11382TIP3    H255562   0.130   1.748  12.209  0.7061 -0.3658  1.4601
11383TIP3   OH255563   1.474   0.409  14.518  0.0765 -0.8036 -0.4611
11383TIP3    H155564   1.504   0.364  14.597  0.6618 -1.6776 -1.1699
11383TIP3    H255565   1.381   0.388  14.512  0.0642 -0.8561 -0.0886
11384TIP3   OH255566   0.967   3.335  15.929 -0.3313 -0.1948  0.3450
11384TIP3    H155567   1.053   3.376  15.922  0.1114 -1.2430 -0.5084
11384TIP3    H255568   0.980   3.263  15.992 -0.4688 -0.6504 -0.1461
11385TIP3   OH255569   3.212   2.540   4.856  0.1347  0.0552 -0.5572
11385TIP3    H155570   3.294   2.583   4.834  0.6120  0.0529  1.2201
11385TIP3    H255571   3.232   2.485   4.931 -1.7623  0.9612  0.6548
11386TIP3   OH255572   5.142   1.583   4.090  0.1019 -0.2581 -0.4763
11386TIP3    H155573   5.149   1.526   4.014 -0.5182 -0.4702 -0.3753
11386TIP3    H255574   5.221   1.565   4.141  0.3874 -0.3097 -0.9310
11387TIP3   OH255575   4.035   6.676  12.105  0.4196 -0.1849  0.3595
11387TIP3    H155576   4.066   6.760  12.139  0.2728 -0.5330  1.3467
11387TIP3    H255577   4.110   6.617  12.115  0.4270 -0.2491 -0.0625
11388TIP3   OH255578   5.930   4.477   5.565  0.2527  0.1158 -0.4331
11388TIP3    H155579   5.905   4.468   5.473  0.6100 -1.9241 -0.3443
11388TIP3    H255580   6.012   4.527   5.563  0.2526  0.0912 -1.2090
11389TIP3   OH255581   0.139   4.681   2.611 -0.0283 -0.0687  0.0770
11389TIP3    H155582   0.208   4.649   2.552 -0.1841  0.8983 -0.6281
11389TIP3    H255583   0.172   4.764   2.643 -0.6433  0.1522  0.1345
11390TIP3   OH255584   5.574   6.499   3.710  0.5265 -0.2993 -0.0202
11390TIP3    H155585   5.538   6.433   3.770 -2.0449 -0.2486 -1.4410
11390TIP3    H255586   5.630   6.554   3.766 -1.1718 -0.7405  2.1962
11391TIP3   OH255587   0.667   3.888  11.463 -0.3112  0.0704  0.3785
11391TIP3    H155588   0.612   3.903  11.541  0.3040  0.7433  0.6849
11391TIP3    H255589   0.702   3.974  11.442 -2.0330  0.2765 -1.8439
11392TIP3   OH255590   4.566   2.746  12.655  0.6647 -0.0939 -0.0067
11392TIP3    H155591   4.590   2.728  12.564  0.8049 -0.7334  0.1613
11392TIP3    H255592   4.621   2.688  12.707 -0.6949 -1.0298  0.4218
11393TIP3   OH255593   2.071   3.253  13.576 -0.4164  0.0846  0.6030
11393TIP3    H155594   1.977   3.265  13.558  0.3022  1.7594 -2.2995
11393TIP3    H255595   2.106   3.342  13.577  1.5241 -0.6534 -0.6072
11394TIP3   OH255596   5.491   1.095   0.638 -0.2611 -0.2062 -0.2168
11394TIP3    H155597   5.584   1.075   0.627  0.2430  1.8966 -0.0062
11394TIP3    H255598   5.488   1.156   0.712 -1.6769  0.5339 -0.8560
11395TIP3   OH255599   6.091   4.481  12.334 -0.4640  0.2451  0.8883
11395TIP3    H155600   6.115   4.560  12.383  1.5827  1.6845 -2.2832
11395TIP3    H255601   6.002   4.497  12.304 -0.8361  0.4111  2.0716
11396TIP3   OH255602   4.816   6.441  11.375 -0.1350  0.0916 -0.0848
11396TIP3    H155603   4.734   6.393  11.382  1.6019 -2.7384  1.9599
11396TIP3    H255604   4.864   6.396  11.306 -0.1274  1.5182 -1.0342
11397TIP3   OH255605   5.957   4.319   2.262 -0.1108  0.0844 -0.6911
11397TIP3    H155606   6.009   4.320   2.181 -0.5829 -2.4705 -1.0533
11397TIP3    H255607   6.019   4.346   2.330  1.0131 -0.4314 -1.4934
11398TIP3   OH255608   3.832   3.786   4.945  0.1996 -0.4108  0.8517
11398TIP3    H155609   3.761   3.781   4.881 -0.7226 -2.9609  2.0155
11398TIP3    H255610   3.802   3.849   5.010 -0.4997 -0.6218  0.7343
11399TIP3   OH255611   2.787   1.136  16.490 -0.1671  0.5490 -0.5195
11399TIP3    H155612   2.745   1.104  16.570  0.9498  2.6736  0.9645
11399TIP3    H255613   2.876   1.158  16.517  0.4148  0.6791 -2.5051
11400TIP3   OH255614   2.264   4.456  14.685  0.0767 -0.8329  0.3168
11400TIP3    H155615   2.292   4.379  14.733  1.1591  0.9611  2.6830
11400TIP3    H255616   2.188   4.489  14.733 -0.0467 -0.1123 -0.3448
11401TIP3   OH255617   6.765   1.794   1.589 -0.1800  0.2660  0.2551
11401TIP3    H155618   6.797   1.812   1.501 -0.8773  0.6372  0.0679
11401TIP3    H255619   6.677   1.833   1.591  0.1287  0.9526  1.3568
11402TIP3   OH255620   5.687   5.389   1.536 -0.1834  0.3530 -0.7686
11402TIP3    H155621   5.735   5.450   1.481  0.2970 -0.3970 -1.1879
11402TIP3    H255622   5.674   5.311   1.481 -0.8040  0.0806 -0.2516
11403TIP3   OH255623   5.522   5.359  11.179 -0.0029  0.2283  0.2446
11403TIP3    H155624   5.518   5.451  11.152  1.4116  0.4195  0.6439
11403TIP3    H255625   5.444   5.320  11.141 -0.7946  1.6717  0.3550
11404TIP3   OH255626   3.913   0.332   3.203 -0.0926 -0.8183 -0.0283
11404TIP3    H155627   3.908   0.357   3.111  1.6936 -0.0053  0.0747
11404TIP3    H255628   3.867   0.401   3.250  0.6480 -0.2327 -0.1580
11405TIP3   OH255629   5.180   3.536  16.756  0.2112 -0.0747  0.5621
11405TIP3    H155630   5.212   3.623  16.778 -1.5530  1.5107 -2.7708
11405TIP3    H255631   5.085   3.543  16.759  0.0151 -1.3527 -1.4828
11406TIP3   OH255632   1.936   0.903  16.481  0.4354  0.5774 -0.5839
11406TIP3    H155633   1.963   0.954  16.557 -1.7479 -1.1642  1.4549
11406TIP3    H255634   2.014   0.850  16.459  1.0755  1.0693  0.4592
11407TIP3   OH255635   4.058   4.560  11.571  0.3505 -0.0153 -0.0884
11407TIP3    H155636   4.014   4.635  11.531 -1.3110 -1.1340 -0.4175
11407TIP3    H255637   4.138   4.548  11.519  0.4649  1.3074 -0.2349
11408TIP3   OH255638   2.911   4.658   4.809  0.1488  0.0931 -0.4207
11408TIP3    H155639   2.869   4.683   4.892  2.8931  1.1085  0.7295
11408TIP3    H255640   2.997   4.624   4.835  0.8253 -0.1038 -2.8257
11409TIP3   OH255641   1.441   0.398  10.499 -0.1153  0.3783  0.1876
11409TIP3    H155642   1.404   0.318  10.537 -0.1347  0.2731 -0.0502
11409TIP3    H255643   1.458   0.455  10.574 -1.3010  0.6606  0.2408
11410TIP3   OH255644   1.701   0.167  16.504  0.0016  0.0893 -0.0100
11410TIP3    H155645   1.737   0.102  16.565 -0.7921 -1.2105 -0.9125
11410TIP3    H255646   1.615   0.134  16.481 -0.3522  1.3900 -0.6159
11411TIP3   OH255647   3.404   5.060   5.753  0.4510 -0.6818  0.5748
11411TIP3    H155648   3.484   5.022   5.790 -0.3376  0.1355  3.2644
11411TIP3    H255649   3.370   5.116   5.823 -2.1571 -0.5472 -0.7494
11412TIP3   OH255650   4.747   4.915  16.189  0.2099  0.5932  0.1240
11412TIP3    H155651   4.694   4.850  16.236 -1.4229 -0.7240 -3.3594
11412TIP3    H255652   4.832   4.874  16.178  0.4776  0.7483  1.5328
11413TIP3   OH255653   5.711   5.834  13.522  0.2692  0.7801  0.4973
11413TIP3    H155654   5.623   5.832  13.482  0.3224  0.7179  0.3821
11413TIP3    H255655   5.695   5.859  13.613  0.0026 -0.4706  0.8043
11414TIP3   OH255656   2.784   4.237  12.796 -0.1172  0.3095 -0.2110
11414TIP3    H155657   2.742   4.204  12.717 -1.0930  0.9255  0.0366
11414TIP3    H255658   2.813   4.325  12.773  1.1421 -0.1522 -0.4129
11415TIP3   OH255659   0.355   1.715  15.007 -0.0125 -0.4948 -0.0406
11415TIP3    H155660   0.329   1.638  14.957 -0.8704  0.5824 -1.2974
11415TIP3    H255661   0.407   1.681  15.080  0.1576 -2.1865 -0.9469
11416TIP3   OH255662   3.017   6.118   1.775 -0.2542  0.2154  0.2615
11416TIP3    H155663   2.945   6.068   1.737 -0.5432  0.5210  0.3992
11416TIP3    H255664   2.986   6.142   1.863 -0.9299  2.3165 -0.5286
11417TIP3   OH255665   5.419   1.660   2.185  0.5553  0.0577  0.0544
11417TIP3    H155666   5.421   1.679   2.279 -0.8326 -0.8632  0.2891
11417TIP3    H255667   5.491   1.598   2.172 -0.1550 -0.9439  0.7903
11418TIP3   OH255668   3.194   2.497   2.350  0.2262 -0.0649  0.4065
11418TIP3    H155669   3.178   2.403   2.364  0.1004 -0.0942  0.0548
11418TIP3    H255670   3.213   2.531   2.438  1.1318 -0.5901  0.4253
11419TIP3   OH255671   3.223   3.881  16.526 -0.1177  0.2064  0.0729
11419TIP3    H155672   3.271   3.958  16.558 -0.9345  0.7778 -0.0428
11419TIP3    H255673   3.267   3.859  16.443  0.4518  0.2208  0.3666
11420TIP3   OH255674   1.457   3.607   5.557  0.2806 -0.1238 -0.1656
11420TIP3    H155675   1.459   3.511   5.554  0.3349 -0.1381  0.2702
11420TIP3    H255676   1.474   3.628   5.648  0.5955  0.3115 -0.3218
11421TIP3   OH255677   5.502   2.167   6.077 -0.3561 -0.1183 -0.2497
11421TIP3    H155678   5.432   2.192   6.137  0.6133  0.8531  0.4877
11421TIP3    H255679   5.564   2.117   6.130  0.5389  0.7994 -0.4103
11422TIP3   OH255680   0.856   6.134   0.420  0.1779  0.2870 -0.4849
11422TIP3    H155681   0.828   6.199   0.355 -0.1914  1.5771  0.9185
11422TIP3    H255682   0.951   6.135   0.415  0.2018  1.3995 -0.0715
11423TIP3   OH255683   4.050   6.307  16.449  0.4474 -0.1366 -0.5009
11423TIP3    H155684   4.032   6.217  16.473 -1.0000  0.1851 -0.3450
11423TIP3    H255685   4.132   6.303  16.400  0.3959 -1.5221 -0.4822
11424TIP3   OH255686   6.097   2.773   1.290 -0.1007 -0.2140  0.3208
11424TIP3    H155687   6.111   2.783   1.196 -0.0515  0.8257  0.4356
11424TIP3    H255688   6.077   2.861   1.321 -1.2508 -0.7467  1.1053
11425TIP3   OH255689   0.907   1.400  13.193  0.5213  0.3516  0.8174
11425TIP3    H155690   0.845   1.444  13.134 -1.0805  1.4002  3.2174
11425TIP3    H255691   0.870   1.313  13.206  1.5534 -0.3327 -0.7092
11426TIP3   OH255692   4.420   6.419   3.556  0.0660  0.8170  0.2408
11426TIP3    H155693   4.362   6.468   3.613 -0.7683  0.1888 -0.0448
11426TIP3    H255694   4.508   6.444   3.582 -0.1908 -1.6995  3.8286
11427TIP3   OH255695   1.810   0.987   2.603 -0.2318  0.1605 -0.1340
11427TIP3    H155696   1.822   1.044   2.680  1.3561  0.4282 -0.5652
11427TIP3    H255697   1.820   0.898   2.637  0.2801  0.2723  0.0172
11428TIP3   OH255698   4.720   1.760   1.715 -0.0389  0.2719  0.5888
11428TIP3    H155699   4.633   1.799   1.715  1.2172  3.2875  1.2710
11428TIP3    H255700   4.727   1.715   1.631 -2.1220  0.2638  0.4008
11429TIP3   OH255701   2.804   1.213   2.998 -0.5598 -0.3251 -0.0462
11429TIP3    H155702   2.732   1.265   2.962 -1.4730 -0.2521  1.8329
11429TIP3    H255703   2.856   1.275   3.050 -1.6977 -1.2343  2.2660
11430TIP3   OH255704   4.183   4.855   6.547 -0.2371 -0.5128 -0.5734
11430TIP3    H155705   4.098   4.829   6.512 -0.1824 -0.3006 -0.8723
11430TIP3    H255706   4.227   4.899   6.473  0.1614 -0.6919 -0.4478
11431TIP3   OH255707   1.762   0.435   0.197  0.0396 -0.2048 -0.4556
11431TIP3    H155708   1.756   0.454   0.103  1.9957  0.4175 -0.4941
11431TIP3    H255709   1.711   0.504   0.239 -0.7640 -0.4305 -1.0503
11432TIP3   OH255710   2.165   6.131  16.894 -0.7550  0.2458  0.3733
11432TIP3    H155711   2.249   6.088  16.876 -0.9488 -0.2566  0.6633
11432TIP3    H255712   2.122   6.074  16.958 -0.9808  0.9155  0.8202
11433TIP3   OH255713   4.183   4.331  11.877 -0.1547 -0.0583  0.1075
11433TIP3    H155714   4.199   4.299  11.966 -0.8169 -1.1570 -0.1542
11433TIP3    H255715   4.251   4.397  11.863  0.8373 -0.8749  0.9227
11434TIP3   OH255716   1.060   0.861   3.075 -0.2280  0.4202 -0.6387
11434TIP3    H155717   1.046   0.956   3.076 -0.5570  0.3688 -0.2302
11434TIP3    H255718   0.983   0.826   3.031 -2.7708 -0.0724  3.8964
11435TIP3   OH255719   3.433   5.540  12.796  0.7109 -0.0670 -0.0225
11435TIP3    H155720   3.368   5.480  12.759 -0.1110 -0.3362  1.7964
11435TIP3    H255721   3.507   5.484  12.821  0.5230 -0.1431  0.3729
11436TIP3   OH255722   0.003   0.563  13.601  0.9112  0.4743 -0.2897
11436TIP3    H155723   0.031   0.575  13.692  0.0725  1.0895 -0.1081
11436TIP3    H255724   0.079   0.525  13.558  0.8771 -1.0466  0.9537
11437TIP3   OH255725   3.983   0.403   3.797 -0.4984 -0.6570  0.0092
11437TIP3    H155726   3.944   0.491   3.795  0.0341 -0.4373 -1.8667
11437TIP3    H255727   3.963   0.370   3.884 -1.0967  1.1620  0.5895
11438TIP3   OH255728   5.919   5.696   0.933  0.2661  0.1247  0.1656
11438TIP3    H155729   5.921   5.665   0.843 -0.5265  0.4960  0.0110
11438TIP3    H255730   5.845   5.649   0.972  0.8273 -0.3008  0.7230
11439TIP3   OH255731   2.728   4.647   7.048 -0.3523  0.1942  0.0843
11439TIP3    H155732   2.769   4.580   7.104 -0.5495  0.5228  0.6241
11439TIP3    H255733   2.801   4.705   7.025 -0.3019  0.1521  0.1330
11440TIP3   OH255734   3.064   0.830   5.997  0.1590  0.0274 -0.4409
11440TIP3    H155735   3.084   0.758   6.057 -1.8817  1.0354  1.5327
11440TIP3    H255736   3.149   0.855   5.961  1.1849 -1.8824  0.5709
11441TIP3   OH255737   6.418   6.038  10.462  0.0676 -0.2753  0.4425
11441TIP3    H155738   6.419   6.118  10.410 -0.0115 -1.5390 -1.5511
11441TIP3    H255739   6.342   6.048  10.520 -0.1411  0.9325 -0.0276
11442TIP3   OH255740   4.903   4.287  15.298  0.0505  0.1122 -0.2998
11442TIP3    H155741   4.910   4.378  15.328 -0.2106 -0.1739  0.6433
11442TIP3    H255742   4.825   4.285  15.243  0.0951  0.4729 -0.3763
11443TIP3   OH255743   3.271   4.555  12.608  0.3366  0.0651  0.3318
11443TIP3    H155744   3.240   4.487  12.548  0.3316  0.3924 -0.0372
11443TIP3    H255745   3.367   4.547  12.605  0.4337  1.3580 -1.2359
11444TIP3   OH255746   2.540   3.902  12.029  0.3515  0.7016 -0.1645
11444TIP3    H155747   2.510   3.978  12.078  0.9145  1.6909 -1.3480
11444TIP3    H255748   2.526   3.925  11.937 -0.1566 -0.9128 -0.5129
11445TIP3   OH255749   2.654   5.765   5.162 -0.1189  0.1207 -0.2875
11445TIP3    H155750   2.661   5.710   5.239 -0.5869 -0.7625 -0.8687
11445TIP3    H255751   2.595   5.717   5.103 -0.5127  1.2218 -0.8067
11446TIP3   OH255752   4.219   5.151   2.072  0.4524  0.1757 -0.3875
11446TIP3    H155753   4.294   5.139   2.013  0.1496  0.8921 -0.9309
11446TIP3    H255754   4.169   5.223   2.033  0.9949  1.6271  1.5124
11447TIP3   OH255755   2.738   1.756  11.568  0.0109  0.1931  0.3409
11447TIP3    H155756   2.748   1.784  11.477 -1.1714 -1.5093 -0.3326
11447TIP3    H255757   2.776   1.827  11.619 -2.4551  2.7845 -1.3368
11448TIP3   OH255758   3.505   5.040   4.817 -0.4806  0.0832 -0.2797
11448TIP3    H155759   3.524   5.020   4.725 -0.7821 -3.3369  0.3380
11448TIP3    H255760   3.577   5.096   4.845 -0.9942  2.1596 -2.8791
11449TIP3   OH255761   1.243   5.259   2.528 -0.0265  0.4011 -0.2427
11449TIP3    H155762   1.180   5.291   2.593  1.1598 -0.0861  1.1754
11449TIP3    H255763   1.189   5.217   2.461 -1.1593 -1.1912  1.6097
11450TIP3   OH255764   5.998   5.359   1.383 -0.7133  0.2532  0.5650
11450TIP3    H155765   5.967   5.290   1.443 -0.7016  0.1526  0.4542
11450TIP3    H255766   5.973   5.328   1.296 -1.2585  0.6759  0.5668
11451TIP3   OH255767   1.362   2.602   6.040 -0.8402  0.1479 -0.3893
11451TIP3    H155768   1.296   2.558   5.987  1.0784 -0.7185 -2.1557
11451TIP3    H255769   1.396   2.534   6.098 -0.8866  0.3629 -0.1123
11452TIP3   OH255770   5.204   2.861   0.090 -0.3855 -0.1913  0.3405
11452TIP3    H155771   5.118   2.900   0.075  0.5909  1.9269 -0.0134
11452TIP3    H255772   5.196   2.771   0.060 -0.9452  1.4719 -5.0104
11453TIP3   OH255773   2.352   0.646   1.876 -0.5292  0.2614  0.4370
11453TIP3    H155774   2.343   0.566   1.823 -0.2866  0.1139  0.6197
11453TIP3    H255775   2.266   0.689   1.868 -0.0498  0.9604 -1.2289
11454TIP3   OH255776   6.225   3.142  16.322 -0.2998 -0.5984 -0.0249
11454TIP3    H155777   6.228   3.147  16.227 -1.4947  0.7828  0.0127
11454TIP3    H255778   6.202   3.051  16.340 -2.3731 -0.3096 -1.0989
11455TIP3   OH255779   2.852   3.112   2.557 -0.3211 -0.0326 -0.7932
11455TIP3    H155780   2.866   3.203   2.530  0.2758  0.6932  1.7596
11455TIP3    H255781   2.928   3.065   2.523 -1.7785 -0.0832 -4.1366
11456TIP3   OH255782   5.265   0.028   3.035  0.6355 -0.2657 -0.2816
11456TIP3    H155783   5.353   0.031   3.071 -0.9232  1.5468  3.6630
11456TIP3    H255784   5.245   0.118   3.010 -0.6801 -0.3492  0.4136
11457TIP3   OH255785   0.267   0.429  13.539  0.0646 -0.2478 -0.0932
11457TIP3    H155786   0.186   0.379  13.534 -1.6192  2.5001 -1.4285
11457TIP3    H255787   0.285   0.454  13.449  0.1759  2.5674  0.6708
11458TIP3   OH255788   4.531   0.419   5.619 -0.0260  1.0226  0.2726
11458TIP3    H155789   4.610   0.366   5.626  0.2138  1.1855 -1.1314
11458TIP3    H255790   4.459   0.356   5.622  0.0972  0.9309  2.3060
11459TIP3   OH255791   6.455   4.444   5.421  0.1792 -0.0800  0.2263
11459TIP3    H155792   6.459   4.528   5.376 -2.2051  0.6024  1.2035
11459TIP3    H255793   6.407   4.462   5.502 -0.5526 -2.4098  0.3603
11460TIP3   OH255794   5.801   4.159  17.133  0.7082  0.5710  0.0970
11460TIP3    H155795   5.884   4.195  17.164  0.5072 -0.3951  1.8346
11460TIP3    H255796   5.824   4.107  17.056  2.2177 -2.1175  2.2354
11461TIP3   OH255797   2.839   0.435  15.643 -0.3920  0.0843  0.4551
11461TIP3    H155798   2.890   0.504  15.686 -0.2935  0.1326  0.2577
11461TIP3    H255799   2.893   0.407  15.570 -0.4671 -0.1496  0.4897
11462TIP3   OH255800   5.121   0.773  11.825 -0.2807 -0.2418  0.4479
11462TIP3    H155801   5.156   0.838  11.764 -1.7511  0.1628  0.0013
11462TIP3    H255802   5.182   0.774  11.899  0.3103  0.8747 -0.0418
11463TIP3   OH255803   0.024   0.984  14.321 -0.1657 -0.1241 -0.0216
11463TIP3    H155804   0.072   0.917  14.272  3.3249 -0.2375  3.2147
11463TIP3    H255805  -0.044   0.935  14.368 -1.0364 -0.5810 -1.7453
11464TIP3   OH255806   0.640   4.838   6.414  0.5682 -0.0300 -0.0760
11464TIP3    H155807   0.605   4.859   6.327  0.1304 -0.1692  0.0694
11464TIP3    H255808   0.646   4.743   6.415 -0.0920 -0.0647  0.3117
11465TIP3   OH255809   0.682   6.158  12.444  0.2400  0.4967 -0.1420
11465TIP3    H155810   0.626   6.163  12.367  1.5855  0.6025 -1.1274
11465TIP3    H255811   0.771   6.153  12.409  0.8248 -0.1139  1.3917
11466TIP3   OH255812   4.040   4.561  12.934 -0.1369  0.7922  0.0350
11466TIP3    H155813   4.068   4.596  12.849 -0.2104 -0.1288 -0.3702
11466TIP3    H255814   3.951   4.594  12.945 -0.6502 -0.2440 -0.9063
11467TIP3   OH255815   6.138   3.669   5.854 -0.3077 -0.4617  0.2618
11467TIP3    H155816   6.143   3.763   5.873  0.6207  0.0379 -2.3215
11467TIP3    H255817   6.219   3.633   5.890 -0.0508 -0.0549  0.0930
11468TIP3   OH255818   1.750   5.295  13.092 -0.0612 -0.1148  0.0707
11468TIP3    H155819   1.748   5.279  12.997 -0.6978 -1.0941  0.2451
11468TIP3    H255820   1.843   5.308  13.111  0.3215 -2.0523 -0.3502
11469TIP3   OH255821   3.255   2.146   3.577 -0.0255 -0.0583  0.0393
11469TIP3    H155822   3.294   2.199   3.646  0.0350 -0.3436  0.2232
11469TIP3    H255823   3.194   2.206   3.533  0.9120  0.5102 -0.5172
11470TIP3   OH255824   1.525   3.041  15.886 -0.2420 -0.0128 -0.4184
11470TIP3    H155825   1.591   3.018  15.952 -1.7153 -0.0259  1.1008
11470TIP3    H255826   1.512   3.135  15.896  1.1267  0.3970 -2.2398
11471TIP3   OH255827   3.970   4.799   4.242  0.3188  0.7201  0.0492
11471TIP3    H155828   3.922   4.861   4.297 -2.9974  0.5066 -2.5003
11471TIP3    H255829   3.992   4.727   4.301 -0.3585  1.9513  1.8415
11472TIP3   OH255830   2.523   3.386  16.592  0.4585  0.7508 -0.9827
11472TIP3    H155831   2.456   3.451  16.613 -0.1368 -0.0395 -0.4091
11472TIP3    H255832   2.494   3.346  16.510 -1.1317 -1.3433  0.5255
11473TIP3   OH255833   5.725   5.345  16.855  0.7532  0.0254 -0.3105
11473TIP3    H155834   5.674   5.356  16.935 -0.1074  0.7627 -0.9331
11473TIP3    H255835   5.803   5.399  16.868 -0.1051  1.3509 -0.5499
11474TIP3   OH255836   4.795   0.308   5.533  0.3486  0.0001 -0.1777
11474TIP3    H155837   4.869   0.316   5.474  0.1829 -0.2725 -0.4239
11474TIP3    H255838   4.817   0.365   5.607  0.8828 -0.2232 -0.1632
11475TIP3   OH255839   0.683   2.307  12.941 -0.4269 -0.5321  0.0128
11475TIP3    H155840   0.746   2.308  13.012  0.2600 -0.3318 -0.6024
11475TIP3    H255841   0.624   2.234  12.963  0.2763 -1.0015  0.3498
11476TIP3   OH255842   3.176   2.958   6.600  0.4969 -0.6473  0.1935
11476TIP3    H155843   3.245   3.022   6.590 -1.0600  0.8936 -0.9353
11476TIP3    H255844   3.209   2.897   6.666  3.0209 -0.1192 -0.5427
11477TIP3   OH255845   1.774   1.741  14.755  0.1095  0.0458 -0.2063
11477TIP3    H155846   1.825   1.758  14.676  2.0813  1.0108  1.2466
11477TIP3    H255847   1.750   1.828  14.787  0.0572 -0.3050  0.7271
11478TIP3   OH255848   2.642   2.820   5.108  0.3535  0.3969  0.0117
11478TIP3    H155849   2.678   2.819   5.019 -1.6734 -0.0457 -0.8229
11478TIP3    H255850   2.669   2.737   5.146  0.0896  0.0003 -0.6586
11479TIP3   OH255851   4.700   4.985   3.215 -0.3133  0.7624 -0.0009
11479TIP3    H155852   4.792   5.000   3.193  0.3760 -1.0204  1.4553
11479TIP3    H255853   4.653   5.057   3.174  1.8382  2.1943 -0.0410
11480TIP3   OH255854   3.803   4.376   1.637 -0.5244  0.2180 -0.3829
11480TIP3    H155855   3.796   4.470   1.620 -2.3850  0.3392  0.9079
11480TIP3    H255856   3.857   4.369   1.716 -1.5010  0.2965  0.3041
11481TIP3   OH255857   4.444   0.649   5.043 -0.1773 -0.8473  0.1126
11481TIP3    H155858   4.424   0.731   5.088 -0.0147 -1.2972  0.9958
11481TIP3    H255859   4.430   0.669   4.950  0.3735  0.3274  0.2769
11482TIP3   OH255860   0.273   1.374  13.393 -0.3265  0.0416 -0.4747
11482TIP3    H155861   0.309   1.456  13.427 -1.1460  0.1266  0.2077
11482TIP3    H255862   0.213   1.401  13.324 -0.6135  0.0157 -0.2347
11483TIP3   OH255863   1.594   6.622  12.062  0.0720 -0.0773 -0.1264
11483TIP3    H155864   1.688   6.606  12.066  0.2453  0.6323 -1.1355
11483TIP3    H255865   1.585   6.717  12.057 -0.6197 -0.1883 -1.4332
11484TIP3   OH255866   2.542   4.965   0.150 -0.6340  0.3185 -0.1436
11484TIP3    H155867   2.630   4.971   0.189 -0.4490 -2.2081 -0.1041
11484TIP3    H255868   2.484   4.951   0.225 -0.7091 -0.9098 -0.4239
11485TIP3   OH255869   5.178   1.004  16.032  0.1577  0.4463  0.0135
11485TIP3    H155870   5.202   1.024  16.123 -1.5271 -1.0133  0.8251
11485TIP3    H255871   5.114   1.072  16.009 -0.7793 -0.2176  0.5781
11486TIP3   OH255872   4.472   6.502   0.279 -0.3541 -0.0118 -0.1625
11486TIP3    H155873   4.396   6.444   0.284  0.3831 -0.8830  1.6845
11486TIP3    H255874   4.542   6.452   0.320  0.7689  1.4778 -0.2407
11487TIP3   OH255875   1.944   0.640   5.644 -0.1727 -0.1441 -0.1027
11487TIP3    H155876   1.849   0.635   5.631 -0.1394 -2.6489  0.3921
11487TIP3    H255877   1.977   0.561   5.602  1.5666  0.0372  0.9168
11488TIP3   OH255878   4.913   2.376   1.758 -0.2603 -0.1231 -0.2282
11488TIP3    H155879   4.949   2.415   1.838 -0.6542  0.9816 -0.5786
11488TIP3    H255880   4.963   2.295   1.746 -1.0931 -0.9945  1.8574
11489TIP3   OH255881   6.606   2.180   4.293  0.5937 -0.4271 -0.4114
11489TIP3    H155882   6.642   2.246   4.352  0.9197 -0.6671 -0.3350
11489TIP3    H255883   6.528   2.148   4.338  0.7097 -0.4403 -0.2161
11490TIP3   OH255884   3.989   3.507  12.364  0.1701  0.1013  0.2400
11490TIP3    H155885   4.075   3.499  12.406  0.5053 -0.8004 -0.6236
11490TIP3    H255886   3.938   3.435  12.400  0.9682 -1.6815 -2.1220
11491TIP3   OH255887   6.163   1.294   1.438 -0.1588  0.4004 -0.0330
11491TIP3    H155888   6.131   1.328   1.522 -1.3350 -0.9927  0.0974
11491TIP3    H255889   6.222   1.362   1.406 -1.5301  2.0229  0.7987
11492TIP3   OH255890   5.202   2.530   0.618 -0.2684  0.6459  0.1728
11492TIP3    H155891   5.115   2.570   0.626 -0.0601  1.3308 -0.9328
11492TIP3    H255892   5.185   2.441   0.589 -0.5323  1.3052 -1.7338
11493TIP3   OH255893   1.910   5.003   6.280 -0.4224  0.5644 -0.2548
11493TIP3    H155894   1.824   4.974   6.249 -0.0412 -1.0409  0.1557
11493TIP3    H255895   1.929   4.947   6.356  0.5370  1.5945  0.2930
11494TIP3   OH255896   3.681   4.500   3.739  0.3170  0.2172 -0.4254
11494TIP3    H155897   3.713   4.413   3.714 -0.7084  0.2112 -1.7778
11494TIP3    H255898   3.747   4.533   3.799  0.9161 -1.3447 -0.1889
11495TIP3   OH255899   1.478   0.513  12.943  0.0032 -0.2712  0.3757
11495TIP3    H155900   1.409   0.507  13.010 -0.8763 -0.2085 -0.5135
11495TIP3    H255901   1.458   0.442  12.882  0.6489 -0.1639  0.0365
11496TIP3   OH255902   5.253   2.131  12.584  0.4916  0.4441  0.7013
11496TIP3    H155903   5.216   2.094  12.504 -1.8774  0.9502  1.4980
11496TIP3    H255904   5.273   2.056  12.639  0.8978  0.1430  0.1427
11497TIP3   OH255905   3.674   0.403   5.073 -0.5789  0.6912 -0.7248
11497TIP3    H155906   3.658   0.440   4.986 -1.8047  0.4673 -0.6122
11497TIP3    H255907   3.769   0.402   5.082 -0.5010  2.9228 -1.1144
11498TIP3   OH255908   6.015   0.793  11.362 -0.6658  0.8600 -0.0559
11498TIP3    H155909   5.980   0.761  11.279 -0.8692 -0.2895  0.4631
11498TIP3    H255910   6.110   0.786  11.352 -0.7165 -0.4456  0.2436
11499TIP3   OH255911   3.207   1.170   6.360  0.6132 -0.2860 -0.4479
11499TIP3    H155912   3.249   1.208   6.282  1.6888 -0.9146 -0.1795
11499TIP3    H255913   3.246   1.217   6.434  0.5396 -0.5825 -0.2205
11500TIP3   OH255914   4.511   1.323  11.465  0.0519  0.4421  0.3485
11500TIP3    H155915   4.472   1.383  11.529  2.7342  1.0494  1.4520
11500TIP3    H255916   4.542   1.380  11.395  2.6143  0.3907  1.4040
11501TIP3   OH255917   3.618   5.181  15.527 -0.5365 -0.1843  0.0563
11501TIP3    H155918   3.589   5.183  15.619  0.3372 -0.1115  0.3362
11501TIP3    H255919   3.592   5.094  15.496  0.2133 -0.6606  0.7299
11502TIP3   OH255920   4.388   0.963  14.484 -0.0919  0.2976  0.6428
11502TIP3    H155921   4.355   1.026  14.419 -0.9100  0.8666  1.5986
11502TIP3    H255922   4.397   0.881  14.435  0.5975  1.0482 -0.5162
11503TIP3   OH255923   0.366   2.502   1.613 -0.0000 -0.7283 -0.8939
11503TIP3    H155924   0.285   2.452   1.603 -0.3636 -0.1901 -0.7053
11503TIP3    H255925   0.385   2.535   1.525 -1.1418  0.8814 -0.5736
11504TIP3   OH255926   5.035   1.201  15.451  0.4014 -0.1215  0.3275
11504TIP3    H155927   5.114   1.253  15.436  0.8637 -1.4534 -2.1298
11504TIP3    H255928   4.964   1.265  15.454  1.4709  1.0274  1.9668
11505TIP3   OH255929   1.719   5.107   3.066 -0.0293  0.3388 -0.3934
11505TIP3    H155930   1.773   5.186   3.069 -1.1398  1.1172 -0.3943
11505TIP3    H255931   1.767   5.042   3.117  0.7080  1.1427 -0.0706
11506TIP3   OH255932   6.618   2.257  14.979  0.0173 -0.0113 -0.3172
11506TIP3    H155933   6.608   2.223  15.068  1.9944  2.0249  0.7294
11506TIP3    H255934   6.640   2.180  14.927  2.8667 -0.6827  1.7256
11507TIP3   OH255935   1.460   4.889  14.874 -0.1898 -0.1912  0.0453
11507TIP3    H155936   1.538   4.902  14.821  0.2881 -0.4644  0.6726
11507TIP3    H255937   1.393   4.861  14.812  0.3452 -0.4535 -0.4198
11508TIP3   OH255938   4.197   0.445  12.698 -0.3352  0.3383  0.2716
11508TIP3    H155939   4.208   0.511  12.630 -1.0804 -0.2483 -0.4158
11508TIP3    H255940   4.284   0.440  12.739  0.0575  0.8619 -0.4702
11509TIP3   OH255941   5.851   4.318   3.576 -0.0557 -0.1680 -0.1476
11509TIP3    H155942   5.797   4.396   3.586  0.0524  0.2183 -2.3529
11509TIP3    H255943   5.931   4.348   3.534  0.7394 -1.1797  0.6120
11510TIP3   OH255944   0.480   1.304  14.973 -0.2741 -0.0714 -0.1066
11510TIP3    H155945   0.464   1.241  15.044 -1.8986  0.4783  0.0447
11510TIP3    H255946   0.399   1.303  14.921  0.2617  0.7644 -0.9841
11511TIP3   OH255947   1.116   0.896   4.155  0.6878  0.1727 -0.0674
11511TIP3    H155948   1.094   0.944   4.076  2.8543  1.6458  0.1696
11511TIP3    H255949   1.114   0.962   4.225 -0.2478 -0.8978  0.9385
11512TIP3   OH255950   6.514   0.255   0.815  0.3086 -0.2475 -0.2971
11512TIP3    H155951   6.451   0.326   0.803  1.5484  0.8932 -0.0878
11512TIP3    H255952   6.495   0.221   0.902 -0.4682 -0.3637 -0.5072
11513TIP3   OH255953   3.036   3.395   1.032  0.3850  0.2067  0.1453
11513TIP3    H155954   3.053   3.341   1.110 -1.2544 -1.7287 -0.8022
11513TIP3    H255955   3.093   3.359   0.965  1.0393  1.2204  0.1419
11514TIP3   OH255956   1.314   2.208   0.295 -0.7839 -0.3864  0.1087
11514TIP3    H155957   1.283   2.297   0.275 -0.7036 -0.4927 -0.4883
11514TIP3    H255958   1.374   2.187   0.223 -1.4902 -1.2675 -0.2251
11515TIP3   OH255959   5.365   3.058   6.463  0.0343  0.5513 -0.0928
11515TIP3    H155960   5.346   2.971   6.428  0.5430  0.3681  0.0937
11515TIP3    H255961   5.341   3.118   6.392  1.0632  0.1810 -0.7693
11516TIP3   OH255962   5.306   6.757   3.888 -0.3537  0.2108  0.2995
11516TIP3    H155963   5.245   6.698   3.933  1.1275 -1.3778  0.2996
11516TIP3    H255964   5.368   6.783   3.956  0.2889  0.0003 -0.2041
11517TIP3   OH255965   2.352   0.919   0.514 -0.1928 -0.3063 -0.4538
11517TIP3    H155966   2.260   0.901   0.493 -0.9853  0.1115  2.3410
11517TIP3    H255967   2.368   1.006   0.478 -1.2336  0.0487 -0.0951
11518TIP3   OH255968   2.429   2.058   2.466  0.3461  0.3211 -0.6229
11518TIP3    H155969   2.394   1.979   2.507 -0.3287  0.0591 -1.6706
11518TIP3    H255970   2.379   2.066   2.384 -0.1425  2.2650 -0.1520
11519TIP3   OH255971   1.680   6.624  17.228 -0.3430 -0.0195 -0.2066
11519TIP3    H155972   1.698   6.663  17.313 -1.7337  0.0106  0.0988
11519TIP3    H255973   1.613   6.681  17.190  1.4238  0.9018 -2.0288
11520TIP3   OH255974   6.577   3.421   3.112  0.2545 -0.2094 -0.5415
11520TIP3    H155975   6.515   3.432   3.041  0.2873  2.3574 -0.2074
11520TIP3    H255976   6.608   3.330   3.103 -1.9586 -0.8583 -1.9448
11521TIP3   OH255977   4.253   4.696   1.436  0.4788 -0.1851 -0.1895
11521TIP3    H155978   4.347   4.698   1.453  0.2789  0.6280  0.8578
11521TIP3    H255979   4.219   4.773   1.481 -1.0126 -1.7084  1.3521
11522TIP3   OH255980   1.640   3.288  14.698 -0.0341  0.2771 -0.3655
11522TIP3    H155981   1.603   3.200  14.686  0.9062 -0.0934 -0.6265
11522TIP3    H255982   1.708   3.295  14.631  1.8437  0.1043  1.4356
11523TIP3   OH255983   4.670   1.068   3.874  0.2311  0.0179 -0.8189
11523TIP3    H155984   4.602   1.095   3.812  0.9565  0.3402 -1.4861
11523TIP3    H255985   4.747   1.117   3.846  0.1949  1.3027  1.2439
11524TIP3   OH255986   0.982   0.676   2.706  0.1357 -0.2410  0.1600
11524TIP3    H155987   1.019   0.622   2.776 -0.0187 -1.5784 -0.7628
11524TIP3    H255988   0.956   0.613   2.639 -0.6488  0.9463 -0.6697
11525TIP3   OH255989   2.617   6.532  13.794 -0.3058  0.5043 -0.2827
11525TIP3    H155990   2.689   6.546  13.733  0.9854 -0.0821  1.0750
11525TIP3    H255991   2.646   6.458  13.848 -1.8095  0.4411  0.4523
11526TIP3   OH255992   2.745   1.097  12.928 -0.2393  0.0921  0.9052
11526TIP3    H155993   2.674   1.161  12.930 -0.6588 -0.3182 -0.5150
11526TIP3    H255994   2.824   1.149  12.917 -0.5785  0.3707 -0.2565
11527TIP3   OH255995   2.383   1.970   5.734  0.3442  0.2941  0.2743
11527TIP3    H155996   2.463   1.938   5.693  0.7922  1.0252  0.5521
11527TIP3    H255997   2.343   2.027   5.668  0.2851  0.2740  0.2927
11528TIP3   OH255998   0.359   6.117  13.889  0.2297 -0.6942 -0.7441
11528TIP3    H155999   0.358   6.035  13.939 -0.8715  0.8702  1.9246
11528TIP3    H256000   0.298   6.174  13.936 -0.9242  0.8640 -3.9783
11529TIP3   OH256001   0.792   4.566  14.845 -0.2153 -0.0504 -0.0363
11529TIP3    H156002   0.885   4.588  14.838 -0.7637  1.8384 -1.9966
11529TIP3    H256003   0.751   4.643  14.883 -1.0537 -0.7137  0.4357
11530TIP3   OH256004   6.637   5.005  14.755 -0.3903  0.0241  0.6188
11530TIP3    H156005   6.684   4.922  14.746  1.6739  1.2316 -0.1379
11530TIP3    H256006   6.695   5.060  14.808 -0.8579  1.6315 -0.5061
11531TIP3   OH256007   5.431   6.376  12.436  0.5651  0.0943  0.4532
11531TIP3    H156008   5.441   6.433  12.360 -0.4166 -1.4353 -0.8424
11531TIP3    H256009   5.511   6.324  12.438 -1.0529 -2.6127 -1.8951
11532TIP3   OH256010   2.736   5.544   2.699  0.1236 -1.2421 -0.3910
11532TIP3    H156011   2.812   5.556   2.641  0.9327 -0.5711  0.7991
11532TIP3    H256012   2.669   5.603   2.664 -0.0353 -2.1908 -1.7367
11533TIP3   OH256013   0.800   4.680  11.624  0.0201 -0.0152 -0.2939
11533TIP3    H156014   0.789   4.655  11.532 -1.1707  1.8469 -0.6717
11533TIP3    H256015   0.716   4.719  11.649  0.6088  0.2367  1.3620
11534TIP3   OH256016   5.630   0.200   1.849 -0.1136  0.7221  0.2251
11534TIP3    H156017   5.633   0.141   1.924 -1.5092 -0.8067 -0.8692
11534TIP3    H256018   5.691   0.161   1.786  0.4507  1.5493  0.2509
11535TIP3   OH256019   6.416   5.057   1.330 -0.2767  0.6183 -0.3933
11535TIP3    H156020   6.412   5.094   1.419 -1.1234 -1.6032  0.5385
11535TIP3    H256021   6.509   5.045   1.313 -0.1328  0.4145  0.4949
11536TIP3   OH256022   6.053   4.884   3.566 -0.5060  0.3986  0.2444
11536TIP3    H156023   5.991   4.852   3.501 -0.3172  1.3984 -0.4439
11536TIP3    H256024   6.121   4.817   3.570 -2.0425 -1.1434  1.6457
11537TIP3   OH256025   0.072   6.784  15.578 -0.3627  0.1716  0.2216
11537TIP3    H156026   0.132   6.756  15.647 -1.8536 -0.4878  1.2879
11537TIP3    H256027   0.099   6.734  15.501 -1.9198 -3.0606  1.6695
11538TIP3   OH256028   0.912   5.752  11.248  0.2419  0.1273  0.3252
11538TIP3    H156029   0.919   5.686  11.317  0.2178 -0.7661 -0.5156
11538TIP3    H256030   0.974   5.723  11.181  1.5602  1.9332  0.7136
11539TIP3   OH256031   3.106   6.062  12.813  0.2854 -1.0099 -0.3560
11539TIP3    H156032   3.120   6.004  12.738  1.8391  0.0870 -0.9378
11539TIP3    H256033   3.190   6.105  12.826 -0.8096  1.0543  0.1153
11540TIP3   OH256034   0.033   4.464  13.444  0.2672  0.1346 -0.1620
11540TIP3    H156035   0.040   4.466  13.540 -1.1611  0.6009 -0.0541
11540TIP3    H256036   0.044   4.371  13.422 -0.0335 -0.0638  0.5019
11541TIP3   OH256037   1.067   6.733  12.066 -0.2125 -0.8136 -0.5341
11541TIP3    H156038   1.028   6.798  12.007  0.4599  1.4044  1.3998
11541TIP3    H256039   1.159   6.730  12.040  0.3390  1.0340  1.1240
11542TIP3   OH256040   0.028   1.571  13.930 -1.1069  0.0169  0.1398
11542TIP3    H156041   0.080   1.612  13.860  0.4799  1.8926  2.3430
11542TIP3    H256042  -0.019   1.500  13.886  2.0588 -0.6907 -2.2974
11543TIP3   OH256043   2.805   3.320   2.011  0.0184 -0.8652 -0.3341
11543TIP3    H156044   2.826   3.292   1.921 -0.2389  0.2668 -0.7510
11543TIP3    H256045   2.770   3.242   2.053 -0.6529 -1.1862 -1.4756
11544TIP3   OH256046   4.621   0.041   5.121  0.1563 -0.2055 -0.3392
11544TIP3    H156047   4.671  -0.040   5.121 -0.8284 -0.8245 -0.0428
11544TIP3    H256048   4.684   0.109   5.143  0.2275 -1.3824  3.3251
11545TIP3   OH256049   1.479   5.825   2.979  0.3690 -0.1460 -0.1383
11545TIP3    H156050   1.394   5.796   3.012  0.8997 -0.2236  1.2283
11545TIP3    H256051   1.492   5.776   2.898  0.5439 -2.5527  1.3040
11546TIP3   OH256052   3.019   5.320   0.535  0.1464 -1.2791 -0.1840
11546TIP3    H156053   3.066   5.353   0.612 -0.6957  1.4189 -0.7429
11546TIP3    H256054   3.040   5.227   0.531  2.1181 -0.9627  1.9259
11547TIP3   OH256055   0.590   1.102   1.454 -0.3275 -0.4491 -0.5982
11547TIP3    H156056   0.640   1.171   1.498 -0.6781 -0.6408  0.1059
11547TIP3    H256057   0.526   1.150   1.401 -0.9286 -0.2348  0.3089
11548TIP3   OH256058   3.070   5.166  12.148 -0.2026 -0.6004 -0.4316
11548TIP3    H156059   2.979   5.166  12.117 -0.3440 -0.5068 -0.0311
11548TIP3    H256060   3.120   5.125  12.078 -0.4570 -0.0533 -0.9303
11549TIP3   OH256061   6.761   4.602  16.530 -0.1455  0.2902  0.8494
11549TIP3    H156062   6.690   4.659  16.560 -0.7812 -1.4900  2.8563
11549TIP3    H256063   6.720   4.544  16.466  0.3757  1.6359 -0.7628
11550TIP3   OH256064   2.045   0.211  16.476 -0.0084  0.2448 -0.0048
11550TIP3    H156065   2.110   0.281  16.475  1.9587 -1.5212 -1.4266
11550TIP3    H256066   2.086   0.140  16.525 -0.5870 -1.1169 -1.4008
11551TIP3   OH256067   5.548   0.572  16.651  0.3657 -0.6002 -0.2430
11551TIP3    H156068   5.555   0.540  16.561  0.3068 -1.0376 -0.0952
11551TIP3    H256069   5.484   0.513  16.692 -1.4856  1.1133 -0.5942
11552TIP3   OH256070   4.533   3.090  13.440  0.0874 -0.2401 -0.2990
11552TIP3    H156071   4.459   3.032  13.452 -0.0728  0.0552  0.1681
11552TIP3    H256072   4.507   3.149  13.368 -0.6312  0.6530  0.6799
11553TIP3   OH256073   5.070   5.773   2.633 -0.6854 -0.3431  0.1349
11553TIP3    H156074   5.080   5.687   2.675  1.4746  0.9430  2.3449
11553TIP3    H256075   5.023   5.825   2.698 -2.5033  0.0423 -1.4341
11554TIP3   OH256076   5.501   2.054  16.006 -0.2400  0.1791 -0.2812
11554TIP3    H156077   5.497   2.118  16.077  1.5821  0.5128 -0.4718
11554TIP3    H256078   5.484   1.970  16.050 -1.2729  0.6212  0.1851
11555TIP3   OH256079   4.005   6.354  11.964 -0.2636  0.4617 -0.4705
11555TIP3    H156080   4.059   6.315  11.895  1.4711 -0.0714  1.1334
11555TIP3    H256081   3.936   6.289  11.980  1.6502 -1.2829  1.0322
11556TIP3   OH256082   2.062   3.456  15.643  0.0186  0.2939 -0.2879
11556TIP3    H156083   2.078   3.408  15.723  2.4951 -0.5422 -1.2350
11556TIP3    H256084   2.079   3.393  15.573 -2.2801  0.9518 -1.4899
11557TIP3   OH256085   1.188   5.802  12.696 -0.5618 -0.6302 -0.2501
11557TIP3    H156086   1.280   5.794  12.723 -0.6089 -0.2471  0.0116
11557TIP3    H256087   1.190   5.865  12.624 -0.8088  0.4697  0.6915
11558TIP3   OH256088   6.429   6.464  16.020  0.1688 -0.0155 -0.3667
11558TIP3    H156089   6.391   6.393  15.968 -0.3418  1.3001 -1.8331
11558TIP3    H256090   6.408   6.441  16.111 -0.1956 -1.6137 -0.8387
11559TIP3   OH256091   4.886   4.614   6.644 -0.5802 -0.5091  0.0322
11559TIP3    H156092   4.797   4.577   6.638 -0.6522 -0.2898 -0.2725
11559TIP3    H256093   4.917   4.586   6.730 -0.5138 -1.5397 -0.3130
11560TIP3   OH256094   6.570   6.015   4.468 -0.1695  0.3675  0.7892
11560TIP3    H156095   6.553   6.051   4.555  0.3640  3.3471 -0.2938
11560TIP3    H256096   6.518   6.069   4.408 -0.8168 -1.8527 -0.7565
11561TIP3   OH256097   1.691   5.551   3.509 -0.1356 -0.0524  0.8043
11561TIP3    H156098   1.747   5.477   3.533  0.2552  0.3061  1.0204
11561TIP3    H256099   1.734   5.589   3.432 -1.0924 -0.8780 -0.1422
11562TIP3   OH256100   4.329   4.333  16.453 -0.4792  0.3491  0.4619
11562TIP3    H156101   4.262   4.312  16.519 -0.3656  0.2358  0.5419
11562TIP3    H256102   4.383   4.400  16.494 -0.3899  0.2564  0.4976
11563TIP3   OH256103   1.694   4.861   2.893 -0.1459 -0.8727  0.4097
11563TIP3    H156104   1.717   4.932   2.953  0.6487  0.5759 -1.5423
11563TIP3    H256105   1.672   4.788   2.950  2.9125 -0.2939  2.4572
11564TIP3   OH256106   0.854   1.962   2.962  1.3174 -0.0885  0.1911
11564TIP3    H156107   0.851   2.053   2.989 -3.0059  0.1656 -0.7841
11564TIP3    H256108   0.838   1.912   3.043  1.6592  0.0591  0.3540
11565TIP3   OH256109   4.068   4.048   2.716  0.2785  0.3675 -0.2157
11565TIP3    H156110   4.136   3.990   2.682  3.1773  3.7452 -0.5391
11565TIP3    H256111   4.001   4.048   2.647  0.5018 -2.0226 -0.4810
11566TIP3   OH256112   5.594   3.932   2.732  0.9344  0.2950 -0.0135
11566TIP3    H156113   5.656   3.860   2.740 -0.7078 -1.1097  0.2662
11566TIP3    H256114   5.530   3.918   2.801  1.9698  3.4618  1.6875
11567TIP3   OH256115   4.989   3.988   0.754  0.1867  0.3702 -0.0082
11567TIP3    H156116   5.067   3.934   0.770  0.0027 -0.5126 -1.9109
11567TIP3    H256117   4.991   4.054   0.822  2.2483 -0.0488  0.3716
11568TIP3   OH256118   6.515   2.505  17.224 -0.4637  0.1006  0.2208
11568TIP3    H156119   6.577   2.493  17.151 -1.7090  0.5206 -0.9218
11568TIP3    H256120   6.446   2.560  17.187 -0.5636  1.2212  2.0484
11569TIP3   OH256121   3.298   4.711   1.970  0.2995  0.0998  0.5261
11569TIP3    H156122   3.392   4.727   1.983  0.0219  1.3291  1.0643
11569TIP3    H256123   3.278   4.751   1.885  0.5046 -1.2196 -0.1567
11570TIP3   OH256124   0.236   0.760   3.120 -0.0630  0.2086  0.5025
11570TIP3    H156125   0.194   0.835   3.162 -0.0213  1.3215 -1.3794
11570TIP3    H256126   0.284   0.798   3.047  0.9281 -1.5329  0.2361
11571TIP3   OH256127   2.968   3.536   0.096  0.5684  0.1786  0.1565
11571TIP3    H156128   2.916   3.475   0.044  1.6017 -0.2468 -0.3849
11571TIP3    H256129   2.955   3.621   0.052 -0.7105  0.3350  0.7979
11572TIP3   OH256130   1.809   1.646   3.529  0.0384 -0.1278 -0.4211
11572TIP3    H156131   1.815   1.741   3.515 -2.4025 -0.0195 -0.9691
11572TIP3    H256132   1.878   1.627   3.593 -0.6631  2.3511  1.1756
11573TIP3   OH256133   5.289   1.433   0.596 -0.1423  0.2338  0.7071
11573TIP3    H156134   5.243   1.517   0.600 -0.9393 -0.1675  0.2014
11573TIP3    H256135   5.257   1.393   0.515  1.2994  0.0565  0.2199
11574TIP3   OH256136   4.402   2.186  11.040  0.7825  0.1449  0.3694
11574TIP3    H156137   4.371   2.240  10.968 -0.8746 -0.0589  0.9056
11574TIP3    H256138   4.461   2.123  10.999 -0.7534 -0.4736 -0.9347
11575TIP3   OH256139   3.657   6.774  12.726 -0.0903  0.0606  0.7728
11575TIP3    H156140   3.604   6.769  12.646  0.5760  0.4197  0.3132
11575TIP3    H256141   3.688   6.864  12.729  0.0445 -0.0031  1.3430
11576TIP3   OH256142   5.484   0.667   1.539 -0.0031 -0.0142 -0.6573
11576TIP3    H156143   5.431   0.619   1.603 -0.8801 -0.2068 -1.5222
11576TIP3    H256144   5.552   0.710   1.592 -0.9217  0.1111  0.4427
11577TIP3   OH256145   5.199   6.116  11.446  0.4530  0.3104  0.1372
11577TIP3    H156146   5.208   6.208  11.471  0.5444  0.1132  0.8572
11577TIP3    H256147   5.109   6.109  11.415  1.1424  1.1410 -2.1363
11578TIP3   OH256148   0.594   5.017   5.268 -0.2801 -0.3114 -0.5731
11578TIP3    H156149   0.620   5.070   5.344  0.4586  0.7824 -1.5767
11578TIP3    H256150   0.502   4.996   5.284 -0.1723  0.0396  0.5514
11579TIP3   OH256151   2.310   6.316   3.386  0.0974  0.2074 -0.9856
11579TIP3    H156152   2.272   6.393   3.344  1.0820  1.1202 -0.2134
11579TIP3    H256153   2.386   6.294   3.332 -0.9964 -1.0858 -2.0201
11580TIP3   OH256154   2.359   3.714   5.892  0.1248 -0.8717 -0.1981
11580TIP3    H156155   2.403   3.701   5.976  0.9936 -0.3485 -0.5724
11580TIP3    H256156   2.266   3.719   5.915  0.1603 -2.8058  0.5043
11581TIP3   OH256157   3.134   6.424   1.014  0.0079 -0.2357  0.0757
11581TIP3    H156158   3.158   6.394   0.927  3.7256  1.2673  0.4619
11581TIP3    H256159   3.204   6.390   1.071  0.7288  3.4495  1.5289
11582TIP3   OH256160   1.101   0.143  13.373  0.2175 -0.6720  0.5450
11582TIP3    H156161   1.078   0.201  13.445 -0.1026  0.5150 -0.4904
11582TIP3    H256162   1.025   0.086  13.363 -0.1803 -0.1375  0.4683
11583TIP3   OH256163   0.035   4.531   6.697  0.3133 -0.1666 -0.0094
11583TIP3    H156164  -0.011   4.499   6.774  1.4151 -0.0564  0.7010
11583TIP3    H256165   0.126   4.504   6.709  0.7990  1.1452 -0.5441
11584TIP3   OH256166   2.773   0.293   4.194 -0.3482 -0.0369 -0.2177
11584TIP3    H156167   2.725   0.312   4.113 -1.0247  1.6585  0.5519
11584TIP3    H256168   2.843   0.358   4.195  0.7653 -1.2346 -0.3460
11585TIP3   OH256169   6.220   3.711  13.201 -0.3021  0.6632 -0.1073
11585TIP3    H156170   6.142   3.691  13.150 -0.9073  1.1824  0.6035
11585TIP3    H256171   6.213   3.804  13.221 -0.4460  0.3199  1.5239
11586TIP3   OH256172   4.647   1.957   2.324  0.0511  0.4087 -0.7296
11586TIP3    H156173   4.729   1.975   2.370  1.2936  0.7405 -2.9859
11586TIP3    H256174   4.621   1.870   2.354  1.4813  0.1082 -0.3152
11587TIP3   OH256175   5.873   0.330   6.245  1.2911 -0.7465  0.3970
11587TIP3    H156176   5.937   0.401   6.237  3.2077 -2.6456 -1.9089
11587TIP3    H256177   5.789   0.371   6.227  2.2379  1.1448  0.1831
11588TIP3   OH256178   6.139   3.284   5.210 -0.5488 -0.5226  0.6992
11588TIP3    H156179   6.079   3.234   5.266 -1.2270 -1.1405 -0.5435
11588TIP3    H256180   6.093   3.367   5.195  0.2451  0.1926  2.1574
11589TIP3   OH256181   2.529   2.414   6.014  0.1326  0.1006  0.3400
11589TIP3    H156182   2.569   2.394   6.098  0.6467  1.1290  0.3588
11589TIP3    H256183   2.457   2.473   6.034  0.6446  0.8489  0.0105
11590TIP3   OH256184   1.709   4.870   0.954  0.3333 -0.2178 -0.4294
11590TIP3    H156185   1.748   4.854   1.040  0.6466 -1.6124 -0.8309
11590TIP3    H256186   1.783   4.899   0.900  0.3917 -0.6519 -0.5840
11591TIP3   OH256187   1.314   4.232  14.129 -0.1566 -0.2950 -0.0026
11591TIP3    H156188   1.390   4.289  14.124  0.0410 -0.4952  0.6620
11591TIP3    H256189   1.253   4.278  14.186  0.3243 -1.1041  1.1823
11592TIP3   OH256190   3.056   0.491   1.111  0.5841  0.0965  0.0188
11592TIP3    H156191   3.129   0.513   1.169  0.2876  0.2374  0.3370
11592TIP3    H256192   2.992   0.559   1.126  1.3184  1.2621 -1.9435
11593TIP3   OH256193   5.468   0.641   6.340 -0.1202 -0.1846 -0.0893
11593TIP3    H156194   5.425   0.647   6.425 -0.3641 -0.1148 -0.2166
11593TIP3    H256195   5.397   0.651   6.277  0.1117  0.1222 -0.3003
11594TIP3   OH256196   5.389   4.501   3.835 -0.2197  0.3152 -0.4663
11594TIP3    H156197   5.435   4.417   3.822  0.5448  0.7155 -0.4046
11594TIP3    H256198   5.411   4.551   3.756 -0.6293  0.4753 -0.4747
11595TIP3   OH256199   4.566   4.083  13.896  0.6406  0.6715 -0.1621
11595TIP3    H156200   4.636   4.050  13.953 -0.3884  1.6343  1.6916
11595TIP3    H256201   4.603   4.077  13.808  1.7093 -2.2383  0.4219
11596TIP3   OH256202   0.076   5.552  15.417 -0.4440  0.1528  0.4841
11596TIP3    H156203   0.037   5.631  15.378 -1.0224 -0.3443  0.0458
11596TIP3    H256204   0.166   5.577  15.437 -0.0814  0.3404 -1.3700
11597TIP3   OH256205   5.347   4.843  14.996 -0.5022  0.5497 -0.3092
11597TIP3    H156206   5.286   4.777  14.963 -0.0793 -1.3479  2.4923
11597TIP3    H256207   5.430   4.823  14.952 -0.4712 -0.5918  0.2448
11598TIP3   OH256208   6.645   4.891  13.702  0.1357  0.3059 -0.1642
11598TIP3    H156209   6.595   4.884  13.783  0.5633  1.5115  0.2005
11598TIP3    H256210   6.590   4.943  13.643  0.3872  0.5051 -0.2211
11599TIP3   OH256211   1.932   4.812   4.981 -0.5285  0.0449 -0.3825
11599TIP3    H156212   1.867   4.881   4.966 -0.0617  0.5628 -0.0689
11599TIP3    H256213   1.977   4.803   4.897 -0.4046  0.3180 -0.3459
11600TIP3   OH256214   3.752   2.383   4.100  0.3013  0.0864 -0.0322
11600TIP3    H156215   3.701   2.441   4.156 -2.5777 -1.5437 -0.8496
11600TIP3    H256216   3.722   2.403   4.011  0.8692 -1.1021 -0.4977
11601TIP3   OH256217   4.245   3.850  14.896  0.2904  0.8395 -0.0056
11601TIP3    H156218   4.165   3.898  14.875  0.1837  0.2924 -0.8971
11601TIP3    H256219   4.248   3.779  14.831  0.5371 -0.2392  1.1644
11602TIP3   OH256220   6.172   0.018   2.694  0.4720 -0.1538  0.6349
11602TIP3    H156221   6.222   0.093   2.662 -1.1888 -0.0924 -1.9428
11602TIP3    H256222   6.218  -0.058   2.659 -1.2868 -0.0915 -1.8656
11603TIP3   OH256223   3.106   2.854  12.216 -0.4290  0.0755  0.8314
11603TIP3    H156224   3.017   2.889  12.209 -0.3374  0.1336 -0.1627
11603TIP3    H256225   3.160   2.919  12.171  0.0713 -0.1120  1.1664
11604TIP3   OH256226   2.409   1.568  12.568 -0.2741  0.2621  0.1391
11604TIP3    H156227   2.387   1.660  12.554  0.4535  0.4817  0.3878
11604TIP3    H256228   2.335   1.533  12.619  0.1136  1.0794  1.2989
11605TIP3   OH256229   4.197   1.446  12.512 -0.5516  0.0938  0.7055
11605TIP3    H156230   4.132   1.396  12.462 -0.3178  0.6440 -0.1658
11605TIP3    H256231   4.278   1.396  12.503 -0.4399  0.3435  0.2637
11606TIP3   OH256232   2.443   5.295   6.315 -0.5141 -0.3690  0.7374
11606TIP3    H156233   2.504   5.239   6.267  0.6923  1.3141  0.2563
11606TIP3    H256234   2.490   5.377   6.326 -2.2802  0.5781  1.3745
11607TIP3   OH256235   5.872   2.738  11.771  0.0019  0.0660  0.5530
11607TIP3    H156236   5.894   2.658  11.722 -0.0627  0.9596 -0.9707
11607TIP3    H256237   5.849   2.707  11.858 -3.1755 -1.9466 -0.8845
11608TIP3   OH256238   3.660   5.028   2.220 -0.0807  1.0736  0.1924
11608TIP3    H156239   3.589   5.090   2.239 -0.8312  0.3562 -0.2356
11608TIP3    H256240   3.714   5.073   2.154 -1.9419  0.3635 -1.8927
11609TIP3   OH256241   0.210   0.373   1.543 -0.5071 -0.0204 -0.0709
11609TIP3    H156242   0.170   0.457   1.565 -0.4810  0.0520 -0.2963
11609TIP3    H256243   0.150   0.333   1.480 -0.7252 -0.3520  0.3465
11610TIP3   OH256244   6.578   6.232   5.742 -0.0606 -0.0609 -0.0542
11610TIP3    H156245   6.518   6.248   5.670  1.1553  1.4622 -0.7577
11610TIP3    H256246   6.646   6.175   5.705 -0.5918 -1.0751  0.5029
11611TIP3   OH256247   1.376   3.471  11.198 -0.1717 -0.3799 -0.1188
11611TIP3    H156248   1.317   3.531  11.153 -0.8039  0.2115  1.4671
11611TIP3    H256249   1.373   3.497  11.290  1.0569 -1.5919  0.3006
11612TIP3   OH256250   5.975   4.955   1.325 -0.4905 -0.2910 -0.3510
11612TIP3    H156251   6.061   4.927   1.296 -0.7902 -1.2871 -0.3192
11612TIP3    H256252   5.951   4.892   1.394 -1.3350 -0.1798 -0.5293
11613TIP3   OH256253   6.458   0.105   1.478  0.1066 -0.2037  0.6979
11613TIP3    H156254   6.531   0.161   1.451 -0.7516  0.2668 -0.7159
11613TIP3    H256255   6.400   0.164   1.527  0.7116 -0.5976  1.8973
11614TIP3   OH256256   2.363   4.883   3.374  0.0341  0.2857 -0.6686
11614TIP3    H156257   2.283   4.877   3.427 -0.8810  0.3325 -1.9944
11614TIP3    H256258   2.425   4.931   3.428 -0.5065 -0.6504  0.7895
11615TIP3   OH256259   1.788   5.269   0.436  0.2826  0.3939 -0.0436
11615TIP3    H156260   1.820   5.355   0.465 -0.9814  0.2036  1.9780
11615TIP3    H256261   1.860   5.209   0.455  0.1197  0.5604  1.1325
11616TIP3   OH256262   6.781   1.716   3.475 -0.2213  0.1171 -0.0358
11616TIP3    H156263   6.721   1.716   3.400 -1.4405 -0.4966  0.9137
11616TIP3    H256264   6.847   1.652   3.452 -1.9228 -1.8532  0.4298
11617TIP3   OH256265   3.214   1.233   4.505  0.5429  0.1604  0.3458
11617TIP3    H156266   3.191   1.295   4.574  1.2119  0.6085  0.1712
11617TIP3    H256267   3.143   1.169   4.506 -0.4449  1.2301  0.1574
11618TIP3   OH256268   4.060   4.607   4.430 -0.3952  0.5730  0.5635
11618TIP3    H156269   4.084   4.590   4.521 -0.0575 -0.0007  0.3649
11618TIP3    H256270   4.040   4.521   4.393  1.8231  0.5176 -0.5743
11619TIP3   OH256271   1.033   1.743  14.596 -0.2592  0.2812  0.2592
11619TIP3    H156272   1.110   1.798  14.611 -1.0155  1.6615 -0.8491
11619TIP3    H256273   1.047   1.666  14.653  1.6763  0.7470  0.4393
11620TIP3   OH256274   3.073   5.356  13.197  0.2235 -0.1630 -0.1255
11620TIP3    H156275   2.988   5.353  13.153 -0.5022 -1.6463  1.3055
11620TIP3    H256276   3.064   5.425  13.263  0.0505 -0.4695  0.1735
11621TIP3   OH256277   5.730   5.557  12.641  0.2762  0.5380 -0.6760
11621TIP3    H156278   5.817   5.522  12.620 -0.1660 -1.2007  0.3171
11621TIP3    H256279   5.693   5.581  12.556  0.7996 -0.9359 -1.3314
11622TIP3   OH256280   0.955   0.661   4.177 -0.5862  0.4920  0.6102
11622TIP3    H156281   1.015   0.624   4.243 -2.1632 -0.4994  1.5130
11622TIP3    H256282   0.995   0.745   4.153  1.2415 -0.2229  1.0882
11623TIP3   OH256283   4.714   4.101   4.101 -0.2107  0.1872 -0.2154
11623TIP3    H156284   4.802   4.123   4.132 -0.7156  1.7674  0.1581
11623TIP3    H256285   4.723   4.013   4.064  0.7151 -1.2427  3.2033
11624TIP3   OH256286   1.144   5.478   0.259  0.0452  0.4612 -0.1896
11624TIP3    H156287   1.134   5.567   0.294  1.6978  0.1505  1.1391
11624TIP3    H256288   1.055   5.444   0.254 -0.6333  2.2758 -0.9361
11625TIP3   OH256289   6.759   1.109   4.362 -0.1258 -0.2872  0.1711
11625TIP3    H156290   6.736   1.071   4.447 -0.5637  0.4699  0.3916
11625TIP3    H256291   6.692   1.176   4.347  0.2459 -0.0739 -0.5369
11626TIP3   OH256292   1.740   4.895  12.262  0.7834 -0.1106 -0.1154
11626TIP3    H156293   1.779   4.943  12.189  2.6360 -0.1907  0.7861
11626TIP3    H256294   1.678   4.835  12.221  1.6974 -0.0658 -1.6138
11627TIP3   OH256295   1.169   4.020   0.241 -0.7107  0.1873  0.0502
11627TIP3    H156296   1.203   4.010   0.330 -0.9810  1.2141  0.2767
11627TIP3    H256297   1.150   4.114   0.233 -2.7702 -0.2335 -0.3303
11628TIP3   OH256298   4.388   2.278  10.766 -0.4305  0.4851  0.8129
11628TIP3    H156299   4.450   2.207  10.748  0.0747  1.5563 -1.9574
11628TIP3    H256300   4.440   2.358  10.762 -1.1941  1.1005  2.8572
11629TIP3   OH256301   0.622   5.230  16.357  0.0696  0.2271  0.1938
11629TIP3    H156302   0.637   5.313  16.402  1.3531  0.2409 -0.2496
11629TIP3    H256303   0.709   5.193  16.344 -0.2464  0.2381 -2.2896
11630TIP3   OH256304   1.242   4.626  12.056  0.1471  0.7209 -0.1693
11630TIP3    H156305   1.202   4.617  12.143 -0.8860 -0.5036 -0.7624
11630TIP3    H256306   1.319   4.682  12.071  1.4977 -1.6218  2.0056
11631TIP3   OH256307   3.715   3.086  10.753 -0.8824 -0.1188  0.2882
11631TIP3    H156308   3.759   3.013  10.709 -2.5874 -0.5312 -0.7992
11631TIP3    H256309   3.785   3.148  10.772  0.0842 -0.4484 -2.0012
11632TIP3   OH256310   0.108   2.894   3.913 -0.0474  0.1818  0.7195
11632TIP3    H156311   0.028   2.843   3.919  1.2518 -2.0407 -0.0464
11632TIP3    H256312   0.144   2.893   4.002 -0.5330  0.6382  0.9236
11633TIP3   OH256313   6.194   0.864   6.505 -0.4651 -1.4490  0.1163
11633TIP3    H156314   6.102   0.870   6.530  0.0347  3.1447  1.2119
11633TIP3    H256315   6.239   0.837   6.585 -0.3099  1.2867  0.9865
11634TIP3   OH256316   2.986   1.899   5.594 -0.3299 -0.1414 -0.2765
11634TIP3    H156317   2.966   1.991   5.614  3.0755  1.4093 -3.3932
11634TIP3    H256318   2.986   1.896   5.498  2.6957 -2.6431 -0.2489
11635TIP3   OH256319   5.165   3.631   3.085  0.1945 -0.1662  0.2272
11635TIP3    H156320   5.121   3.564   3.032  0.6564 -0.5749  0.3541
11635TIP3    H256321   5.148   3.605   3.175 -0.0212  0.1531  0.2794
11636TIP3   OH256322   4.776   0.150   2.296  0.4181  0.7131  0.2669
11636TIP3    H156323   4.783   0.113   2.384  2.1113  0.9478  0.2359
11636TIP3    H256324   4.844   0.106   2.246 -0.8920  0.1766 -1.0899
11637TIP3   OH256325   4.771   5.473   4.243  0.4570 -0.4598  0.1951
11637TIP3    H156326   4.714   5.403   4.276 -0.0475 -0.6645 -1.0723
11637TIP3    H256327   4.717   5.552   4.247  1.2214 -0.0028  2.1914
11638TIP3   OH256328   2.920   5.932  14.450  0.2325  0.2041  0.1365
11638TIP3    H156329   2.864   5.856  14.461 -0.4154  0.7925  0.9703
11638TIP3    H256330   3.009   5.897  14.447 -0.1019 -0.6228 -0.0027
11639TIP3   OH256331   5.424   4.672   3.604  0.2232  0.3480  0.4813
11639TIP3    H156332   5.398   4.760   3.576  0.4548  0.8381  1.7630
11639TIP3    H256333   5.407   4.616   3.528 -1.3852  1.2323  0.1771
11640TIP3   OH256334   0.643   3.861   5.469 -0.0255 -0.5501  0.4219
11640TIP3    H156335   0.598   3.937   5.505  0.3728 -0.0930 -0.0266
11640TIP3    H256336   0.583   3.828   5.402  0.5470  0.4218 -0.6010
11641TIP3   OH256337   2.428   4.076   1.344  0.2802  0.3151  0.4780
11641TIP3    H156338   2.489   4.020   1.296 -0.4060 -0.8126  0.8886
11641TIP3    H256339   2.373   4.114   1.276 -0.4998 -1.0505  0.3170
11642TIP3   OH256340   1.242   2.867   4.788  0.2348  0.0739  0.2170
11642TIP3    H156341   1.151   2.880   4.759  1.2895  2.5371 -2.2711
11642TIP3    H256342   1.274   2.956   4.804  2.4984 -0.7054  0.1038
11643TIP3   OH256343   4.501   0.407   2.425 -0.2773  0.0263  0.1738
11643TIP3    H156344   4.505   0.495   2.389 -1.8452 -0.4129 -1.1038
11643TIP3    H256345   4.419   0.371   2.393  0.9447 -2.3774 -0.3844
11644TIP3   OH256346   4.383   1.429   5.694  0.8343  0.4035 -0.0070
11644TIP3    H156347   4.375   1.395   5.784  0.8402  0.5938  0.0656
11644TIP3    H256348   4.443   1.369   5.651  1.5765  0.8563  0.3907
11645TIP3   OH256349   2.816   1.798  13.646  0.2095 -0.6887 -0.2434
11645TIP3    H156350   2.845   1.740  13.575 -1.6186 -1.2251 -0.5830
11645TIP3    H256351   2.805   1.740  13.721  2.0803 -0.1314  0.4738
11646TIP3   OH256352   0.659   6.569  12.732  0.4240  0.1094  0.1184
11646TIP3    H156353   0.628   6.483  12.702 -0.8147  0.4969  0.2722
11646TIP3    H256354   0.659   6.624  12.654  2.5818 -0.4049 -0.2660
11647TIP3   OH256355   3.486   2.645  15.388 -0.0906 -0.1062 -0.5412
11647TIP3    H156356   3.549   2.657  15.460  0.1079  0.0865 -0.7453
11647TIP3    H256357   3.509   2.559  15.351 -2.7966 -2.1209  2.1960
11648TIP3   OH256358   2.232   2.891   1.268 -0.3462 -0.3729  0.7045
11648TIP3    H156359   2.157   2.896   1.208 -1.2671  0.7834  1.9212
11648TIP3    H256360   2.213   2.956   1.336  1.8706  0.0995  0.9273
11649TIP3   OH256361   3.097   1.162   5.584  0.0976  0.0218  0.6778
11649TIP3    H156362   3.150   1.205   5.651  1.9073  2.3076 -2.0758
11649TIP3    H256363   3.115   1.069   5.594  2.0725  0.5102  1.9225
11650TIP3   OH256364   4.690   0.595   1.761 -0.5966 -0.1098  0.0629
11650TIP3    H156365   4.608   0.595   1.711  0.0498 -1.2930 -1.0269
11650TIP3    H256366   4.690   0.511   1.807 -0.0089 -0.0919  0.0977
11651TIP3   OH256367   4.575   4.153   0.378  0.4103 -0.1595 -0.1985
11651TIP3    H156368   4.516   4.228   0.374 -1.5723 -1.6828  0.1949
11651TIP3    H256369   4.519   4.078   0.400  2.3875 -1.7271 -0.3277
11652TIP3   OH256370   3.362   1.182  12.852  0.1723  0.1333 -0.2140
11652TIP3    H156371   3.446   1.157  12.814 -0.0448  0.1960 -0.7369
11652TIP3    H256372   3.319   1.099  12.873  1.5975  0.0958  2.8181
11653TIP3   OH256373   3.559   3.916   3.146  0.0310 -0.3185 -0.4806
11653TIP3    H156374   3.496   3.844   3.141  0.4499 -0.7082 -0.2219
11653TIP3    H256375   3.644   3.872   3.157  0.3310  0.2040 -0.7178
11654TIP3   OH256376   2.692   0.227  13.759  0.6771 -0.0444 -0.2170
11654TIP3    H156377   2.758   0.294  13.777  0.5027 -0.4298  1.9683
11654TIP3    H256378   2.741   0.145  13.754  0.4591 -0.2241  0.6051
11655TIP3   OH256379   4.175   5.246  12.283  0.6922 -0.0764  0.0794
11655TIP3    H156380   4.103   5.182  12.288  1.7398 -1.2433  0.3794
11655TIP3    H256381   4.144   5.320  12.335 -0.2356 -0.6257  0.3351
11656TIP3   OH256382   0.119   1.945  14.016 -0.2521  0.6956  0.0497
11656TIP3    H156383   0.028   1.918  13.999  0.6257 -2.8098  0.6064
11656TIP3    H256384   0.124   1.956  14.111  0.2497 -0.5349  0.1740
11657TIP3   OH256385   2.965   3.199  15.408 -0.1730  0.0758 -0.2064
11657TIP3    H156386   2.901   3.257  15.367  1.2480  1.2073 -0.8634
11657TIP3    H256387   3.005   3.251  15.478  2.0904  0.3946 -1.6839
11658TIP3   OH256388   5.580   1.315  17.004 -0.5437 -0.3379  0.5699
11658TIP3    H156389   5.569   1.307  17.099 -0.4645  1.8600  0.8032
11658TIP3    H256390   5.506   1.371  16.977  0.9621  1.3183 -0.2361
11659TIP3   OH256391   3.103   6.698   5.332 -0.0369  0.0710 -0.1022
11659TIP3    H156392   3.041   6.628   5.313  0.2213 -0.3266  0.4926
11659TIP3    H256393   3.086   6.719   5.424  0.0282  0.6495 -0.2229
11660TIP3   OH256394   0.221   5.592  14.617 -0.1369 -0.0207 -0.0090
11660TIP3    H156395   0.301   5.549  14.587 -0.6678  0.1008 -1.7008
11660TIP3    H256396   0.250   5.674  14.655  0.5383  0.1842 -0.9357
11661TIP3   OH256397   6.353   5.555   5.241 -0.1973 -0.0072  0.0382
11661TIP3    H156398   6.400   5.631   5.208  0.8553 -1.5278 -2.0628
11661TIP3    H256399   6.288   5.536   5.173 -2.5060  0.7866  1.9293
11662TIP3   OH256400   4.465   2.885   5.372 -0.2233  0.3010  0.1831
11662TIP3    H156401   4.512   2.809   5.407  1.0691  1.3034  0.6424
11662TIP3    H256402   4.481   2.880   5.277  1.2900  0.9247  0.3825
11663TIP3   OH256403   3.816   5.034   2.776 -0.2998 -0.1562 -0.5631
11663TIP3    H156404   3.871   5.066   2.848 -0.1090 -0.4040 -0.5966
11663TIP3    H256405   3.856   4.950   2.752  0.4664  0.5636 -1.8635
11664TIP3   OH256406   5.235   3.662  11.752  0.4824  0.1310 -0.5676
11664TIP3    H156407   5.294   3.732  11.781  0.4893 -0.2136  0.2426
11664TIP3    H256408   5.148   3.702  11.756  0.5528  0.3064 -0.7553
11665TIP3   OH256409   3.884   4.495  14.187 -0.2129 -0.1147  0.3918
11665TIP3    H156410   3.940   4.437  14.135 -1.2406 -1.1042  0.3778
11665TIP3    H256411   3.806   4.508  14.134 -0.3857  0.5475  0.7981
11666TIP3   OH256412   1.964   3.341   0.688 -0.1969  0.2367  0.4772
11666TIP3    H156413   2.017   3.415   0.719  0.2750  0.1944 -0.2093
11666TIP3    H256414   1.935   3.368   0.601 -1.2695  0.2345  0.8333
11667TIP3   OH256415   2.006   4.934   0.918 -0.0391 -0.7445  0.7822
11667TIP3    H156416   1.953   5.003   0.878 -0.6331 -0.5619  1.8836
11667TIP3    H256417   2.084   4.979   0.950 -0.2046 -0.6609  1.0691
11668TIP3   OH256418   1.314   5.768   4.818  0.2133  0.2659 -0.0016
11668TIP3    H156419   1.322   5.831   4.890 -0.0977  1.1794 -0.7488
11668TIP3    H256420   1.397   5.773   4.772  0.0272  0.4701 -0.3236
11669TIP3   OH256421   6.008   2.202   1.317 -0.0537  0.2179 -0.3627
11669TIP3    H156422   5.969   2.118   1.344  1.3705  0.8692  4.2281
11669TIP3    H256423   5.934   2.261   1.308 -0.7298 -0.3257  1.3346
11670TIP3   OH256424   4.745   4.938  11.559 -0.1162  0.1875 -0.0349
11670TIP3    H156425   4.659   4.932  11.517 -0.7259 -0.8130  1.3286
11670TIP3    H256426   4.733   5.000  11.631  0.2518 -0.0992  0.2762
11671TIP3   OH256427   0.346   0.511  11.660  0.7119  0.0662 -0.3812
11671TIP3    H156428   0.252   0.526  11.647  0.3833 -1.1734  0.4704
11671TIP3    H256429   0.375   0.470  11.578  0.0407 -1.5829  0.1878
11672TIP3   OH256430   5.974   4.327   2.712 -0.3257  0.1664 -0.3289
11672TIP3    H156431   5.985   4.327   2.807  0.1013  0.6977 -0.3716
11672TIP3    H256432   5.924   4.407   2.694  0.4498  0.5872 -0.6360
11673TIP3   OH256433   4.294   4.102   1.588  0.0413  0.0816 -0.3319
11673TIP3    H156434   4.284   4.062   1.675  0.0045  0.6949 -0.0499
11673TIP3    H256435   4.205   4.100   1.551  0.1416 -0.6064 -0.5504
11674TIP3   OH256436   1.416   3.631   2.864 -0.2536  0.1959 -0.5554
11674TIP3    H156437   1.455   3.556   2.820 -0.3190  0.6061 -1.3338
11674TIP3    H256438   1.337   3.650   2.813 -0.7999  0.1343  0.2713
11675TIP3   OH256439   2.216   1.409   4.014 -0.3102 -0.0100  0.6441
11675TIP3    H156440   2.264   1.490   3.996 -1.5325  0.3734 -1.0769
11675TIP3    H256441   2.281   1.350   4.052  0.5695  1.8097  2.0116
11676TIP3   OH256442   6.232   2.932  12.025  0.0662  0.0907 -0.0543
11676TIP3    H156443   6.292   2.880  12.079 -0.9917 -1.5618 -0.4377
11676TIP3    H256444   6.288   2.993  11.978  1.1268  0.7785  2.0392
11677TIP3   OH256445   6.332   3.920  13.868 -0.3162  0.3541 -0.5073
11677TIP3    H156446   6.386   3.848  13.899  0.2692  1.1585  0.3731
11677TIP3    H256447   6.250   3.912  13.917 -0.9562 -0.7780 -1.7349
11678TIP3   OH256448   2.700   2.031   4.401 -0.5418  0.3619  0.1780
11678TIP3    H156449   2.607   2.007   4.398 -0.6384  0.6348  0.8748
11678TIP3    H256450   2.735   1.979   4.474 -0.6100  1.8322  1.2815
11679TIP3   OH256451   3.466   1.328   2.135 -0.5056  0.0178 -0.3750
11679TIP3    H156452   3.383   1.359   2.172  0.0371  2.3200 -1.0059
11679TIP3    H256453   3.441   1.255   2.078 -2.0089  0.2591 -0.0494
11680TIP3   OH256454   1.043   1.908   3.650  0.1474 -0.4316 -0.0246
11680TIP3    H156455   1.080   1.988   3.614 -0.2920  0.1004  0.7021
11680TIP3    H256456   1.050   1.844   3.579 -0.7593  0.6186 -1.0646
11681TIP3   OH256457   2.008   0.125   1.925 -0.9363  0.1238  0.0461
11681TIP3    H156458   2.010   0.194   1.858 -1.8885 -1.9581 -2.1767
11681TIP3    H256459   2.088   0.140   1.976 -0.4943  2.1280 -1.1450
11682TIP3   OH256460   5.052   4.636   0.774  0.5069  0.5130 -0.1588
11682TIP3    H156461   5.033   4.633   0.681  1.8645 -0.1269 -0.4444
11682TIP3    H256462   4.986   4.580   0.814  0.2863  0.3064 -0.8094
11683TIP3   OH256463   3.496   1.986  14.693  0.2913 -1.1913 -0.2957
11683TIP3    H156464   3.567   2.039  14.730 -0.9421  0.5766 -0.4482
11683TIP3    H256465   3.423   1.999  14.753 -0.3411 -1.8813 -0.9181
11684TIP3   OH256466   4.622   5.653   3.482 -0.2646 -0.6608  0.5120
11684TIP3    H156467   4.676   5.700   3.419 -0.0532 -1.5405  0.0243
11684TIP3    H256468   4.684   5.606   3.538 -0.5174 -3.0786 -1.1446
11685TIP3   OH256469   1.884   1.574  11.989 -0.0061 -0.2031 -0.4794
11685TIP3    H156470   1.863   1.583  12.081  0.0207 -0.8867 -0.4024
11685TIP3    H256471   1.806   1.605  11.943 -0.1970 -0.2916 -0.2193
11686TIP3   OH256472   4.400   2.601  11.218 -0.0687  0.3745  0.0034
11686TIP3    H156473   4.436   2.666  11.158 -0.4443  2.1196  1.6065
11686TIP3    H256474   4.443   2.520  11.194 -0.0364  1.0635 -2.4481
11687TIP3   OH256475   2.602   3.140  11.478  0.0844 -1.0947 -0.2629
11687TIP3    H156476   2.684   3.144  11.429  0.4282 -2.5699  0.1719
11687TIP3    H256477   2.629   3.146  11.570 -0.3870 -0.5802 -0.1528
11688TIP3   OH256478   6.476   6.340   3.164 -0.0701 -0.2026 -0.0746
11688TIP3    H156479   6.568   6.351   3.141 -0.1561 -1.0791 -0.8643
11688TIP3    H256480   6.473   6.352   3.259  0.6756  0.9368 -0.1879
11689TIP3   OH256481   2.701   0.088   3.930 -0.1519  0.1625  0.2250
11689TIP3    H156482   2.706   0.143   3.852 -1.3304  0.1467  0.1395
11689TIP3    H256483   2.790   0.092   3.968  0.5686 -0.2674 -1.3902
11690TIP3   OH256484   5.483   4.430  14.769  0.5665  0.1639 -0.2171
11690TIP3    H156485   5.391   4.404  14.770  1.0704 -1.6147  1.0562
11690TIP3    H256486   5.505   4.436  14.676 -0.8990  0.9221 -0.5381
11691TIP3   OH256487   6.004   5.615   1.182  0.3901 -0.1426  0.3805
11691TIP3    H156488   5.985   5.673   1.108 -0.7622 -0.8114  0.1457
11691TIP3    H256489   5.987   5.528   1.148 -3.9361 -0.2466  2.5587
11692TIP3   OH256490   4.083   4.694   1.743  0.0829  0.1439  0.4534
11692TIP3    H156491   4.153   4.671   1.803  1.7841  0.8569 -1.1889
11692TIP3    H256492   4.114   4.773   1.699 -0.1783 -1.4617 -2.7701
11693TIP3   OH256493   4.261   3.682  12.151  0.0643 -0.1525  0.0201
11693TIP3    H156494   4.300   3.759  12.109  0.8806 -1.0716 -0.9350
11693TIP3    H256495   4.335   3.638  12.192  0.4177 -2.9338 -3.3978
11694TIP3   OH256496   2.783   3.428   5.048 -0.0165 -0.2640 -0.2213
11694TIP3    H156497   2.860   3.453   5.100  0.5803  0.4337 -1.4298
11694TIP3    H256498   2.730   3.376   5.108  1.1954 -0.3924  0.7580
11695TIP3   OH256499   5.025   0.019   4.177 -0.1677 -0.9179  0.2533
11695TIP3    H156500   5.088   0.057   4.239  0.0205  0.4671 -0.7623
11695TIP3    H256501   5.036  -0.075   4.186  1.7123 -0.6950  0.4449
11696TIP3   OH256502   2.890   4.490  12.786  0.1961  0.3454  0.5903
11696TIP3    H156503   2.966   4.542  12.811  0.3845 -0.2989  1.3748
11696TIP3    H256504   2.817   4.552  12.788  0.8068  1.1090 -0.8203
11697TIP3   OH256505   6.450   5.634   0.538 -0.1065  0.3289 -0.3592
11697TIP3    H156506   6.444   5.565   0.604  0.9457  1.2787  0.7598
11697TIP3    H256507   6.413   5.711   0.581  2.4070  1.4569 -0.1109
11698TIP3   OH256508   4.292   2.653  15.709 -0.3155  0.4079  0.4787
11698TIP3    H156509   4.307   2.671  15.616 -2.6844 -1.9623 -0.4387
11698TIP3    H256510   4.345   2.575  15.727 -1.1237 -0.0954  0.6898
11699TIP3   OH256511   1.471   1.793  12.975 -0.3261  0.5360  0.4331
11699TIP3    H156512   1.539   1.832  13.030 -0.9618  0.3340  1.3748
11699TIP3    H256513   1.401   1.770  13.036 -1.4308  1.1551 -0.5825
11700TIP3   OH256514   6.192   0.073  12.202 -0.0893 -0.1951 -0.0088
11700TIP3    H156515   6.140  -0.007  12.189  0.6038 -0.6859  0.2191
11700TIP3    H256516   6.245   0.081  12.123  2.3186 -1.8298  1.3770
11701TIP3   OH256517   4.547   3.440  13.901  0.5641 -0.3030  0.1900
11701TIP3    H156518   4.534   3.352  13.937  1.9396 -0.4016  0.4688
11701TIP3    H256519   4.631   3.468  13.937  0.7601  0.5959 -0.9542
11702TIP3   OH256520   3.545   1.444   1.437 -0.1871  0.1278 -0.5251
11702TIP3    H156521   3.535   1.382   1.508 -1.9572  0.3137 -0.5880
11702TIP3    H256522   3.621   1.413   1.388  1.1219  0.0752  1.5025
11703TIP3   OH256523   0.812   1.921  13.924 -0.4826 -0.3080  0.4873
11703TIP3    H156524   0.820   1.920  13.828  0.9502  0.7188  0.5829
11703TIP3    H256525   0.804   2.013  13.947  1.1783 -0.3917  1.4911
11704TIP3   OH256526   3.652   2.665  17.201  0.3607  0.1490 -0.2332
11704TIP3    H156527   3.598   2.715  17.139  1.2307  1.2191 -0.1406
11704TIP3    H256528   3.594   2.595  17.231 -0.1325 -0.2897 -2.1205
11705TIP3   OH256529   4.573   2.067  14.319  0.3997  0.5822  0.1888
11705TIP3    H156530   4.663   2.044  14.340 -0.1432 -0.1277  1.8476
11705TIP3    H256531   4.563   2.157  14.349  0.7655  0.9392 -0.7260
11706TIP3   OH256532   3.560   6.737  13.287  0.5191  0.3757 -0.1011
11706TIP3    H156533   3.515   6.678  13.348 -2.1703  1.5372 -0.8741
11706TIP3    H256534   3.548   6.697  13.201  0.2053  1.1235 -0.4137
11707TIP3   OH256535   3.573   0.602  13.185 -0.4475  0.5154  0.0672
11707TIP3    H156536   3.646   0.556  13.227 -0.7239 -0.9897 -1.0443
11707TIP3    H256537   3.614   0.656  13.118 -0.3780 -1.0640 -1.2148
11708TIP3   OH256538   6.626   3.879  13.321  0.1651 -0.1061  0.0397
11708TIP3    H156539   6.539   3.890  13.358 -0.0455 -2.1220  0.1841
11708TIP3    H256540   6.612   3.843  13.234  0.9145 -3.5166  1.2609
11709TIP3   OH256541   0.152   6.131   3.541 -0.3102 -0.1628  0.1589
11709TIP3    H156542   0.189   6.043   3.532  0.7528  0.4117 -1.1665
11709TIP3    H256543   0.058   6.118   3.527  0.1387 -0.7412 -2.6959
11710TIP3   OH256544   3.111   4.968  10.716  0.1344 -0.4149 -0.6149
11710TIP3    H156545   3.122   4.982  10.622  0.2056  0.2011 -0.5145
11710TIP3    H256546   3.030   5.014  10.737  0.7295  0.4083 -0.1535
11711TIP3   OH256547   2.909   3.277   4.033  0.0220  0.2622  0.4215
11711TIP3    H156548   2.852   3.335   4.085 -1.3323 -0.4335 -0.2471
11711TIP3    H256549   2.929   3.328   3.955 -0.7095  0.0630  0.0937
11712TIP3   OH256550   0.292   0.171  16.959 -0.4234  0.0565  0.4423
11712TIP3    H156551   0.307   0.166  17.053 -0.1335 -0.5920  0.3603
11712TIP3    H256552   0.335   0.253  16.932  0.6714 -0.4497  0.6498
11713TIP3   OH256553   6.701   2.339   1.820  0.3145 -0.7132 -0.3350
11713TIP3    H156554   6.775   2.282   1.796 -0.9605 -1.9481 -1.4115
11713TIP3    H256555   6.707   2.413   1.759  0.8836 -0.5989 -0.1500
11714TIP3   OH256556   6.144   6.571   3.575  0.2177 -0.2663  0.8037
11714TIP3    H156557   6.075   6.599   3.636  1.8477  0.8614  2.1672
11714TIP3    H256558   6.146   6.640   3.509 -1.2348 -1.2579 -0.3064
11715TIP3   OH256559   6.656   2.794  14.460 -0.0831  0.1832  0.1846
11715TIP3    H156560   6.582   2.784  14.520  0.1154 -1.0392  0.2350
11715TIP3    H256561   6.710   2.862  14.501 -0.7159  0.4475  0.6024
11716TIP3   OH256562   6.150   5.894   6.322 -1.1416  0.1736  0.6995
11716TIP3    H156563   6.171   5.977   6.365 -2.4474  0.2663  1.1922
11716TIP3    H256564   6.204   5.893   6.243 -0.6118  1.1756  1.0393
11717TIP3   OH256565   5.619   5.588  16.663  0.2454 -0.7488  0.2038
11717TIP3    H156566   5.664   5.528  16.602  0.4157  0.1306 -0.5488
11717TIP3    H256567   5.536   5.607  16.620  0.4536  0.0374  0.1386
11718TIP3   OH256568   2.862   2.178   4.250  0.1265  0.0571 -0.6568
11718TIP3    H156569   2.895   2.229   4.324  1.1831  0.7008 -1.5595
11718TIP3    H256570   2.792   2.124   4.287  0.8712  0.1229  0.8798
11719TIP3   OH256571   0.076   3.462  14.246 -0.3281 -0.2260 -0.0368
11719TIP3    H156572   0.073   3.539  14.303  0.6137  0.0984 -0.4186
11719TIP3    H256573  -0.015   3.433  14.240 -0.5398  0.2094  0.9901
11720TIP3   OH256574   2.177   3.520   0.696 -0.3012  0.5700  0.3501
11720TIP3    H156575   2.191   3.583   0.767 -0.4773  0.6453  0.3188
11720TIP3    H256576   2.188   3.571   0.616  0.8040  0.2863  0.3177
11721TIP3   OH256577   4.107   6.171  13.012  0.8567  0.8015  0.1180
11721TIP3    H156578   4.044   6.240  13.033  0.0680  1.3345 -3.6001
11721TIP3    H256579   4.061   6.090  13.029  0.0210  1.2036 -0.1997
11722TIP3   OH256580   3.632   1.708  12.107  0.2658  0.0254 -0.2472
11722TIP3    H156581   3.721   1.678  12.122  0.0516 -1.9101 -2.5888
11722TIP3    H256582   3.641   1.782  12.046  0.2029 -1.2565 -1.8543
11723TIP3   OH256583   0.497   1.906  10.555  0.4293  0.4568 -0.4216
11723TIP3    H156584   0.455   1.954  10.484 -1.9348  1.5768  1.6709
11723TIP3    H256585   0.460   1.818  10.549 -0.6824  0.8704  0.1072
11724TIP3   OH256586   5.986   4.483   4.026  0.6467  0.0920  0.0258
11724TIP3    H156587   6.020   4.491   4.114 -1.3640  1.2549  0.7302
11724TIP3    H256588   5.932   4.404   4.028  1.9285 -0.8079 -0.6226
11725TIP3   OH256589   1.327   5.365   5.769 -0.7957 -0.3906  0.2809
11725TIP3    H156590   1.266   5.396   5.836 -1.0423  0.8632 -0.4970
11725TIP3    H256591   1.404   5.421   5.780 -1.1715  0.4162 -1.0163
11726TIP3   OH256592   0.725   1.265   3.920  0.3655  0.3385  0.1576
11726TIP3    H156593   0.796   1.273   3.855  0.2719 -1.4182 -0.1966
11726TIP3    H256594   0.767   1.225   3.996  0.0285  0.4845  0.4206
11727TIP3   OH256595   0.538   3.156  11.052 -0.2673 -0.6091 -0.0602
11727TIP3    H156596   0.470   3.110  11.003  0.3669 -0.6882 -0.8646
11727TIP3    H256597   0.569   3.092  11.116 -0.7320 -0.6741  0.0990
11728TIP3   OH256598   1.327   2.464   0.203 -0.2826 -1.0621  0.3371
11728TIP3    H156599   1.313   2.535   0.265 -2.5305 -1.3830  0.2363
11728TIP3    H256600   1.408   2.487   0.157  1.0257 -0.4514  2.8475
11729TIP3   OH256601   2.969   1.454   2.469  0.3850  0.1427 -0.1132
11729TIP3    H156602   2.960   1.508   2.391  0.1950  0.6810  0.2712
11729TIP3    H256603   2.914   1.377   2.452  0.0065  0.4604 -0.3376
11730TIP3   OH256604   5.341   6.016   5.896  0.1317 -0.5669 -0.2219
11730TIP3    H156605   5.403   6.000   5.966  1.7092 -1.1290 -1.7209
11730TIP3    H256606   5.268   5.955   5.914  0.6670 -0.9262  0.7411
11731TIP3   OH256607   5.102   5.679  15.781 -0.0857  0.8337  0.2139
11731TIP3    H156608   5.140   5.677  15.694  1.2544  1.2467  0.7910
11731TIP3    H256609   5.139   5.603  15.825 -1.8326 -0.1860 -0.0049
11732TIP3   OH256610   6.444   2.789  12.120 -0.4131 -0.1631  0.1718
11732TIP3    H156611   6.497   2.868  12.123 -0.3814 -0.2251  1.7604
11732TIP3    H256612   6.467   2.742  12.201 -2.5589 -0.3986  0.6685
11733TIP3   OH256613   1.447   3.826  11.287  0.1049 -0.0706 -0.3431
11733TIP3    H156614   1.405   3.908  11.313  1.8718  1.1105 -1.0713
11733TIP3    H256615   1.531   3.826  11.333  0.1004 -1.5024 -0.3113
11734TIP3   OH256616   1.685   5.784   0.678 -0.6124  0.3379  0.6893
11734TIP3    H156617   1.614   5.824   0.727  0.1231  0.2812  1.8290
11734TIP3    H256618   1.753   5.767   0.743  0.0278 -0.5793 -0.1872
11735TIP3   OH256619   0.709   1.176   3.248  0.7065 -0.4996  0.1597
11735TIP3    H156620   0.729   1.132   3.165  1.2222 -1.1606  0.6265
11735TIP3    H256621   0.760   1.128   3.313  0.5894  0.2486  0.8086
11736TIP3   OH256622   1.529   6.084  12.392  0.2758  0.7032 -0.1767
11736TIP3    H156623   1.566   6.038  12.467  0.7820 -1.5645 -1.7742
11736TIP3    H256624   1.447   6.038  12.374  0.6285  0.6038 -1.5957
11737TIP3   OH256625   0.634   0.274  12.291 -0.1020 -0.2268 -0.0885
11737TIP3    H156626   0.662   0.185  12.268 -2.7097 -1.0961 -0.1047
11737TIP3    H256627   0.700   0.305  12.353  0.7378 -2.2594  0.0696
11738TIP3   OH256628   0.004   2.135  13.322 -0.1153  0.7668  0.1261
11738TIP3    H156629  -0.011   2.202  13.389  0.7155  3.2342 -2.0810
11738TIP3    H256630   0.095   2.109  13.335 -0.2033  0.6195  0.4752
11739TIP3   OH256631   0.947   4.980   3.570  0.3016 -0.3357 -0.1674
11739TIP3    H156632   1.021   4.926   3.542  0.3137  0.9655 -2.7705
11739TIP3    H256633   0.986   5.061   3.601  0.0082  0.2689 -1.3417
11740TIP3   OH256634   1.754   5.552  16.219  0.6277 -0.8791 -0.1373
11740TIP3    H156635   1.821   5.508  16.272  0.8606 -1.3645 -0.8220
11740TIP3    H256636   1.671   5.526  16.260  0.9319  1.7079  2.2121
11741TIP3   OH256637   4.497   1.108   3.656 -0.3434  0.3816 -0.7378
11741TIP3    H156638   4.499   1.025   3.608  0.6048 -0.3724  0.5710
11741TIP3    H256639   4.404   1.130   3.661 -0.6726 -1.0052 -0.4175
11742TIP3   OH256640   0.609   3.728  12.502  0.8388 -0.1180  0.0173
11742TIP3    H156641   0.580   3.789  12.435 -3.2174 -0.5869  1.2039
11742TIP3    H256642   0.663   3.780  12.561  0.7872  1.3376 -1.1985
11743TIP3   OH256643   1.353   3.021   0.396 -0.2423 -0.2692  0.3367
11743TIP3    H156644   1.267   3.045   0.362  0.5162 -0.9453 -2.1106
11743TIP3    H256645   1.373   3.089   0.461 -1.0786  1.9109 -1.6183
11744TIP3   OH256646   4.110   1.206  16.417  0.3179 -0.4344  0.1037
11744TIP3    H156647   4.156   1.289  16.400  1.0073 -0.9608 -0.6255
11744TIP3    H256648   4.026   1.233  16.454  0.6768  0.5859  0.2082
11745TIP3   OH256649   2.445   1.562  13.710 -0.1602 -0.5542  0.0536
11745TIP3    H156650   2.450   1.470  13.736 -1.3267 -0.1047  1.9007
11745TIP3    H256651   2.419   1.608  13.789 -1.1152  1.1800 -1.2424
11746TIP3   OH256652   1.770   4.636   5.133 -0.1957  0.0945 -0.0907
11746TIP3    H156653   1.763   4.669   5.222 -2.0665 -0.1812 -0.1297
11746TIP3    H256654   1.808   4.708   5.083  2.5548 -0.3547  1.2598
11747TIP3   OH256655   4.471   3.074  15.734 -0.0947 -0.1277 -0.0192
11747TIP3    H156656   4.505   3.109  15.817 -2.1861  1.3997  0.2338
11747TIP3    H256657   4.405   3.010  15.760  1.0164 -1.4865 -0.5090
11748TIP3   OH256658   3.375   2.382  15.348 -0.5357 -0.6146  0.0846
11748TIP3    H156659   3.341   2.371  15.436  1.4424  0.6624  1.0497
11748TIP3    H256660   3.319   2.448  15.308 -0.4234  0.0147  0.9615
11749TIP3   OH256661   1.193   3.904   4.193  0.2098 -0.2036 -0.0310
11749TIP3    H156662   1.253   3.977   4.178  0.5077 -0.5090 -0.3350
11749TIP3    H256663   1.137   3.933   4.265 -0.9278  1.0845 -1.4107
11750TIP3   OH256664   3.000   1.465  14.203  0.1808 -0.1546 -0.0484
11750TIP3    H156665   2.955   1.546  14.228  0.6194  0.4312 -1.1065
11750TIP3    H256666   3.083   1.468  14.250  0.8596  0.7745 -1.3000
11751TIP3   OH256667   0.158   0.829  14.138  0.2522  0.1911  0.1230
11751TIP3    H156668   0.223   0.768  14.175  1.9733  1.9013 -0.0099
11751TIP3    H256669   0.205   0.874  14.068 -1.8077 -0.1977 -1.5724
11752TIP3   OH256670   1.480   3.097   5.688 -0.6196  0.1954  0.0615
11752TIP3    H156671   1.401   3.048   5.711 -0.7157 -0.3960 -1.5063
11752TIP3    H256672   1.542   3.077   5.758 -0.0689 -3.5161 -1.4116
11753TIP3   OH256673   2.467   4.609   1.188  0.7458 -0.2061  0.2310
11753TIP3    H156674   2.472   4.622   1.094 -4.4982 -2.1043 -0.4982
11753TIP3    H256675   2.418   4.686   1.220  1.2000 -0.3037  1.1680
11754TIP3   OH256676   4.999   5.773  11.485 -0.3762  0.1119 -0.1346
11754TIP3    H156677   5.005   5.819  11.401 -0.1898 -0.8364 -0.6529
11754TIP3    H256678   5.028   5.837  11.550  0.0945  0.6517 -0.8676
11755TIP3   OH256679   0.680   6.505  13.233 -0.0896  0.0832  0.0637
11755TIP3    H156680   0.626   6.558  13.174  0.2693 -0.5718 -0.8654
11755TIP3    H256681   0.762   6.555  13.240  0.1952 -0.2667 -0.6987
11756TIP3   OH256682   0.241   3.757   4.565  0.1227 -0.3796 -0.4114
11756TIP3    H156683   0.319   3.778   4.514  0.4859 -1.8458 -0.4814
11756TIP3    H256684   0.205   3.842   4.590  0.4378  0.3418 -2.3568
11757TIP3   OH256685   5.214   4.475   1.957 -0.5083 -0.1524  0.1166
11757TIP3    H156686   5.192   4.542   2.021  0.1045 -0.3589  0.5531
11757TIP3    H256687   5.298   4.503   1.921 -0.8401 -0.0480 -0.5860
11758TIP3   OH256688   3.439   1.065  14.632 -0.4377 -0.1989 -0.1348
11758TIP3    H156689   3.515   1.007  14.632 -0.0667  0.2848  0.4809
11758TIP3    H256690   3.383   1.031  14.703 -0.5745 -0.2601 -0.2704
11759TIP3   OH256691   3.358   0.439   5.272 -0.1322  0.4817 -0.2461
11759TIP3    H156692   3.264   0.446   5.292  0.1731  0.7640  1.1981
11759TIP3    H256693   3.366   0.471   5.183 -1.5942 -0.7660 -0.8496
11760TIP3   OH256694   3.501   2.783  13.333 -0.0978  0.1248  0.2661
11760TIP3    H156695   3.543   2.724  13.396  1.7206 -0.5265 -1.5221
11760TIP3    H256696   3.555   2.862  13.335 -1.2883  0.9450  1.0742
11761TIP3   OH256697   0.756   1.427  12.629 -1.0608  0.3511 -0.3374
11761TIP3    H156698   0.739   1.521  12.630 -1.7646  0.2281  0.7710
11761TIP3    H256699   0.678   1.389  12.589 -1.0562  0.1960 -0.1982
11762TIP3   OH256700   1.399   1.020  16.812  0.0992 -0.0439  0.1456
11762TIP3    H156701   1.416   0.982  16.725 -1.2358  0.4404 -0.3316
11762TIP3    H256702   1.462   0.976  16.869 -0.4300 -1.9161 -0.6640
11763TIP3   OH256703   6.740   4.104   2.595 -0.5493  0.2248 -0.1437
11763TIP3    H156704   6.707   4.193   2.583 -0.7844  0.4007  1.6602
11763TIP3    H256705   6.706   4.076   2.680  0.5949 -1.1044 -0.0871
11764TIP3   OH256706   3.192   3.344  16.820 -0.5648  0.6487  0.3961
11764TIP3    H156707   3.171   3.357  16.728 -0.1544 -1.6423 -0.0510
11764TIP3    H256708   3.107   3.343  16.864 -1.0178 -1.7402 -0.4623
11765TIP3   OH256709   6.331   0.208  14.862 -0.1778  0.7591  0.3037
11765TIP3    H156710   6.397   0.268  14.828 -0.5470  0.5120 -0.8854
11765TIP3    H256711   6.308   0.153  14.787  0.3912 -1.0929  1.4690
11766TIP3   OH256712   4.466   4.339   2.093  0.4613  0.2290  0.8930
11766TIP3    H156713   4.503   4.419   2.129 -0.8361  0.2777  2.1528
11766TIP3    H256714   4.479   4.273   2.161 -2.5207  0.4548  1.7521
11767TIP3   OH256715   6.607   5.189   0.875  0.6014  0.2743  0.1784
11767TIP3    H156716   6.518   5.198   0.841  0.0707 -0.6921  1.2604
11767TIP3    H256717   6.632   5.098   0.855  2.1891  1.1707 -2.0556
11768TIP3   OH256718   0.098   6.064   2.408 -0.4172 -0.2791 -0.1479
11768TIP3    H156719   0.180   6.103   2.377 -0.1098  0.2269  1.2602
11768TIP3    H256720   0.122   6.022   2.491 -1.5383 -0.2977  0.1691
11769TIP3   OH256721   4.725   1.575  14.934  0.2558  0.0383  0.5404
11769TIP3    H156722   4.767   1.522  14.866 -1.2934 -1.1962  0.5230
11769TIP3    H256723   4.712   1.514  15.007 -1.3706  0.4254  0.5942
11770TIP3   OH256724   6.737   3.697  15.194  0.0672 -0.1616 -0.0837
11770TIP3    H156725   6.700   3.609  15.200 -0.3883 -0.0313 -1.0201
11770TIP3    H256726   6.757   3.720  15.285  0.7122 -1.4517  0.1240
11771TIP3   OH256727   1.652   2.265  11.413  0.7682  0.4688  0.0419
11771TIP3    H156728   1.653   2.317  11.333  0.9106  0.4285  0.0159
11771TIP3    H256729   1.560   2.263  11.440  0.3329 -1.6206 -1.4875
11772TIP3   OH256730   4.549   6.013   5.252  0.0173 -0.4621  0.1429
11772TIP3    H156731   4.539   6.108   5.262  0.3824 -0.2337 -1.4287
11772TIP3    H256732   4.644   5.998   5.256 -0.1368 -1.0217  2.3047
11773TIP3   OH256733   0.964   0.855  12.062 -0.3884  0.4854 -0.1611
11773TIP3    H156734   0.944   0.948  12.048 -1.8697  0.3457  0.8963
11773TIP3    H256735   0.918   0.810  11.991  0.6451  0.5683 -0.9026
11774TIP3   OH256736   1.528   5.625   1.628  0.2577 -0.2974 -0.2752
11774TIP3    H156737   1.471   5.700   1.616 -0.8170 -1.1284 -0.4313
11774TIP3    H256738   1.499   5.562   1.562  1.3129 -0.7532 -0.3114
11775TIP3   OH256739   2.216   4.836  13.121 -0.0877 -0.1032  0.1301
11775TIP3    H156740   2.284   4.897  13.152 -1.0870  0.5812  0.9817
11775TIP3    H256741   2.253   4.799  13.040  0.9394  0.9124  0.1165
11776TIP3   OH256742   1.946   1.249  12.513  0.3346 -0.3078  0.1349
11776TIP3    H156743   1.902   1.183  12.568 -0.5089 -0.7795 -1.0994
11776TIP3    H256744   1.888   1.324  12.516 -0.3567 -0.7873 -1.1638
11777TIP3   OH256745   2.633   4.116   4.924  0.1654  0.1704  0.1662
11777TIP3    H156746   2.572   4.103   4.852  0.3613 -1.9325  0.3392
11777TIP3    H256747   2.719   4.097   4.887  0.0726 -2.9985  1.3801
11778TIP3   OH256748   6.143   3.552   4.546 -1.1110  0.4390 -0.1172
11778TIP3    H156749   6.067   3.610   4.536 -2.6948 -1.1656  1.9745
11778TIP3    H256750   6.195   3.593   4.614 -1.1203  0.5391 -0.1707
11779TIP3   OH256751   1.092   0.705  16.903 -0.5640  0.4410 -0.3750
11779TIP3    H156752   1.110   0.740  16.991 -2.7846  0.1675  0.2247
11779TIP3    H256753   1.130   0.617  16.904 -1.4585  0.0520  0.6841
11780TIP3   OH256754   5.083   4.284   3.281  0.1514  0.1746 -0.5639
11780TIP3    H156755   5.009   4.336   3.250 -0.1658 -0.3880 -0.7626
11780TIP3    H256756   5.122   4.336   3.351  0.8704  1.4566 -1.8822
11781TIP3   OH256757   4.469   4.732   4.617  0.3144 -0.3870 -0.1975
11781TIP3    H156758   4.559   4.707   4.635 -0.2686 -1.8552  0.7688
11781TIP3    H256759   4.426   4.650   4.590 -0.5069  0.4676 -1.5564
11782TIP3   OH256760   4.070   0.621   0.143 -0.2946 -0.2805  0.5894
11782TIP3    H156761   4.163   0.609   0.128 -0.6073 -2.3625  0.0603
11782TIP3    H256762   4.043   0.542   0.190 -1.8617  0.0620  0.3033
11783TIP3   OH256763   3.651   2.267   3.773 -0.1166  0.1851 -0.4196
11783TIP3    H156764   3.676   2.359   3.782 -1.3703  0.3875  1.1848
11783TIP3    H256765   3.557   2.265   3.791  0.1356 -1.5756  0.8494
11784TIP3   OH256766   2.364   1.961  11.569  0.4465  0.3792 -0.3591
11784TIP3    H156767   2.314   1.949  11.650 -0.2188  0.8353 -0.6949
11784TIP3    H256768   2.347   2.052  11.545  1.4921  0.5520 -0.4501
11785TIP3   OH256769   1.887   5.436  11.956 -0.1554  0.2794  0.0019
11785TIP3    H156770   1.872   5.491  12.032  1.4265  0.4569  0.1988
11785TIP3    H256771   1.941   5.489  11.898 -2.4204  0.6519 -1.8541
11786TIP3   OH256772   4.852   2.228   4.413 -0.1256 -0.2497  0.3529
11786TIP3    H156773   4.917   2.275   4.361  0.0757  0.3730  1.1573
11786TIP3    H256774   4.863   2.136   4.388  1.4030 -0.2148  0.8199
11787TIP3   OH256775   2.243   4.524   5.632 -0.1904  0.1015 -0.0976
11787TIP3    H156776   2.162   4.499   5.676 -0.4195  0.2804 -0.4182
11787TIP3    H256777   2.310   4.518   5.700 -0.5655  0.5309  0.3127
11788TIP3   OH256778   0.718   4.037  13.001 -0.1718  0.5408  0.5679
11788TIP3    H156779   0.664   4.066  12.928  0.7086 -0.3042 -0.4398
11788TIP3    H256780   0.784   4.106  13.011 -0.3231  0.6809  0.5956
11789TIP3   OH256781   1.360   0.799  15.454 -0.5200 -0.1358 -0.2615
11789TIP3    H156782   1.386   0.856  15.382 -0.3429 -2.2199 -1.9142
11789TIP3    H256783   1.416   0.825  15.527  0.4023  0.9568 -1.3338
11790TIP3   OH256784   4.748   2.090   5.165  0.0613  0.3170 -0.1949
11790TIP3    H156785   4.762   2.101   5.259  0.5132 -0.3851 -0.1737
11790TIP3    H256786   4.807   2.154   5.124 -2.8658  3.3065  0.0436
11791TIP3   OH256787   0.555   5.009   4.133 -0.4234 -0.0027 -0.2297
11791TIP3    H156788   0.530   5.093   4.170 -1.6696 -0.7173  0.6111
11791TIP3    H256789   0.601   4.964   4.204  1.0957  0.3353 -0.9840
11792TIP3   OH256790   4.355   6.715  13.581 -0.0342 -0.3682  0.2319
11792TIP3    H156791   4.390   6.791  13.536  0.1621 -0.0193  0.9631
11792TIP3    H256792   4.408   6.642  13.550 -2.0307 -0.6993 -2.6379
11793TIP3   OH256793   3.095   4.913   6.067 -0.5593 -0.2190 -0.2282
11793TIP3    H156794   3.025   4.934   6.005  0.0224  1.0853 -0.4724
11793TIP3    H256795   3.165   4.878   6.013 -0.1576  0.6526 -0.2714
11794TIP3   OH256796   3.034   6.326  13.331  0.7906  0.2015 -0.0996
11794TIP3    H156797   3.054   6.299  13.421  1.0940 -1.9642 -0.7951
11794TIP3    H256798   3.118   6.318  13.285  0.3751  0.1634 -0.8490
11795TIP3   OH256799   4.031   4.469  14.486 -0.6603  0.0616 -0.0203
11795TIP3    H156800   3.967   4.494  14.553  0.2845  0.5117  0.7281
11795TIP3    H256801   3.989   4.490  14.403 -1.0766  1.3295  0.5064
11796TIP3   OH256802   3.064   3.452   5.496  0.5953  0.2392 -0.4707
11796TIP3    H156803   2.972   3.441   5.517  0.8052 -2.0186 -0.6707
11796TIP3    H256804   3.095   3.517   5.559 -1.3489  1.8151 -1.0774
11797TIP3   OH256805   5.959   5.688  12.097  0.3039 -0.1532  0.3243
11797TIP3    H156806   5.984   5.685  12.189 -1.1506  0.4591  0.7428
11797TIP3    H256807   5.891   5.755  12.092  0.4814 -0.0723 -1.2211
11798TIP3   OH256808   1.540   1.978  14.398 -0.4191 -0.3966 -0.2134
11798TIP3    H156809   1.493   1.895  14.408 -0.3996 -0.6931 -2.2451
11798TIP3    H256810   1.509   2.032  14.471 -3.6322 -0.7277 -1.2411
11799TIP3   OH256811   0.421   6.714  12.827 -0.4162 -0.2954 -0.7078
11799TIP3    H156812   0.487   6.652  12.797 -1.6591 -2.7226  1.4602
11799TIP3    H256813   0.338   6.674  12.803 -1.1873  1.7454 -1.5404
11800TIP3   OH256814   2.199   1.388   1.336 -0.3532 -0.1672 -0.5780
11800TIP3    H156815   2.143   1.450   1.291  0.9220  1.9737  0.6848
11800TIP3    H256816   2.170   1.391   1.427 -1.1552 -2.4500 -0.7169
11801TIP3   OH256817   0.068   2.540   5.248 -0.1333 -0.0193  0.2882
11801TIP3    H156818  -0.015   2.513   5.208 -0.8825 -1.7885  2.9150
11801TIP3    H256819   0.043   2.611   5.308  0.1320 -1.0422  1.6147
11802TIP3   OH256820   0.914   3.593   5.720 -0.0404 -0.3643  0.0663
11802TIP3    H156821   0.907   3.510   5.767  1.3318 -0.4338  0.1883
11802TIP3    H256822   0.825   3.626   5.714 -0.4936 -1.4621  0.7244
11803TIP3   OH256823   2.572   2.448   0.651 -0.2301 -0.3610  0.2834
11803TIP3    H156824   2.477   2.437   0.649 -0.5391  1.7741  1.7458
11803TIP3    H256825   2.591   2.509   0.579 -0.1395  0.2096  0.7793
11804TIP3   OH256826   5.871   5.769   4.387 -0.2020 -0.1942  0.0642
11804TIP3    H156827   5.832   5.857   4.388 -3.1469 -1.4275  1.3747
11804TIP3    H256828   5.891   5.751   4.479  2.0616 -0.2278 -0.4099
11805TIP3   OH256829   4.071   4.942  16.093 -0.1994  0.3927  0.2182
11805TIP3    H156830   4.077   5.017  16.152 -3.4461  0.1992  0.9241
11805TIP3    H256831   4.088   4.866  16.150 -0.0325  0.4012  0.1805
11806TIP3   OH256832   3.232   2.727  16.260 -1.0246  0.1583  0.5671
11806TIP3    H156833   3.143   2.718  16.293 -0.3669  0.5403  2.5190
11806TIP3    H256834   3.286   2.737  16.339  1.1307 -3.0863 -0.4126
11807TIP3   OH256835   2.890   4.963  17.082 -0.3430 -0.1808 -0.2395
11807TIP3    H156836   2.969   5.017  17.084  0.3369 -1.2110  1.5119
11807TIP3    H256837   2.838   4.992  17.157 -0.4033 -1.3115  0.1687
11808TIP3   OH256838   0.352   4.212  12.296  0.1077  0.1553 -0.4989
11808TIP3    H156839   0.301   4.131  12.300  0.9475 -0.3752 -0.4659
11808TIP3    H256840   0.402   4.204  12.215  1.3243 -0.0352  0.2699
11809TIP3   OH256841   2.469   1.279   5.799  0.1052  0.0347  0.1741
11809TIP3    H156842   2.420   1.302   5.877 -0.4938  1.0450 -0.5025
11809TIP3    H256843   2.516   1.199   5.824 -2.6421 -1.5206  0.4929
11810TIP3   OH256844   2.009   6.213  14.079  0.4578 -0.2666 -0.4178
11810TIP3    H156845   2.099   6.231  14.106 -0.1788  1.0158  0.8918
11810TIP3    H256846   1.964   6.297  14.084 -1.2225 -1.1764  0.5104
11811TIP3   OH256847   2.440   4.750  14.336 -0.0523 -0.4579  0.1149
11811TIP3    H156848   2.446   4.843  14.361  0.5164 -0.4023 -0.2362
11811TIP3    H256849   2.425   4.751  14.242  1.7825 -0.7547 -0.1953
11812TIP3   OH256850   3.875   2.619   5.447 -0.3916 -0.1008  0.2580
11812TIP3    H156851   3.942   2.657   5.504  0.7493  0.2136 -1.2573
11812TIP3    H256852   3.820   2.692   5.420 -0.9130 -0.2445  0.9326
11813TIP3   OH256853   1.224   3.106  11.255  0.3190  0.1482  0.6560
11813TIP3    H156854   1.131   3.131  11.260  0.0255 -0.8534  0.3348
11813TIP3    H256855   1.264   3.147  11.331 -0.5193  0.0531  1.1608
11814TIP3   OH256856   4.598   1.801   5.073  0.0239  0.3217 -0.2668
11814TIP3    H156857   4.638   1.822   4.988 -0.4989 -1.0634 -0.8783
11814TIP3    H256858   4.535   1.731   5.053 -0.6542  0.5114  1.1430
11815TIP3   OH256859   2.503   4.556  15.589  0.2367 -0.5381 -0.1454
11815TIP3    H156860   2.478   4.633  15.640  0.2752  1.6215 -3.2301
11815TIP3    H256861   2.599   4.556  15.591  0.2173 -1.4319  1.1456
11816TIP3   OH256862   6.741   0.465  12.563 -0.3614  0.0000  0.2219
11816TIP3    H156863   6.805   0.413  12.514 -1.2668 -0.2104 -0.7421
11816TIP3    H256864   6.692   0.513  12.496 -1.1429  0.2555  0.9664
11817TIP3   OH256865   3.549   6.150   5.812 -0.1496 -0.4551 -0.7264
11817TIP3    H156866   3.521   6.241   5.803  0.4432 -0.1711  0.1916
11817TIP3    H256867   3.586   6.127   5.727  0.9088  0.5862 -0.5520
11818TIP3   OH256868   0.691   3.781  12.797  0.3122  0.0910 -0.0236
11818TIP3    H156869   0.719   3.776  12.889  1.4004  1.0429 -0.2922
11818TIP3    H256870   0.644   3.699  12.782 -1.4146  0.6724  1.8789
11819TIP3   OH256871   6.605   6.224   5.381 -0.0764  0.5256 -0.1658
11819TIP3    H156872   6.614   6.138   5.339 -0.9249  0.0788  0.5710
11819TIP3    H256873   6.598   6.205   5.474  0.6052  1.4546  0.0836
11820TIP3   OH256874   0.475   2.925   1.177 -0.1326 -1.0270 -0.2863
11820TIP3    H156875   0.501   3.008   1.217 -1.9767 -0.6402  0.1230
11820TIP3    H256876   0.558   2.884   1.153  0.8495  0.3995  0.5712
11821TIP3   OH256877   4.177   0.923  16.792 -0.1654  0.2085  0.0644
11821TIP3    H156878   4.250   0.899  16.735 -0.2378  0.8983 -0.3145
11821TIP3    H256879   4.147   0.839  16.829  0.3287 -0.1585 -0.3619
11822TIP3   OH256880   4.414   0.267  12.482  0.0865  0.4260 -0.1662
11822TIP3    H156881   4.403   0.235  12.571  0.6809  1.5989  0.3399
11822TIP3    H256882   4.498   0.313  12.483 -0.4069  1.3798 -1.0369
11823TIP3   OH256883   4.305   4.821   2.928  0.0234  0.0299  0.4539
11823TIP3    H156884   4.315   4.763   3.004 -1.8274 -1.1122 -0.1575
11823TIP3    H256885   4.382   4.802   2.874  0.0328 -0.9878  0.8175
11824TIP3   OH256886   6.352   5.000  14.865  0.5132 -0.4432  0.6085
11824TIP3    H156887   6.447   4.993  14.874  0.6812 -0.0135 -0.6982
11824TIP3    H256888   6.340   5.069  14.799 -0.6907 -0.7039  0.5586
11825TIP3   OH256889   1.460   6.704   0.330  0.4988 -0.3282  0.2308
11825TIP3    H156890   1.491   6.619   0.300  1.3197 -0.4815  1.4593
11825TIP3    H256891   1.535   6.762   0.321 -0.1299  0.3353 -0.8271
11826TIP3   OH256892   6.320   5.725   6.089  0.1355  0.5072 -1.0866
11826TIP3    H156893   6.385   5.656   6.104  1.2132  1.5859 -0.7354
11826TIP3    H256894   6.357   5.778   6.019  0.0577  1.6655 -0.2599
11827TIP3   OH256895   4.248   3.839   6.179 -0.1329  0.1867  0.1508
11827TIP3    H156896   4.316   3.828   6.112 -0.9777 -3.2043 -0.2429
11827TIP3    H256897   4.259   3.763   6.237 -2.7682  0.2671  0.8087
11828TIP3   OH256898   5.900   1.717   2.896  0.0305 -0.2180 -0.7703
11828TIP3    H156899   5.920   1.690   2.986  1.2533 -0.7722 -1.2024
11828TIP3    H256900   5.837   1.789   2.906  2.0060  1.3510  0.6066
11829TIP3   OH256901   6.492   6.232  13.796  0.6677  0.1112 -0.1870
11829TIP3    H156902   6.577   6.208  13.760  1.6368  0.8929  1.5259
11829TIP3    H256903   6.465   6.157  13.849  1.0226  0.4698  0.5130
11830TIP3   OH256904   0.008   5.572  15.769 -0.0686  0.4713 -0.4851
11830TIP3    H156905  -0.080   5.609  15.781 -0.8597 -1.5701  0.4235
11830TIP3    H256906  -0.000   5.515  15.692  0.2379 -0.3029  0.0450
11831TIP3   OH256907   1.776   6.554   3.115 -0.1038 -0.0001 -0.7945
11831TIP3    H156908   1.799   6.597   3.033  2.3611 -1.4848 -0.9354
11831TIP3    H256909   1.787   6.461   3.097 -1.2738 -0.4402  0.7079
11832TIP3   OH256910   4.047   2.503   2.837 -0.1214 -0.1844 -0.0120
11832TIP3    H156911   3.993   2.578   2.861  0.5498  0.3254 -0.0975
11832TIP3    H256912   3.990   2.449   2.782 -0.9127 -0.2184  0.8292
11833TIP3   OH256913   2.296   3.326   3.083  0.0479  0.3682  0.0519
11833TIP3    H156914   2.236   3.358   3.015  0.5591  0.2769 -0.4488
11833TIP3    H256915   2.252   3.346   3.165  0.1289  1.9593 -0.2614
11834TIP3   OH256916   6.461   5.815  11.410  0.4051  0.1117  0.5727
11834TIP3    H156917   6.497   5.895  11.372 -0.4150  0.3673  0.3186
11834TIP3    H256918   6.368   5.834  11.423 -0.1235 -1.2985 -0.8551
11835TIP3   OH256919   6.257   2.131   5.690 -0.3376 -0.0358  0.4877
11835TIP3    H156920   6.236   2.054   5.743 -0.5452  0.1880  0.7340
11835TIP3    H256921   6.253   2.101   5.600  0.2440 -0.4790  0.6084
11836TIP3   OH256922   4.127   0.240   0.360 -0.3057  0.0402  0.5397
11836TIP3    H156923   4.185   0.267   0.289  0.4295  2.2586  1.9547
11836TIP3    H256924   4.113   0.146   0.345  1.2173  0.1217 -1.5308
11837TIP3   OH256925   1.724   4.565  13.411 -0.3054 -0.0338 -0.5222
11837TIP3    H156926   1.758   4.520  13.333  1.5755 -1.7851  1.2659
11837TIP3    H256927   1.801   4.604  13.452 -0.7609 -1.7429  2.1025
11838TIP3   OH256928   4.003   4.026   6.963 -1.0141  0.2984  0.2249
11838TIP3    H156929   3.936   4.088   6.991  0.4662  2.7981 -1.5315
11838TIP3    H256930   4.040   4.065   6.883  2.0303 -1.3374  0.7580
11839TIP3   OH256931   0.795   2.186   0.313 -0.2669 -0.2479  0.8938
11839TIP3    H156932   0.757   2.115   0.364  1.7817 -1.6338  0.5459
11839TIP3    H256933   0.872   2.214   0.363  2.0116 -1.9033 -1.5359
11840TIP3   OH256934   2.585   3.540   2.304  0.3615 -0.2001  0.4627
11840TIP3    H156935   2.500   3.537   2.347  0.9974  2.9811  2.0077
11840TIP3    H256936   2.642   3.487   2.360 -0.0770 -0.5706  0.5631
11841TIP3   OH256937   5.029   5.300  16.746  0.0864 -0.3503  0.1018
11841TIP3    H156938   5.121   5.277  16.739 -0.0615 -2.1163  2.9368
11841TIP3    H256939   4.990   5.271  16.664  2.2936  1.8179 -1.7500
11842TIP3   OH256940   1.159   3.771  10.606  0.1020 -0.2790  0.0509
11842TIP3    H156941   1.071   3.737  10.591  0.2256 -1.3392  1.5766
11842TIP3    H256942   1.168   3.773  10.702  1.4305  0.6068 -0.0731
11843TIP3   OH256943   6.237   4.951   0.324  0.0332  0.2957 -0.1642
11843TIP3    H156944   6.270   5.038   0.301  1.2595  0.3064  1.5397
11843TIP3    H256945   6.207   4.914   0.241  1.0415  1.6988 -1.1805
11844TIP3   OH256946   1.085   1.694   0.666  0.0627  0.9984 -0.1555
11844TIP3    H156947   1.032   1.754   0.613 -1.2853 -1.7406 -2.0421
11844TIP3    H256948   1.047   1.698   0.753 -1.4004  1.3061 -0.7871
11845TIP3   OH256949   1.341   3.643  10.815  0.1577 -0.4637  0.1181
11845TIP3    H156950   1.280   3.652  10.888 -1.2183 -1.4114 -0.8900
11845TIP3    H256951   1.419   3.603  10.853 -0.5407 -0.9286  1.0677
11846TIP3   OH256952   4.915   4.723   5.589 -0.2078  0.6103  0.6384
11846TIP3    H156953   4.934   4.651   5.528  4.7210  1.7989  0.5796
11846TIP3    H256954   4.860   4.682   5.657  0.6340 -2.6769 -0.5384
11847TIP3   OH256955   5.800   3.379  11.798 -0.5138 -0.3456  0.0322
11847TIP3    H156956   5.875   3.432  11.826 -0.2070  1.1008 -3.3686
11847TIP3    H256957   5.824   3.289  11.821  0.1467  0.6129  3.3523
11848TIP3   OH256958   1.802   3.449   2.631  0.5754 -0.3419  0.2796
11848TIP3    H156959   1.830   3.375   2.577  0.4691  0.7106 -1.2407
11848TIP3    H256960   1.808   3.416   2.721 -1.9132 -3.0522 -0.4517
11849TIP3   OH256961   2.352   3.414   2.707  0.5216  0.0706  0.8859
11849TIP3    H156962   2.357   3.474   2.781  1.3740  0.2878  0.6635
11849TIP3    H256963   2.407   3.340   2.731 -1.2063 -1.0342  1.5133
11850TIP3   OH256964   6.348   2.154  16.007  0.2467  0.2294 -0.2845
11850TIP3    H156965   6.345   2.075  15.953  1.2370  0.5672 -0.8310
11850TIP3    H256966   6.267   2.150  16.058 -2.6934  1.8605 -4.5590
11851TIP3   OH256967   4.115   2.707  13.112 -0.0144  0.4279 -0.0461
11851TIP3    H156968   4.042   2.754  13.152 -2.0537 -0.5443 -2.5069
11851TIP3    H256969   4.145   2.647  13.180 -0.9107  1.4667  1.2921
11852TIP3   OH256970   3.655   1.257  12.486 -0.0263  0.4286 -0.0791
11852TIP3    H156971   3.683   1.344  12.459  1.0882 -0.4523 -1.8320
11852TIP3    H256972   3.730   1.223  12.536 -0.4416  0.4506  0.5670
11853TIP3   OH256973   0.270   0.346  15.495  0.6393 -0.0517 -0.5387
11853TIP3    H156974   0.180   0.353  15.463 -0.2481 -1.6736  1.4571
11853TIP3    H256975   0.292   0.434  15.526 -0.8287  0.0252  0.3223
11854TIP3   OH256976   5.767   1.079   2.867 -0.0329  0.4138 -0.3216
11854TIP3    H156977   5.740   1.101   2.778  0.7166 -1.1792 -0.9585
11854TIP3    H256978   5.859   1.102   2.871  0.2868 -0.8062 -0.4075
11855TIP3   OH256979   0.361   6.715   1.248  0.2735 -0.1003  0.0136
11855TIP3    H156980   0.415   6.788   1.279 -0.1054  0.0268  0.3683
11855TIP3    H256981   0.284   6.716   1.304 -0.3532  0.0544 -0.8477
11856TIP3   OH256982   0.286   2.877  14.395  0.1354 -0.0025  0.1048
11856TIP3    H156983   0.380   2.862  14.395 -0.0256 -1.3534  2.7251
11856TIP3    H256984   0.250   2.797  14.356  0.1073  1.1891 -2.4147
11857TIP3   OH256985   5.896   4.619   1.200 -0.0531  0.0197 -0.3307
11857TIP3    H156986   5.991   4.611   1.192  0.0130  1.0547 -0.7479
11857TIP3    H256987   5.863   4.610   1.111 -0.3545 -0.4553 -0.1698
11858TIP3   OH256988   2.286   0.367  14.582  0.1663 -0.5008  0.5931
11858TIP3    H156989   2.266   0.454  14.547  1.7000 -0.4699 -0.2345
11858TIP3    H256990   2.327   0.384  14.666 -1.4477 -0.5099  1.4100
11859TIP3   OH256991   5.495   5.288   6.058  0.2282  0.1970 -0.0638
11859TIP3    H156992   5.419   5.248   6.015  0.4492  0.7341 -0.9577
11859TIP3    H256993   5.510   5.369   6.011  0.3218  0.9298  1.2046
11860TIP3   OH256994   3.012   0.370   0.708 -0.0164 -0.1484  0.0192
11860TIP3    H156995   3.045   0.335   0.791 -0.4974  0.9130  0.6796
11860TIP3    H256996   3.076   0.436   0.682  0.3016 -0.7058 -0.6318
11861TIP3   OH256997   2.216   0.553  15.669 -0.3442  0.9422  0.0760
11861TIP3    H156998   2.308   0.568  15.689 -0.6973  0.7726  1.9493
11861TIP3    H256999   2.205   0.458  15.678 -0.6313  0.9181 -0.4964
11862TIP3   OH257000   4.362   5.966  14.935 -0.4175 -0.5942 -0.0869
11862TIP3    H157001   4.344   6.059  14.927  0.7047 -0.2605  1.1318
11862TIP3    H257002   4.295   5.923  14.882 -2.0843  0.8114  0.8648
11863TIP3   OH257003   0.861   4.767   5.384  0.6191  0.1694 -0.2348
11863TIP3    H157004   0.793   4.825   5.418  1.7686  1.4811 -0.1336
11863TIP3    H257005   0.937   4.783   5.440  0.2172 -3.3523  1.4499
11864TIP3   OH257006   5.820   1.155   1.867 -0.2054  0.0676  0.2219
11864TIP3    H157007   5.884   1.086   1.850  0.6360  0.8769  0.0801
11864TIP3    H257008   5.768   1.122   1.940  0.3913 -0.5819  0.3566
11865TIP3   OH257009   5.738   5.602   4.820 -0.2169 -0.0186  0.2986
11865TIP3    H157010   5.656   5.564   4.788  1.4348 -3.9894  0.5580
11865TIP3    H257011   5.735   5.588   4.915  1.6512 -2.0627  0.0725
11866TIP3   OH257012   6.030   1.718  16.552  0.2705  0.2130  0.2892
11866TIP3    H157013   5.967   1.790  16.557 -0.2050 -0.2107  0.3732
11866TIP3    H257014   6.012   1.676  16.468  0.7341  0.3571  0.1146
11867TIP3   OH257015   4.801   5.545  15.755  0.1483 -0.6678  0.8799
11867TIP3    H157016   4.866   5.615  15.758  0.7034 -1.2289  1.8337
11867TIP3    H257017   4.741   5.572  15.685  0.6876  0.4697  0.8455
11868TIP3   OH257018   3.588   4.487   1.348  0.5080  0.3165  0.1863
11868TIP3    H157019   3.676   4.489   1.311 -0.0552  1.5411 -1.1456
11868TIP3    H257020   3.575   4.575   1.384 -0.1627  0.1456  0.3692
11869TIP3   OH257021   4.265   4.172  11.669  0.1166  0.1779  0.2541
11869TIP3    H157022   4.300   4.241  11.614  0.2658  1.3930  1.8447
11869TIP3    H257023   4.220   4.218  11.740  0.0228 -1.3541  1.2123
11870TIP3   OH257024   1.396   6.596   4.237 -0.0732  0.1729  0.0029
11870TIP3    H157025   1.301   6.580   4.233 -0.3827  0.9363  2.8580
11870TIP3    H257026   1.435   6.510   4.227 -1.1074 -0.2489 -0.4921
11871TIP3   OH257027   4.919   5.404  16.453 -0.8281 -0.0112  0.0959
11871TIP3    H157028   4.904   5.312  16.474 -0.8193 -0.1712 -0.5869
11871TIP3    H257029   4.987   5.402  16.386  0.2261  0.5644  1.1166
11872TIP3   OH257030   1.179   0.704   5.041  0.4861  0.0866 -0.4028
11872TIP3    H157031   1.116   0.698   5.112 -1.0002 -1.3867 -1.7981
11872TIP3    H257032   1.264   0.712   5.084 -0.5250  0.6916  1.5088
11873TIP3   OH257033   2.204   0.084   3.184 -0.3779  0.6721 -0.2671
11873TIP3    H157034   2.226   0.145   3.255  0.2391  1.0758 -0.7952
11873TIP3    H257035   2.288   0.049   3.155 -0.5718  0.8895 -1.1285
11874TIP3   OH257036   1.704   1.494  16.841  0.3605 -0.0658 -0.3423
11874TIP3    H157037   1.679   1.427  16.778 -0.5806  0.1207 -0.1691
11874TIP3    H257038   1.662   1.574  16.810  0.9506  0.3128 -0.1897
11875TIP3   OH257039   1.832   3.737   2.111 -0.0508 -0.0342 -0.0018
11875TIP3    H157040   1.883   3.667   2.152 -1.1945 -0.9346 -0.1002
11875TIP3    H257041   1.764   3.758   2.176  0.7879  1.5769  0.3847
11876TIP3   OH257042   5.481   6.012   0.753  0.0367 -0.0166  0.3476
11876TIP3    H157043   5.477   5.919   0.777 -0.7410  0.6145  2.7886
11876TIP3    H257044   5.556   6.046   0.801  0.9640  0.4070 -1.3790
11877TIP3   OH257045   2.389   2.746   6.352 -0.7794 -0.5673  0.6862
11877TIP3    H157046   2.400   2.652   6.339  0.7797 -0.3881  0.5760
11877TIP3    H257047   2.441   2.765   6.431 -0.6491  0.2827  0.3945
11878TIP3   OH257048   4.563   5.360  13.481 -0.0821  0.4122 -0.2531
11878TIP3    H157049   4.628   5.394  13.419  0.2715  0.4489  0.1380
11878TIP3    H257050   4.593   5.391  13.566 -0.9211  0.9026 -0.1337
11879TIP3   OH257051   3.730   6.450   2.176  0.3769 -0.4366  0.1050
11879TIP3    H157052   3.702   6.386   2.110  0.9157  2.0558 -2.6361
11879TIP3    H257053   3.649   6.480   2.216 -0.0648 -1.0795 -0.3022
11880TIP3   OH257054   2.176   5.340  13.370 -0.6449 -0.5837 -0.0412
11880TIP3    H157055   2.170   5.398  13.446  1.1938 -0.0089 -0.3170
11880TIP3    H257056   2.268   5.344  13.343 -0.8569 -2.2847 -1.1239
11881TIP3   OH257057   0.125   2.273  16.872 -0.2658 -0.1476 -0.1360
11881TIP3    H157058   0.159   2.322  16.947 -0.7255  1.8558 -1.2122
11881TIP3    H257059   0.074   2.337  16.822 -1.9217 -2.0265 -0.9199
11882TIP3   OH257060   5.111   4.653  10.490 -0.1886 -0.0378  0.3378
11882TIP3    H157061   5.037   4.708  10.516 -0.5306 -0.2426 -0.2113
11882TIP3    H257062   5.072   4.570  10.462  0.0574  0.6997 -2.3191
11883TIP3   OH257063   4.938   4.228  12.018  0.3127  0.2473 -0.4729
11883TIP3    H157064   4.934   4.261  12.108 -0.2690 -0.1205 -0.3593
11883TIP3    H257065   4.915   4.303  11.964 -0.4761  0.1746 -0.2457
11884TIP3   OH257066   1.051   3.424   4.426  0.1747  0.4562 -0.2080
11884TIP3    H157067   1.064   3.371   4.347  1.7641  0.5744 -0.0425
11884TIP3    H257068   1.063   3.514   4.396 -0.2344  0.5651 -0.0367
11885TIP3   OH257069   0.809   2.742   4.086 -0.6463 -0.1207 -0.2606
11885TIP3    H157070   0.902   2.745   4.062 -0.0315 -0.2818  2.0141
11885TIP3    H257071   0.789   2.830   4.118 -1.1399 -0.2201 -0.2948
11886TIP3   OH257072   6.201   2.190  15.456  0.2230  0.0913  0.4821
11886TIP3    H157073   6.193   2.232  15.370  0.1661 -0.0654  0.4102
11886TIP3    H257074   6.278   2.232  15.495 -1.8904  2.8159  1.8616
11887TIP3   OH257075   3.670   0.438  14.466  0.0787  0.0799 -0.0641
11887TIP3    H157076   3.764   0.456  14.464  0.1334 -0.3304 -1.7114
11887TIP3    H257077   3.629   0.524  14.470  0.5006  0.3127 -0.7312
11888TIP3   OH257078   2.556   2.566  11.508 -0.4274  0.1107 -0.3236
11888TIP3    H157079   2.544   2.487  11.455 -2.2804  0.6555 -0.7923
11888TIP3    H257080   2.467   2.602  11.515 -0.0311  0.6393  2.2521
11889TIP3   OH257081   1.125   6.554   5.109 -0.1465 -0.1843 -0.0389
11889TIP3    H157082   1.194   6.581   5.049 -1.0611  0.8259 -0.6449
11889TIP3    H257083   1.106   6.631   5.161 -0.5784 -0.5657  0.3744
11890TIP3   OH257084   3.487   5.244   4.227  0.1644  0.5236 -0.2025
11890TIP3    H157085   3.397   5.251   4.195 -0.6410 -1.1773  1.5796
11890TIP3    H257086   3.510   5.151   4.214  1.6398  0.9230 -0.5761
11891TIP3   OH257087   0.324   3.781   1.302 -0.1018 -0.2458  0.1992
11891TIP3    H157088   0.386   3.718   1.266  0.5908  0.4090  0.2310
11891TIP3    H257089   0.259   3.794   1.233 -0.7197 -1.6204  0.5022
11892TIP3   OH257090   1.460   0.611  11.567  0.1012  0.1057 -0.6491
11892TIP3    H157091   1.403   0.638  11.639  1.9104  0.6598  0.6403
11892TIP3    H257092   1.462   0.686  11.508 -1.1354 -0.2240 -1.1035
11893TIP3   OH257093   5.120   1.888  15.175  0.0231  0.9248  0.3726
11893TIP3    H157094   5.128   1.953  15.245  0.3012  1.2377  0.0535
11893TIP3    H257095   5.155   1.932  15.098  0.9516  0.1141  0.3254
11894TIP3   OH257096   0.945   2.000  15.171 -0.3409 -0.1308 -0.0900
11894TIP3    H157097   1.017   2.028  15.115 -0.2291  0.3852  0.3021
11894TIP3    H257098   0.941   1.906  15.160  0.9382 -0.2721  0.4981
11895TIP3   OH257099   1.611   5.597  14.887  0.3739 -0.5995  0.2690
11895TIP3    H157100   1.661   5.662  14.838 -0.7428  1.0437  1.2453
11895TIP3    H257101   1.589   5.641  14.970 -0.8701 -2.0145  0.7210
11896TIP3   OH257102   3.423   2.380   0.894 -0.0684 -0.4750  0.4862
11896TIP3    H157103   3.514   2.384   0.923 -0.0669  0.7617  0.3513
11896TIP3    H257104   3.372   2.380   0.975  0.0331 -0.4263  0.5503
11897TIP3   OH257105   0.848   4.025  12.244 -0.0281 -0.0162 -0.1950
11897TIP3    H157106   0.891   4.091  12.191  0.9758 -1.6923 -1.5283
11897TIP3    H257107   0.900   3.946  12.230 -0.7176 -0.8862  2.0038
11898TIP3   OH257108   6.589   1.131   2.212  0.2546 -0.3321 -0.3817
11898TIP3    H157109   6.639   1.169   2.284  0.7723 -1.4458 -0.1344
11898TIP3    H257110   6.647   1.139   2.136 -1.5244  3.7626 -1.4481
11899TIP3   OH257111   5.576   4.480   2.802  0.2931 -0.1293 -0.1660
11899TIP3    H157112   5.497   4.429   2.823 -0.6925  0.3544 -2.5244
11899TIP3    H257113   5.622   4.488   2.886 -1.8167 -1.0031  1.1305
11900TIP3   OH257114   3.469   5.588   1.483 -0.2070  0.2548 -0.2185
11900TIP3    H157115   3.376   5.591   1.505  0.0280 -0.4850  0.9313
11900TIP3    H257116   3.487   5.494   1.471  0.5538  0.3405  0.2882
11901TIP3   OH257117   6.323   3.252   4.357  0.7061  0.2901  0.0047
11901TIP3    H157118   6.416   3.252   4.337  0.8831  0.2913  0.8106
11901TIP3    H257119   6.319   3.250   4.453 -0.1157  2.8719  0.0523
11902TIP3   OH257120   2.542   1.795   5.068 -0.0394 -0.1941  0.5071
11902TIP3    H157121   2.508   1.721   5.017 -2.7039  0.3685  1.3798
11902TIP3    H257122   2.521   1.872   5.015 -1.0797  0.2433  1.5339
11903TIP3   OH257123   1.039   3.363   2.808 -0.6495 -0.7665 -0.1704
11903TIP3    H157124   0.999   3.396   2.889  0.6963  1.9274 -0.5252
11903TIP3    H257125   1.126   3.332   2.836 -0.2680 -0.0337 -0.5285
11904TIP3   OH257126   4.048   6.765   1.919 -0.3307 -0.2328 -0.6055
11904TIP3    H157127   4.051   6.851   1.960 -2.1728 -0.3897 -0.1068
11904TIP3    H257128   4.068   6.704   1.990 -0.8978 -0.3429 -0.5451
11905TIP3   OH257129   3.317   3.402  15.923 -0.4002  0.1436 -0.7485
11905TIP3    H157130   3.253   3.434  15.859  1.5299 -2.2539 -4.0338
11905TIP3    H257131   3.386   3.469  15.923 -1.1741  0.9525  0.0794
11906TIP3   OH257132   1.260   6.656   6.676  0.3712  0.2868  0.7164
11906TIP3    H157133   1.169   6.642   6.654  0.8268  0.8948 -1.6603
11906TIP3    H257134   1.281   6.586   6.738 -1.9991  0.8636  2.2390
11907TIP3   OH257135   6.111   2.590   5.772 -0.3787 -0.0970  0.3629
11907TIP3    H157136   6.092   2.497   5.778 -0.0843 -0.3239 -1.7678
11907TIP3    H257137   6.112   2.608   5.678  0.6763  1.8204  0.7157
11908TIP3   OH257138   3.885   4.908   5.479 -0.0758 -0.0083 -0.1078
11908TIP3    H157139   3.952   4.840   5.477 -0.2965 -0.2548  0.5086
11908TIP3    H257140   3.870   4.924   5.573  0.3648  1.2690 -0.2426
11909TIP3   OH257141   0.819   5.202  15.270  0.3116 -0.3348 -0.2777
11909TIP3    H157142   0.755   5.170  15.207  0.7617 -2.5781  0.3660
11909TIP3    H257143   0.786   5.172  15.355  0.5401  1.2870  0.4165
11910TIP3   OH257144   4.991   2.732   0.641 -1.2168  0.5266 -0.2987
11910TIP3    H157145   5.002   2.779   0.558 -0.8802 -0.8312 -1.0495
11910TIP3    H257146   4.907   2.688   0.632 -1.0091  0.0809 -0.0768
11911TIP3   OH257147   5.017   3.461  10.961 -0.4104 -0.8882  0.2565
11911TIP3    H157148   5.027   3.421  10.874 -0.5681  0.3273 -0.3406
11911TIP3    H257149   5.084   3.530  10.962 -1.3187 -0.0010  0.5668
11912TIP3   OH257150   6.523   4.619   3.535 -0.1934 -0.5898  0.2771
11912TIP3    H157151   6.600   4.660   3.494 -0.3075 -0.6540 -0.0005
11912TIP3    H257152   6.549   4.606   3.627 -0.1510  0.0849  0.3608
11913TIP3   OH257153   5.204   5.401   5.223  0.3255  0.6061  0.1520
11913TIP3    H157154   5.206   5.468   5.291 -0.1732 -0.3312  1.1135
11913TIP3    H257155   5.111   5.384   5.209  0.4624 -0.8470  0.9104
11914TIP3   OH257156   1.791   2.678   3.576 -0.2073  0.3247 -0.6496
11914TIP3    H157157   1.882   2.683   3.550 -0.9620 -0.0725 -3.4756
11914TIP3    H257158   1.774   2.585   3.590 -0.1843  0.3994 -0.1053
11915TIP3   OH257159   4.759   3.729   3.507 -0.4606 -0.3614 -0.0899
11915TIP3    H157160   4.826   3.787   3.471 -0.0014 -1.0925 -0.4147
11915TIP3    H257161   4.688   3.733   3.442 -0.3980 -0.2222 -0.1507
11916TIP3   OH257162   4.934   4.393  11.552 -0.8701 -0.0442 -0.4204
11916TIP3    H157163   4.896   4.314  11.591  0.9314 -1.2030 -0.9189
11916TIP3    H257164   4.903   4.393  11.461 -2.5488  0.9689  0.1340
11917TIP3   OH257165   5.274   5.527   4.043 -0.3464 -0.5629  0.6219
11917TIP3    H157166   5.215   5.544   3.970  0.0057 -2.3102 -0.0992
11917TIP3    H257167   5.228   5.462   4.097  2.0284 -4.2126 -1.5038
11918TIP3   OH257168   6.718   0.558   4.534 -0.3560  0.0892 -0.0280
11918TIP3    H157169   6.636   0.558   4.483 -1.4619 -1.9575  1.6707
11918TIP3    H257170   6.691   0.581   4.623  0.9885 -0.1723  0.4613
11919TIP3   OH257171   4.989   3.854  13.347 -0.2875 -0.1910 -0.1385
11919TIP3    H157172   4.985   3.916  13.420  0.1288 -0.8880  0.4916
11919TIP3    H257173   5.031   3.776  13.385  0.7473 -0.2379 -1.3505
11920TIP3   OH257174   3.208   3.575   1.281 -0.2718  0.1033  0.1086
11920TIP3    H157175   3.273   3.529   1.227  0.0831  0.0252  0.5962
11920TIP3    H257176   3.145   3.508   1.306 -0.1983  0.0489  0.1491
11921TIP3   OH257177   4.051   2.016  17.098 -0.4132  0.3177 -0.5756
11921TIP3    H157178   4.004   2.036  17.017 -2.1423 -2.5896 -0.3615
11921TIP3    H257179   4.138   1.987  17.068 -1.0535 -0.7892 -1.3934
11922TIP3   OH257180   5.800   0.840  14.098 -0.0359 -0.1551 -0.1744
11922TIP3    H157181   5.870   0.831  14.034 -1.5765 -3.3767 -1.4952
11922TIP3    H257182   5.735   0.775  14.073 -0.1987 -2.4085  5.2882
11923TIP3   OH257183   6.367   3.305   5.366  0.2403 -0.0177  0.3646
11923TIP3    H157184   6.334   3.237   5.424 -0.6028 -0.4035 -0.5386
11923TIP3    H257185   6.292   3.325   5.308  0.4826  1.6158  0.5707
11924TIP3   OH257186   1.961   5.101  17.063 -0.4970  0.4347 -0.1371
11924TIP3    H157187   1.901   5.175  17.061  0.3652  1.1175 -1.3958
11924TIP3    H257188   2.034   5.127  17.007  0.9907 -0.3790  1.3595
11925TIP3   OH257189   6.310   4.429  14.405  0.4526  0.5695 -0.0967
11925TIP3    H157190   6.362   4.360  14.363 -0.2879 -0.3250  0.4655
11925TIP3    H257191   6.240   4.447  14.343  0.0408  0.0749  0.2185
11926TIP3   OH257192   4.669   6.705  13.236 -0.3868  0.3109  0.7897
11926TIP3    H157193   4.632   6.618  13.252  0.6719 -0.2358  0.2876
11926TIP3    H257194   4.636   6.730  13.150  0.0394  0.0145  0.5379
11927TIP3   OH257195   3.918   1.709   1.381  0.5479 -0.2375  0.5111
11927TIP3    H157196   3.941   1.626   1.421  1.5393 -0.3538 -0.2727
11927TIP3    H257197   3.991   1.768   1.403  0.0971  0.2833  0.6391
11928TIP3   OH257198   0.643   4.392   4.141 -0.2105  0.2372 -0.0460
11928TIP3    H157199   0.619   4.345   4.221  0.7355 -0.3048 -0.0673
11928TIP3    H257200   0.574   4.456   4.129 -1.2583 -0.8147  0.2823
11929TIP3   OH257201   1.022   3.889  14.780 -0.0441 -0.5192 -0.1318
11929TIP3    H157202   0.937   3.914  14.814  0.1735  0.3794 -0.2106
11929TIP3    H257203   1.039   3.802  14.816  0.2442  0.4651  2.1671
11930TIP3   OH257204   5.904   6.396  16.593  0.0063  0.0617  0.5190
11930TIP3    H157205   5.838   6.402  16.523 -0.3293  0.7582  0.8876
11930TIP3    H257206   5.973   6.341  16.556  0.7191  1.9329 -1.0608
11931TIP3   OH257207   1.077   5.651   5.661  0.4229 -0.2131 -0.0645
11931TIP3    H157208   1.141   5.677   5.727  1.1576 -1.6626 -0.1856
11931TIP3    H257209   1.127   5.647   5.579 -0.4376  1.3804 -0.6866
11932TIP3   OH257210   0.139   4.363  13.062  0.6138 -0.1958 -0.4690
11932TIP3    H157211   0.164   4.288  13.116  0.6241 -0.3158 -0.6417
11932TIP3    H257212   0.222   4.404  13.037  0.6173 -0.2665 -0.5749
11933TIP3   OH257213   5.391   0.866   0.547 -0.4763  0.5521  0.3299
11933TIP3    H157214   5.399   0.799   0.614  1.0280  0.6380  0.2564
11933TIP3    H257215   5.415   0.948   0.591  1.8288  0.4312 -0.5869
11934TIP3   OH257216   5.966   3.364  15.902  0.1738 -0.4749  0.4603
11934TIP3    H157217   5.925   3.315  15.973  0.2885 -0.4737  0.5270
11934TIP3    H257218   5.941   3.455  15.918 -1.3178 -0.6964 -0.5184
11935TIP3   OH257219   4.195   5.853  12.995 -0.2410 -0.6215 -0.1313
11935TIP3    H157220   4.272   5.892  12.952 -1.2370  1.4239 -0.1207
11935TIP3    H257221   4.152   5.804  12.925  0.1610 -0.4072 -0.5327
11936TIP3   OH257222   5.578   4.701  16.785  0.2998  0.3508  0.3438
11936TIP3    H157223   5.492   4.736  16.808 -1.3827 -0.7701 -3.8865
11936TIP3    H257224   5.630   4.778  16.762 -0.4349  0.7982  0.1585
11937TIP3   OH257225   5.518   0.798  15.454  0.1635 -0.3551 -0.2615
11937TIP3    H157226   5.461   0.800  15.531  1.2163  0.0246  0.5240
11937TIP3    H257227   5.464   0.833  15.383 -0.9194 -1.0149  0.2288
11938TIP3   OH257228   0.466   1.158  16.941  0.4565 -0.2485 -0.0808
11938TIP3    H157229   0.468   1.062  16.943  0.2766 -0.2188  1.5536
11938TIP3    H257230   0.387   1.182  16.989  0.6804  0.7408 -0.1980
11939TIP3   OH257231   2.756   3.642  12.704  0.4753 -0.2390 -0.0608
11939TIP3    H157232   2.828   3.646  12.642 -0.4240  0.0626 -1.0979
11939TIP3    H257233   2.798   3.620  12.788  1.6662 -0.8599 -0.8046
11940TIP3   OH257234   6.754   2.345   4.453 -1.2578  0.3124  0.0210
11940TIP3    H157235   6.751   2.322   4.546 -0.6752 -0.2535 -0.0995
11940TIP3    H257236   6.831   2.401   4.444 -0.8781 -0.2603 -0.2644
11941TIP3   OH257237   5.155   1.591  15.672 -0.0644  0.7561  0.3118
11941TIP3    H157238   5.105   1.665  15.704 -0.9890  0.5459 -0.6251
11941TIP3    H257239   5.142   1.592  15.577  0.9492  0.1495  0.1541
11942TIP3   OH257240   3.212   2.108  15.747  0.2416 -0.1387 -0.4387
11942TIP3    H157241   3.221   2.187  15.694 -0.2814  0.8252  0.8490
11942TIP3    H257242   3.133   2.066  15.714 -1.1233  1.4217  0.7386
11943TIP3   OH257243   1.623   3.446  12.784 -0.4703 -0.2991 -0.0870
11943TIP3    H157244   1.716   3.467  12.793 -0.3646 -0.5374 -0.6257
11943TIP3    H257245   1.605   3.456  12.691 -1.2402  0.8186  0.1685
11944TIP3   OH257246   3.866   4.243   2.540 -0.3422 -0.1633 -0.0658
11944TIP3    H157247   3.849   4.250   2.446  1.3588 -3.1782 -0.6555
11944TIP3    H257248   3.836   4.156   2.564  1.9615 -0.5698  1.5425
11945TIP3   OH257249   1.226   0.660  14.406 -0.0410 -0.5573  0.6814
11945TIP3    H157250   1.222   0.624  14.495  0.6603 -0.6535  0.6776
11945TIP3    H257251   1.175   0.740  14.410  0.8989  0.0042  1.4507
11946TIP3   OH257252   2.509   3.148  15.298 -0.0866  0.1333 -0.0147
11946TIP3    H157253   2.426   3.126  15.342 -0.0222  0.3705  0.2259
11946TIP3    H257254   2.509   3.093  15.219 -0.6243  0.3633 -0.1840
11947TIP3   OH257255   1.192   6.725  10.648 -0.0016 -0.2450  0.1431
11947TIP3    H157256   1.110   6.761  10.682 -0.7046 -0.1618 -1.6104
11947TIP3    H257257   1.254   6.733  10.721 -1.0461  1.4014  0.8780
11948TIP3   OH257258   0.648   1.598   1.645  0.1028 -0.5078 -0.0725
11948TIP3    H157259   0.667   1.669   1.707  1.3700 -0.3167 -0.6458
11948TIP3    H257260   0.589   1.637   1.581  0.3517 -0.1252 -0.0721
11949TIP3   OH257261   5.570   5.490   2.355  0.8171  0.2495 -0.1789
11949TIP3    H157262   5.620   5.522   2.431  1.4699 -2.8027  0.7742
11949TIP3    H257263   5.484   5.467   2.391 -0.1885  2.4200 -1.1653
11950TIP3   OH257264   5.060   0.385  15.451  0.3352  0.6256  0.5261
11950TIP3    H157265   4.990   0.372  15.387 -0.7524  1.2778  1.5633
11950TIP3    H257266   5.128   0.432  15.403  0.2365 -0.3266 -0.5948
11951TIP3   OH257267   2.098   6.361   0.047 -0.4178 -0.0614  0.1425
11951TIP3    H157268   2.142   6.286   0.087 -0.1166 -0.2947 -0.6295
11951TIP3    H257269   2.008   6.331   0.034 -0.1999 -0.4278 -0.5333
11952TIP3   OH257270   5.370   0.923   2.327 -0.1790  0.1585  1.0482
11952TIP3    H157271   5.358   1.017   2.340 -0.8561 -0.0214  1.8062
11952TIP3    H257272   5.441   0.916   2.263  0.9304  1.1566  2.1374
11953TIP3   OH257273   3.256   3.162   1.585  0.2564  0.4288  0.5398
11953TIP3    H157274   3.272   3.190   1.675 -1.3423 -0.0054  0.9743
11953TIP3    H257275   3.173   3.204   1.561 -0.8455 -1.7728  0.3082
11954TIP3   OH257276   3.070   4.102   6.505  0.1912  0.3826  0.4923
11954TIP3    H157277   2.978   4.128   6.510 -0.8139 -2.6021 -1.0194
11954TIP3    H257278   3.092   4.075   6.594 -0.5698  0.5899  0.7524
11955TIP3   OH257279   2.718   3.944   6.169  0.3812 -0.0704 -0.0294
11955TIP3    H157280   2.719   4.018   6.230  0.6175 -0.1791  0.0973
11955TIP3    H257281   2.722   3.867   6.225  0.9805 -0.1621 -0.1994
11956TIP3   OH257282   2.845   6.081   2.924 -0.5994  0.8037  0.3384
11956TIP3    H157283   2.834   6.118   2.836 -1.2188  0.0700  0.1019
11956TIP3    H257284   2.828   5.987   2.913  0.1635  0.5746  1.0848
11957TIP3   OH257285   0.592   5.410  15.161 -0.2956 -0.3568 -0.1456
11957TIP3    H157286   0.643   5.329  15.172  0.8095  0.5231  1.4601
11957TIP3    H257287   0.642   5.476  15.208 -2.8961  0.5643  1.4487
11958TIP3   OH257288   0.520   6.268   3.680  0.7472  0.5351  0.2473
11958TIP3    H157289   0.525   6.240   3.772  0.1127  0.1565  0.1649
11958TIP3    H257290   0.595   6.226   3.638  0.7394  0.2851  0.4795
11959TIP3   OH257291   2.014   1.864  11.717  0.5376 -0.3187 -0.0907
11959TIP3    H157292   2.054   1.779  11.734 -1.2501 -1.2906 -0.6421
11959TIP3    H257293   1.948   1.874  11.785 -1.6473 -0.9644 -2.0592
11960TIP3   OH257294   1.102   5.533   0.909 -0.5195 -1.1787  0.5772
11960TIP3    H157295   1.110   5.438   0.904  0.8092 -1.1107  1.3005
11960TIP3    H257296   1.189   5.564   0.932 -0.3057  0.4290 -2.1856
11961TIP3   OH257297   0.199   0.466  14.348 -0.4285  0.3028 -0.0900
11961TIP3    H157298   0.145   0.508  14.415  0.3390  0.6090  0.3438
11961TIP3    H257299   0.283   0.452  14.391 -0.8774 -2.3144 -0.0030
11962TIP3   OH257300   1.634   1.735   3.275  0.0066  0.2977  0.3459
11962TIP3    H157301   1.670   1.688   3.350 -0.6696 -0.5141  0.1644
11962TIP3    H257302   1.625   1.669   3.206 -1.6480  0.5261  0.3225
11963TIP3   OH257303   0.913   5.424  16.269  0.4202 -0.0604 -0.7353
11963TIP3    H157304   0.885   5.423  16.360  0.6769  1.9002 -0.6187
11963TIP3    H257305   0.909   5.333  16.242  0.4860 -0.6777  1.2732
11964TIP3   OH257306   4.858   6.451   2.547 -0.1702 -0.3032 -0.3041
11964TIP3    H157307   4.895   6.445   2.459 -0.3363  0.1431 -0.4058
11964TIP3    H257308   4.879   6.540   2.575  0.5252 -0.6775  0.3930
11965TIP3   OH257309   2.718   4.814  11.585 -0.5075 -0.1320  0.7207
11965TIP3    H157310   2.806   4.803  11.620 -0.6422  0.5599  1.2753
11965TIP3    H257311   2.668   4.854  11.656 -0.9034  0.8264 -0.0815
11966TIP3   OH257312   3.102   1.107  16.351  0.2423 -0.1781 -0.3575
11966TIP3    H157313   3.051   1.172  16.400  0.4886 -0.4806  0.3068
11966TIP3    H257314   3.124   1.040  16.415  0.4166 -0.6733 -0.9231
11967TIP3   OH257315   2.918   0.346   0.334  0.0351  0.1961  0.2922
11967TIP3    H157316   2.875   0.294   0.402  0.8318 -2.0866 -0.8753
11967TIP3    H257317   2.852   0.355   0.265  0.7063 -1.5021 -0.5987
11968TIP3   OH257318   4.684   0.816   5.075 -0.0508 -0.6760 -0.5527
11968TIP3    H157319   4.682   0.860   5.160 -0.2158 -1.1720 -0.3009
11968TIP3    H257320   4.633   0.736   5.087 -1.8789  0.2583 -1.6946
11969TIP3   OH257321   1.795   5.425  16.740  0.0503  0.2508 -0.2186
11969TIP3    H157322   1.763   5.501  16.691 -2.9800 -1.0956 -0.4486
11969TIP3    H257323   1.716   5.382  16.773  1.5345 -3.6985 -1.4366
11970TIP3   OH257324   0.902   3.474  13.813  0.0439  0.4800 -0.6195
11970TIP3    H157325   0.941   3.554  13.846 -1.0944  1.3015 -1.2158
11970TIP3    H257326   0.820   3.502  13.772 -1.5147 -1.2736  1.1659
11971TIP3   OH257327   1.643   3.663  16.901  0.4842  0.7369  0.3125
11971TIP3    H157328   1.645   3.643  16.995  0.0855 -0.2385  0.1165
11971TIP3    H257329   1.735   3.671  16.877  0.5575  5.5721  1.7218
11972TIP3   OH257330   1.556   1.915  11.977  0.0074  0.3660 -0.3313
11972TIP3    H157331   1.596   1.976  12.039  1.6644  0.8666 -1.8598
11972TIP3    H257332   1.477   1.960  11.947  0.1278  0.8679  0.0936
11973TIP3   OH257333   2.324   2.061  13.454 -0.8067 -0.2988 -0.0679
11973TIP3    H157334   2.274   2.124  13.401 -1.2129 -1.6148 -1.2945
11973TIP3    H257335   2.380   2.017  13.391  0.5201 -0.1815  1.0164
11974TIP3   OH257336   4.033   4.059   3.664 -0.3321  0.0976  0.0384
11974TIP3    H157337   3.995   4.057   3.576 -0.6066  0.1509  0.1585
11974TIP3    H257338   4.017   4.148   3.695  1.4929  0.6952 -0.6320
11975TIP3   OH257339   4.825   1.873  15.095 -0.4726 -0.6131  0.6185
11975TIP3    H157340   4.866   1.879  15.009 -0.3889  0.0642  0.7037
11975TIP3    H257341   4.897   1.884  15.157 -0.6852 -0.0282  0.7694
11976TIP3   OH257342   1.243   3.094  12.143 -0.3221  0.0772 -0.4792
11976TIP3    H157343   1.312   3.038  12.178  0.3889 -0.5249 -2.7369
11976TIP3    H257344   1.170   3.035  12.126 -1.1905  0.6017  1.2559
11977TIP3   OH257345   3.675   2.650  10.594 -0.9123 -0.2536 -1.0130
11977TIP3    H157346   3.680   2.588  10.667  2.1223  1.1438  0.0099
11977TIP3    H257347   3.584   2.644  10.564 -1.3237 -3.3412  0.6701
11978TIP3   OH257348   1.202   2.244   5.260 -0.4306  0.2419  0.3867
11978TIP3    H157349   1.118   2.271   5.224 -0.0169  2.1889  0.8060
11978TIP3    H257350   1.180   2.178   5.326 -1.5691  0.3272  0.1067
11979TIP3   OH257351   2.655   3.409  16.115 -0.5173 -0.1031 -0.0792
11979TIP3    H157352   2.713   3.427  16.040 -1.5632 -1.0335 -1.1418
11979TIP3    H257353   2.715   3.397  16.189  0.5140  1.2276 -0.6744
11980TIP3   OH257354   2.371   2.301   1.871  0.4674  0.1516 -0.2756
11980TIP3    H157355   2.366   2.222   1.924 -0.8363 -1.5510 -2.8468
11980TIP3    H257356   2.347   2.372   1.931  0.0114 -1.5776  1.6352
11981TIP3   OH257357   2.177   0.784  12.948 -0.1016 -0.1714 -0.2991
11981TIP3    H157358   2.235   0.838  13.002 -0.0259  0.0872 -0.6346
11981TIP3    H257359   2.091   0.792  12.990  0.4395 -1.9846  1.2348
11982TIP3   OH257360   4.861   3.443   1.955  0.4969 -0.3143 -0.2100
11982TIP3    H157361   4.823   3.391   1.885 -0.2199 -0.1154  0.0214
11982TIP3    H257362   4.817   3.413   2.034  2.8241 -2.0400  0.4805
11983TIP3   OH257363   0.590   3.520  14.192  0.4369 -0.6377  0.0057
11983TIP3    H157364   0.582   3.424  14.189  0.4698 -0.7013  1.3296
11983TIP3    H257365   0.662   3.536  14.254  1.4843  0.2209 -1.4134
11984TIP3   OH257366   3.744   6.323  16.777  0.2368 -0.2194 -0.5583
11984TIP3    H157367   3.744   6.243  16.829 -0.9843 -0.1513 -0.4295
11984TIP3    H257368   3.651   6.341  16.761  0.5385  0.5817 -1.4928
11985TIP3   OH257369   6.429   4.966   1.857  0.3357 -0.0513 -0.1460
11985TIP3    H157370   6.449   4.891   1.912  2.5495 -0.0863 -0.9560
11985TIP3    H257371   6.342   4.994   1.886  2.1759  1.1405  4.7070
11986TIP3   OH257372   6.069   2.134   3.332  0.6661 -0.2851 -0.1116
11986TIP3    H157373   5.991   2.125   3.277 -0.0516 -0.4101  0.8954
11986TIP3    H257374   6.076   2.227   3.349  0.6365 -0.2922 -0.0599
11987TIP3   OH257375   0.558   5.314  13.990  0.8978  0.0186  0.1249
11987TIP3    H157376   0.585   5.398  14.027  0.6985  0.2941 -0.3416
11987TIP3    H257377   0.527   5.263  14.065  1.1641  0.3085  0.4311
11988TIP3   OH257378   0.164   5.616   0.508 -0.5623 -0.4204 -0.0237
11988TIP3    H157379   0.121   5.552   0.451  0.4303  0.0311 -1.2944
11988TIP3    H257380   0.171   5.696   0.455 -0.9692  0.4824  1.2326
11989TIP3   OH257381   0.226   1.807  10.641  0.1926 -0.6683  0.0444
11989TIP3    H157382   0.314   1.808  10.679  0.1834  0.9225  0.0449
11989TIP3    H257383   0.214   1.716  10.612  1.8182 -0.9143  0.0697
11990TIP3   OH257384   3.233   0.874  15.622  0.0470  0.1018  0.2591
11990TIP3    H157385   3.140   0.896  15.622  0.3390  1.6325  3.4646
11990TIP3    H257386   3.238   0.788  15.663 -0.0258 -0.5349 -1.0347
11991TIP3   OH257387   2.637   2.683   6.541 -0.2367 -0.4240 -0.4392
11991TIP3    H157388   2.669   2.772   6.526  0.8967 -0.5052  1.4245
11991TIP3    H257389   2.689   2.628   6.482  3.7039 -0.6613  3.1055
11992TIP3   OH257390   4.980   5.870  14.517 -0.1034 -0.1350  0.4199
11992TIP3    H157391   5.020   5.950  14.482  0.2329 -1.4453 -2.3574
11992TIP3    H257392   5.017   5.800  14.463 -0.6777 -2.1434  2.5723
11993TIP3   OH257393   5.902   0.223  14.164  0.1341 -0.0949  0.3771
11993TIP3    H157394   5.912   0.128  14.175  0.2838 -0.2055 -0.6329
11993TIP3    H257395   5.854   0.251  14.242 -0.9126 -1.1716  0.1426
11994TIP3   OH257396   0.515   2.111   1.773 -0.9240  0.3947  0.6187
11994TIP3    H157397   0.527   2.205   1.761  0.5666  0.0589 -0.6591
11994TIP3    H257398   0.452   2.104   1.845 -1.6331  2.3669  0.2200
11995TIP3   OH257399   4.123   0.884   5.895  0.2103 -0.0738 -0.2119
11995TIP3    H157400   4.183   0.904   5.968 -1.3025 -0.4286  1.1584
11995TIP3    H257401   4.112   0.967   5.849 -1.6613  1.0426  2.1416
11996TIP3   OH257402   4.620   2.990   3.968  0.1831 -0.3286  0.4623
11996TIP3    H157403   4.695   2.987   4.028 -0.9028 -0.0788  1.8692
11996TIP3    H257404   4.551   2.941   4.013  0.2252 -2.6135 -1.8827
11997TIP3   OH257405   5.187   3.946  15.666  0.1219 -0.3554  0.1036
11997TIP3    H157406   5.255   4.003  15.631  0.9972 -0.3302  1.8160
11997TIP3    H257407   5.206   3.860  15.631  0.6659 -0.2227  0.0774
11998TIP3   OH257408   3.834   6.741   2.209  0.2164  0.1111  0.9365
11998TIP3    H157409   3.802   6.656   2.179 -1.1697  1.0704 -0.3645
11998TIP3    H257410   3.930   6.732   2.210  0.1059 -1.2273  0.1507
11999TIP3   OH257411   4.303   0.231   5.628  0.1308 -0.5035  0.0666
11999TIP3    H157412   4.237   0.192   5.685 -0.4488 -0.2137 -0.4036
11999TIP3    H257413   4.254   0.268   5.555  0.7213  0.7208  0.2826
12000TIP3   OH257414   3.122   1.385  11.643 -0.9113  0.2951  0.4161
12000TIP3    H157415   3.110   1.344  11.729  1.8267  0.1396  0.7862
12000TIP3    H257416   3.203   1.436  11.653 -0.4733  0.1247 -2.1403
12001TIP3   OH257417   3.702   0.017  15.251 -0.3122  0.3034  0.0691
12001TIP3    H157418   3.684  -0.074  15.228  0.7657  0.4976 -1.5871
12001TIP3    H257419   3.777   0.013  15.310 -0.0043  0.1416 -0.3312
12002TIP3   OH257420   2.337   5.122  15.325  0.5171  0.1090  0.4920
12002TIP3    H157421   2.335   5.061  15.251  0.2779  0.9383 -0.1792
12002TIP3    H257422   2.395   5.079  15.389  0.0459 -1.0103  0.1877
12003TIP3   OH257423   5.578   4.021   5.812  0.3638  0.0984  0.8074
12003TIP3    H157424   5.595   3.970   5.891 -0.6257 -0.5794  0.5981
12003TIP3    H257425   5.526   4.096   5.842  2.1553  1.2173  1.1761
12004TIP3   OH257426   6.780   4.453   2.633  0.8222 -0.0980 -0.0527
12004TIP3    H157427   6.830   4.533   2.651  2.2562 -1.4219  2.1496
12004TIP3    H257428   6.845   4.392   2.598 -0.1264 -0.5064 -1.1062
12005TIP3   OH257429   0.105   0.810   3.992 -0.5649  0.1162 -0.9974
12005TIP3    H157430   0.053   0.876   3.946 -1.8806  0.1406  0.5010
12005TIP3    H257431   0.095   0.832   4.084  1.4565 -0.3776 -0.6409
12006TIP3   OH257432   0.588   2.629   5.430  0.1396 -0.3986 -0.2313
12006TIP3    H157433   0.508   2.630   5.378 -0.0958 -1.3849  0.1102
12006TIP3    H257434   0.630   2.713   5.411 -0.3200 -0.4288 -1.4212
12007TIP3   OH257435   1.223   3.529  16.352  0.0810 -0.1745 -0.0980
12007TIP3    H157436   1.303   3.478  16.337  1.1308  1.4969 -0.2956
12007TIP3    H257437   1.250   3.597  16.414 -1.2264  0.3028 -0.0524
12008TIP3   OH257438   1.342   6.716   5.400 -0.4995  0.2871 -0.0092
12008TIP3    H157439   1.381   6.792   5.444  0.6068  0.2557 -0.8963
12008TIP3    H257440   1.413   6.680   5.347 -0.2864 -2.8527  2.2686
12009TIP3   OH257441   4.947   0.525  17.137 -0.0931  0.7489 -0.4525
12009TIP3    H157442   5.024   0.470  17.120  0.6239  1.8044 -0.6658
12009TIP3    H257443   4.981   0.599  17.187 -1.4185 -0.0657  1.7291
12010TIP3   OH257444   6.205   0.473  11.623 -0.5345  0.1152 -0.6156
12010TIP3    H157445   6.173   0.563  11.612 -2.4386 -0.5303 -0.4594
12010TIP3    H257446   6.180   0.449  11.712  0.6929 -0.2985 -0.3705
12011TIP3   OH257447   6.389   6.703   1.280  0.2352 -0.2826 -0.2553
12011TIP3    H157448   6.353   6.758   1.210  0.7311 -0.6730 -0.8332
12011TIP3    H257449   6.408   6.763   1.351 -1.3483 -0.0478 -0.0242
12012TIP3   OH257450   2.697   4.140  15.601  0.7043 -0.3529  0.0557
12012TIP3    H157451   2.657   4.053  15.593 -0.3710  0.1037  0.3274
12012TIP3    H257452   2.623   4.201  15.599  1.5763  0.6809 -1.8504
12013TIP3   OH257453   2.839   4.756   5.600  0.3752 -0.2436  0.2985
12013TIP3    H157454   2.775   4.820   5.570 -0.1019 -0.8441  0.0382
12013TIP3    H257455   2.882   4.726   5.520 -1.0961 -2.0550  0.1651
12014TIP3   OH257456   2.316   2.374   1.141  0.1768 -0.5469  0.1787
12014TIP3    H157457   2.310   2.470   1.148 -0.0264 -0.5267 -0.2694
12014TIP3    H257458   2.293   2.355   1.050  2.4797 -0.8500 -0.3686
12015TIP3   OH257459   0.280   5.922   3.000  0.1821 -0.4645 -0.0342
12015TIP3    H157460   0.325   5.956   2.923  0.4492  1.2041  0.8363
12015TIP3    H257461   0.347   5.873   3.048  0.1672 -0.9815 -0.5338
12016TIP3   OH257462   5.223   0.816   1.896  0.5027  0.0825  0.5972
12016TIP3    H157463   5.239   0.772   1.979 -0.3102  1.4584  1.5058
12016TIP3    H257464   5.141   0.777   1.864  0.9169 -0.5846  0.3229
12017TIP3   OH257465   0.018   4.925   0.547 -0.4169 -0.2028 -0.2121
12017TIP3    H157466   0.110   4.951   0.539 -0.6128  0.6141  0.1509
12017TIP3    H257467   0.002   4.870   0.470  0.5456 -0.8629  0.0578
12018TIP3   OH257468   3.075   3.536   4.534  0.2573 -0.1216 -0.1444
12018TIP3    H157469   3.028   3.536   4.618  1.5679  0.4795  0.6070
12018TIP3    H257470   3.050   3.619   4.493  0.9615  0.3965  0.4453
12019TIP3   OH257471   0.584   5.669   0.281  0.8019 -0.3087 -0.4871
12019TIP3    H157472   0.601   5.743   0.340  0.6788 -0.3462 -0.4045
12019TIP3    H257473   0.627   5.693   0.199  0.6934 -0.1130 -0.4851
12020TIP3   OH257474   5.642   1.873   4.375  0.1829  0.0432 -0.4297
12020TIP3    H157475   5.697   1.952   4.378 -0.0097  0.2256 -1.6011
12020TIP3    H257476   5.704   1.801   4.387  0.7605  0.2192 -2.1743
12021TIP3   OH257477   4.444   4.836  12.254 -0.5875 -0.2153 -0.2456
12021TIP3    H157478   4.517   4.879  12.209 -0.6498 -0.3786 -0.5107
12021TIP3    H257479   4.365   4.873  12.214 -0.6770  0.9913  1.0268
12022TIP3   OH257480   5.797   0.508  10.682  0.3158  0.6192  0.5832
12022TIP3    H157481   5.855   0.542  10.613 -0.0136 -0.2444 -0.1277
12022TIP3    H257482   5.712   0.546  10.662 -0.5459 -2.2497 -1.4670
12023TIP3   OH257483   0.411   6.583   6.154  0.3038  0.4733 -0.6138
12023TIP3    H157484   0.432   6.676   6.160 -0.1290  0.5492 -0.2664
12023TIP3    H257485   0.412   6.552   6.245 -2.6339  0.8205 -0.4301
12024TIP3   OH257486   4.218   6.394   3.850 -0.4308 -0.3466  0.3024
12024TIP3    H157487   4.171   6.464   3.895 -0.1891  0.7407 -1.1077
12024TIP3    H257488   4.304   6.392   3.893 -0.9218 -0.7285  1.2799
12025TIP3   OH257489   0.433   3.395  10.981 -0.5035 -0.7093  0.1594
12025TIP3    H157490   0.387   3.357  10.906  2.5267 -2.6042 -0.8412
12025TIP3    H257491   0.476   3.320  11.024  1.3458  0.8914  1.2114
12026TIP3   OH257492   4.478   5.765   5.372 -0.1378  0.6586 -0.0389
12026TIP3    H157493   4.525   5.839   5.333  0.6721 -1.4110 -3.2451
12026TIP3    H257494   4.531   5.688   5.349 -2.7634 -1.2779  0.1266
12027TIP3   OH257495   4.930   2.932  10.980 -0.1620  0.6256 -0.1937
12027TIP3    H157496   4.906   2.897  11.066 -1.2564  1.5969 -0.0881
12027TIP3    H257497   4.847   2.941  10.934  0.3542  0.7498 -1.1180
12028TIP3   OH257498   2.363   2.033   3.743 -0.2957  0.1536 -0.2683
12028TIP3    H157499   2.339   2.125   3.755 -1.6553 -0.4595  1.8774
12028TIP3    H257500   2.458   2.035   3.730 -0.3527  1.8808 -0.6068
12029TIP3   OH257501   3.747   3.115  15.197 -0.4558  0.3353  0.3765
12029TIP3    H157502   3.755   3.020  15.210  0.0823  0.0293 -2.0888
12029TIP3    H257503   3.827   3.151  15.235 -0.6945 -0.1694  1.3868
12030TIP3   OH257504   1.056   3.070   2.479  0.0243 -0.2353 -0.3527
12030TIP3    H157505   1.145   3.045   2.453  0.1079 -1.0995  0.7158
12030TIP3    H257506   1.045   3.030   2.565 -1.3357  0.0407 -0.4006
12031TIP3   OH257507   5.116   1.508   3.091 -0.6497  0.5850 -0.5583
12031TIP3    H157508   5.121   1.513   2.995 -3.3754 -0.1176 -0.7933
12031TIP3    H257509   5.121   1.414   3.110  2.2047  0.8482  0.1999
12032TIP3   OH257510   6.075   1.479  15.380  0.0691 -0.2045  0.2560
12032TIP3    H157511   6.102   1.402  15.330  1.4694 -0.3703  1.2568
12032TIP3    H257512   6.081   1.552  15.317  2.2648 -0.3341  0.2709
12033TIP3   OH257513   4.903   5.302   0.447 -0.3931  0.1512  0.1734
12033TIP3    H157514   4.863   5.225   0.406  2.1903 -0.9427 -0.3765
12033TIP3    H257515   4.867   5.376   0.398 -0.0097 -0.9283 -1.7910
12034TIP3   OH257516   4.125   3.571  11.495  0.5071  0.4853  0.2995
12034TIP3    H157517   4.111   3.486  11.453 -1.6215  0.4074  1.1030
12034TIP3    H257518   4.216   3.568  11.524  0.5214 -1.4439  0.1547
12035TIP3   OH257519   4.127   3.739  12.884  0.4523 -0.0586 -0.3142
12035TIP3    H157520   4.174   3.668  12.927 -1.5849 -0.4867  1.2466
12035TIP3    H257521   4.138   3.814  12.941  0.1056  0.1116 -0.4696
12036TIP3   OH257522   4.502   4.136  11.037  0.3290  0.8558  0.5345
12036TIP3    H157523   4.578   4.126  11.095  1.6692  2.4407 -0.8936
12036TIP3    H257524   4.456   4.212  11.070  0.5090  1.1273  0.1620
12037TIP3   OH257525   5.276   3.268   5.007  0.2457  0.0875  0.2446
12037TIP3    H157526   5.184   3.281   4.982 -0.1025 -0.8388  0.9927
12037TIP3    H257527   5.272   3.247   5.101  1.1015 -1.2939 -0.0132
12038TIP3   OH257528   2.365   1.455   4.637  0.1887  0.1085 -0.1689
12038TIP3    H157529   2.333   1.403   4.711  0.2388  0.3167 -0.0000
12038TIP3    H257530   2.450   1.489   4.667  1.6038 -2.2020 -1.4080
12039TIP3   OH257531   4.953   4.501   1.550  0.1264 -0.5861 -0.6309
12039TIP3    H157532   5.016   4.463   1.612  0.4799  2.8519  1.2287
12039TIP3    H257533   4.869   4.498   1.596  0.2743  1.4165 -0.2153
12040TIP3   OH257534   2.284   3.412  11.116 -0.0530  0.3652 -0.1372
12040TIP3    H157535   2.252   3.497  11.146  0.3720  0.2096  0.7931
12040TIP3    H257536   2.318   3.370  11.196  1.1524 -0.0352 -0.8505
12041TIP3   OH257537   2.639   1.233  12.358 -0.3440  0.6409  0.1785
12041TIP3    H157538   2.726   1.249  12.321  0.0084  2.0804  1.5627
12041TIP3    H257539   2.655   1.181  12.436 -1.1461 -2.9911 -1.9712
12042TIP3   OH257540   2.938   3.199   2.811 -0.1173 -0.5353  0.6218
12042TIP3    H157541   2.889   3.173   2.733  0.8008  0.5371 -0.3346
12042TIP3    H257542   2.874   3.192   2.883 -1.0117 -1.3936 -0.2411
12043TIP3   OH257543   3.033   2.215  17.001 -0.0814 -0.1639 -0.0026
12043TIP3    H157544   3.084   2.186  17.077 -0.3704 -0.9865 -0.1185
12043TIP3    H257545   3.043   2.144  16.937  0.0802  0.4734 -0.7018
12044TIP3   OH257546   4.265   5.729   5.941  0.4231 -0.8628 -0.2634
12044TIP3    H157547   4.341   5.751   5.995 -0.8261  0.3052  1.0810
12044TIP3    H257548   4.230   5.814   5.913 -1.4336 -1.2994  0.6558
12045TIP3   OH257549   0.793   0.234   4.702 -0.5895  0.4580  0.3277
12045TIP3    H157550   0.769   0.223   4.610 -0.6306 -1.3333  0.5310
12045TIP3    H257551   0.881   0.272   4.700  0.5419 -2.0473 -0.5102
12046TIP3   OH257552   5.783   6.580  15.732  0.6361  0.3166 -0.1780
12046TIP3    H157553   5.824   6.553  15.814 -1.1101  2.0948  1.3339
12046TIP3    H257554   5.851   6.626  15.683  1.9057 -1.4362 -0.0951
12047TIP3   OH257555   4.234   4.643  14.361  0.1378  0.0058 -0.3054
12047TIP3    H157556   4.209   4.570  14.305 -0.0042  0.3525 -0.6934
12047TIP3    H257557   4.235   4.606  14.449 -3.3591  0.3302 -0.0357
12048TIP3   OH257558   6.480   1.789   1.539 -0.2734 -0.2293 -1.0658
12048TIP3    H157559   6.455   1.734   1.465 -0.6185 -2.2942  0.5179
12048TIP3    H257560   6.405   1.785   1.598  0.5890  0.1248  0.0706
12049TIP3   OH257561   3.519   4.615  11.263 -0.3184 -0.3318  0.2133
12049TIP3    H157562   3.548   4.536  11.217 -0.2775 -0.4993  0.5270
12049TIP3    H257563   3.493   4.584  11.350  1.2246  0.2585  0.8919
12050TIP3   OH257564   1.074   4.786  11.897  0.0115 -0.3757 -0.2314
12050TIP3    H157565   1.133   4.859  11.914 -0.1439 -0.0116 -1.2240
12050TIP3    H257566   1.085   4.729  11.973 -1.8773  1.9591  1.8634
12051TIP3   OH257567   5.956   3.513   5.492  0.0554  0.0761  0.4542
12051TIP3    H157568   6.039   3.475   5.521 -0.9716 -1.6435  1.2549
12051TIP3    H257569   5.937   3.468   5.410 -0.7366 -0.5486  0.9678
12052TIP3   OH257570   4.009   5.485  15.754 -0.4464 -0.5214 -0.0437
12052TIP3    H157571   4.028   5.408  15.808  1.7092 -0.1506 -0.2378
12052TIP3    H257572   4.047   5.464  15.669 -0.6197  0.3943 -0.3481
12053TIP3   OH257573   5.716   0.526  15.250  0.4760  0.0087  0.4576
12053TIP3    H157574   5.762   0.485  15.323  1.9875 -2.4578 -1.8057
12053TIP3    H257575   5.737   0.619  15.258  1.9897 -0.4544  2.1601
12054TIP3   OH257576   1.825   6.317   3.937  1.0638  0.4986  0.0459
12054TIP3    H157577   1.816   6.365   3.855  1.5880  0.6038  0.0490
12054TIP3    H257578   1.865   6.379   3.998  1.2056  0.2462  0.2149
12055TIP3   OH257579   5.766   6.326  16.302 -0.1450  0.0352 -0.3083
12055TIP3    H157580   5.698   6.347  16.238 -0.1442 -0.6391 -0.5329
12055TIP3    H257581   5.827   6.270  16.254  0.2196  0.0954  0.0841
12056TIP3   OH257582   2.916   1.704   0.462  0.7293 -0.0164 -0.1385
12056TIP3    H157583   2.983   1.637   0.472  1.0291  0.2983 -0.0370
12056TIP3    H257584   2.932   1.742   0.375  1.1998  0.6219  0.2227
12057TIP3   OH257585   1.513   2.733   3.555  0.2110  0.5134 -0.3844
12057TIP3    H157586   1.477   2.676   3.623  0.1672 -0.6730 -1.3796
12057TIP3    H257587   1.607   2.712   3.554 -0.3355 -2.0605 -3.0698
12058TIP3   OH257588   5.463   2.552   4.498  0.1513  0.2176 -0.1146
12058TIP3    H157589   5.387   2.559   4.440 -1.2076 -0.0672  1.5957
12058TIP3    H257590   5.538   2.544   4.438 -1.4104 -2.2679 -1.8653
12059TIP3   OH257591   5.031   2.051   1.303 -0.2269 -0.7046 -0.1009
12059TIP3    H157592   4.997   2.007   1.380 -1.1055  0.1989  0.0310
12059TIP3    H257593   5.045   2.142   1.331 -0.3425 -0.4250 -0.9411
12060TIP3   OH257594   3.412   1.682   2.765  0.1034 -0.3297 -0.1537
12060TIP3    H157595   3.489   1.638   2.801 -1.3714 -2.1753  0.8202
12060TIP3    H257596   3.348   1.612   2.753 -1.7661  1.3235 -0.0541
12061TIP3   OH257597   1.236   5.333  11.425  0.0346  0.2385 -0.5219
12061TIP3    H157598   1.224   5.407  11.366 -0.3276 -0.2161 -1.0198
12061TIP3    H257599   1.170   5.346  11.494  0.6458  0.9195 -0.0611
12062TIP3   OH257600   6.606   1.048  16.976 -0.0961  0.0831 -0.3057
12062TIP3    H157601   6.639   1.065  17.065 -0.8394  0.6300 -0.1267
12062TIP3    H257602   6.513   1.068  16.982 -0.4967 -1.5793 -0.7630
12063TIP3   OH257603   1.940   6.054   1.843  0.3677 -0.2056  1.0908
12063TIP3    H157604   1.962   6.002   1.920  0.9246  0.2920  1.2684
12063TIP3    H257605   2.020   6.054   1.790 -0.0018 -0.5293  0.5112
12064TIP3   OH257606   4.315   0.103   5.083 -0.1181  0.1554  0.7048
12064TIP3    H157607   4.407   0.100   5.110 -0.1135  0.5393  0.7386
12064TIP3    H257608   4.319   0.113   4.988 -0.1326 -0.7437  0.6076
12065TIP3   OH257609   3.504   6.704  11.767  0.2333  0.5559  0.8135
12065TIP3    H157610   3.470   6.678  11.682  1.0362  1.1762  0.2941
12065TIP3    H257611   3.599   6.691  11.760  0.6530  3.4318  0.5892
12066TIP3   OH257612   5.950   6.602   5.252 -0.0842  0.1877 -0.1420
12066TIP3    H157613   5.926   6.530   5.310  0.5466  0.0112 -0.0995
12066TIP3    H257614   5.869   6.622   5.204 -0.9313  1.1639  1.6573
12067TIP3   OH257615   6.335   3.321   4.646  0.2994  0.5146 -0.2785
12067TIP3    H157616   6.430   3.333   4.647  0.3295  0.2393  0.0002
12067TIP3    H257617   6.301   3.409   4.632  0.5813  0.6835  0.0726
12068TIP3   OH257618   2.734   5.300  15.501  0.2303 -0.0379 -0.6259
12068TIP3    H157619   2.714   5.237  15.432 -0.9962 -0.4591  0.1109
12068TIP3    H257620   2.666   5.366  15.495 -1.0939 -1.1506  1.4803
12069TIP3   OH257621   0.415   1.821   3.810 -0.5490 -0.5505  0.0296
12069TIP3    H157622   0.336   1.861   3.773 -0.3412 -1.9073 -1.9529
12069TIP3    H257623   0.464   1.895   3.846 -1.8644  0.5242 -0.3223
12070TIP3   OH257624   5.655   0.875   2.593 -1.0262  0.6535  0.1570
12070TIP3    H157625   5.625   0.821   2.520 -0.3240 -0.2082  0.4899
12070TIP3    H257626   5.597   0.853   2.665 -0.7353  0.3278  0.2946
12071TIP3   OH257627   2.163   6.043  14.442  0.1251 -0.4106  0.1527
12071TIP3    H157628   2.139   5.957  14.405  1.1050  0.0190 -1.5390
12071TIP3    H257629   2.107   6.052  14.519 -0.7790 -2.0955 -0.2717
12072TIP3   OH257630   0.755   1.966  11.620  0.3128  0.0118  0.1912
12072TIP3    H157631   0.723   1.963  11.710 -1.3240 -0.9744 -0.4090
12072TIP3    H257632   0.719   2.046  11.584 -0.6875 -0.6049 -0.1884
12073TIP3   OH257633   0.264   1.899  13.684  0.1678 -0.3002  0.3900
12073TIP3    H157634   0.238   1.906  13.776 -0.5552 -1.2363  0.2601
12073TIP3    H257635   0.241   1.810  13.659 -1.2417  0.4948 -1.1923
12074TIP3   OH257636   1.025   6.043  14.976 -0.0327  0.6725 -0.1624
12074TIP3    H157637   0.953   6.106  14.985  0.9145  1.5648  1.2885
12074TIP3    H257638   0.985   5.959  14.999 -1.1085  0.8219 -1.3724
12075TIP3   OH257639   0.167   0.444   1.866  0.6386  0.6634  0.9967
12075TIP3    H157640   0.243   0.386   1.870 -0.3391 -0.7229  0.0083
12075TIP3    H257641   0.190   0.510   1.801 -0.3811 -1.8639 -2.0444
12076TIP3   OH257642   3.229   1.822  16.869  0.1919  0.6475 -0.5876
12076TIP3    H157643   3.258   1.755  16.807 -0.8209 -0.6153  0.2809
12076TIP3    H257644   3.143   1.792  16.899  0.3826  1.5748  0.9334
12077TIP3   OH257645   1.401   1.045   2.557  0.6828 -0.7157 -0.2162
12077TIP3    H157646   1.365   1.118   2.506 -0.7893 -0.6222  0.9324
12077TIP3    H257647   1.326   1.008   2.603  1.5395 -2.5085 -0.2064
12078TIP3   OH257648   4.285   2.201   4.335 -0.5070  0.3597  0.1549
12078TIP3    H157649   4.321   2.167   4.417 -0.6790 -0.4038 -0.0811
12078TIP3    H257650   4.233   2.128   4.300  0.2403  0.3889 -1.0524
12079TIP3   OH257651   6.471   4.149   0.482  0.8747  0.6750 -0.6052
12079TIP3    H157652   6.438   4.230   0.518 -1.3721 -0.9588  1.1302
12079TIP3    H257653   6.411   4.127   0.411 -0.9777 -1.4886  1.5366
12080TIP3   OH257654   3.341   4.709   2.603 -0.0329 -0.3950 -0.6711
12080TIP3    H157655   3.423   4.724   2.651 -1.2369 -0.7397  1.5630
12080TIP3    H257656   3.360   4.635   2.546  1.5901  0.3531 -1.1296
12081TIP3   OH257657   6.115   0.170  11.619  0.1215 -0.1567 -0.2687
12081TIP3    H157658   6.193   0.121  11.593  1.4531  1.5160  0.4509
12081TIP3    H257659   6.144   0.223  11.693 -2.0149 -0.3294  0.7274
12082TIP3   OH257660   5.739   2.459   4.072  0.4661  0.2050 -0.4131
12082TIP3    H157661   5.784   2.502   3.999  1.3139 -1.0529 -0.6479
12082TIP3    H257662   5.799   2.468   4.146  0.6303 -0.5266 -0.4537
12083TIP3   OH257663   5.600   5.274  11.443  0.1839 -0.5472  0.2089
12083TIP3    H157664   5.637   5.195  11.404  0.9166  0.9547 -2.2457
12083TIP3    H257665   5.574   5.328  11.368  1.1930  2.2165  1.7760
12084TIP3   OH257666   4.499   2.366   4.956  0.6684  0.6071  0.2306
12084TIP3    H157667   4.590   2.392   4.973  0.9715  0.1494 -0.6972
12084TIP3    H257668   4.472   2.419   4.882  0.4418  0.1521 -0.0149
12085TIP3   OH257669   1.608   2.598   3.978  0.4130 -0.0528  0.3708
12085TIP3    H157670   1.532   2.656   3.975  1.0716  0.7357 -1.7009
12085TIP3    H257671   1.572   2.510   3.968 -0.2807  0.2790 -0.0470
12086TIP3   OH257672   4.265   3.901  10.729  0.5589 -0.1810  0.1344
12086TIP3    H157673   4.294   3.987  10.758  2.2338 -1.1582  1.4122
12086TIP3    H257674   4.185   3.885  10.779 -0.4783  1.1550 -1.0529
12087TIP3   OH257675   1.768   2.401   1.877  0.0891 -0.0407 -0.1960
12087TIP3    H157676   1.701   2.366   1.935 -0.0680 -0.6899 -0.7613
12087TIP3    H257677   1.779   2.492   1.905  0.0863 -0.3673  0.9064
12088TIP3   OH257678   6.592   3.499  16.755  0.0701 -0.3856 -0.5570
12088TIP3    H157679   6.583   3.513  16.660  1.7569  0.3612 -0.6173
12088TIP3    H257680   6.681   3.466  16.766  1.1676  2.9555  1.1295
12089TIP3   OH257681   3.190   3.799  11.829 -0.3952  0.1525 -0.5257
12089TIP3    H157682   3.184   3.808  11.925 -1.4904  1.2725 -0.6837
12089TIP3    H257683   3.282   3.821  11.809 -0.1100 -0.2766  0.2838
12090TIP3   OH257684   2.489   2.422   4.869  0.0132  0.0665  0.6561
12090TIP3    H157685   2.446   2.508   4.875 -1.7687 -0.6582 -1.1963
12090TIP3    H257686   2.469   2.380   4.953 -2.0387  0.1766  0.2666
12091TIP3   OH257687   4.780   1.303   5.379  0.1676 -0.2668 -0.6133
12091TIP3    H157688   4.861   1.259   5.355  0.6034 -0.3417  0.9551
12091TIP3    H257689   4.776   1.379   5.321  1.8386  0.2516 -0.0748
12092TIP3   OH257690   1.180   3.608   2.706  0.5404 -0.5404  0.5911
12092TIP3    H157691   1.125   3.667   2.655  1.8104  1.4281  1.4371
12092TIP3    H257692   1.119   3.562   2.764 -0.4930 -0.3165 -0.3011
12093TIP3   OH257693   6.039   2.587  14.375  0.2664 -0.3714  0.4467
12093TIP3    H157694   6.016   2.500  14.344 -0.7523 -0.0597  0.3274
12093TIP3    H257695   6.118   2.610  14.326 -1.1071 -0.0354 -1.6596
12094TIP3   OH257696   2.363   4.573  11.343  0.1270  0.0588  0.0008
12094TIP3    H157697   2.438   4.566  11.402 -0.6665 -2.0548  0.8425
12094TIP3    H257698   2.398   4.550  11.257  0.4652 -0.9542  0.3959
12095TIP3   OH257699   5.924   2.337  14.327 -1.1420  0.5326 -0.0158
12095TIP3    H157700   5.830   2.323  14.330 -1.0299 -0.2012  0.2992
12095TIP3    H257701   5.955   2.280  14.256 -1.0833  1.6820 -0.9246
12096TIP3   OH257702   2.099   2.423  13.818 -0.2600 -0.1357 -0.1343
12096TIP3    H157703   2.068   2.355  13.758 -2.3349  1.5342 -1.0271
12096TIP3    H257704   2.194   2.419  13.811 -0.4330 -0.2765 -3.2609
12097TIP3   OH257705   3.647   3.932   6.064  0.3311 -0.3844  0.1762
12097TIP3    H157706   3.568   3.884   6.087 -0.1503  0.8965  1.2627
12097TIP3    H257707   3.646   4.009   6.122  1.4037  0.5980 -1.0894
12098TIP3   OH257708   4.195   0.120   4.061 -0.2459  0.8601 -0.4772
12098TIP3    H157709   4.104   0.146   4.047 -0.5378 -0.5130 -1.1956
12098TIP3    H257710   4.233   0.116   3.973  0.3867  0.9893 -0.2116
12099TIP3   OH257711   3.779   2.849   4.944 -0.0298  0.3942  0.5238
12099TIP3    H157712   3.723   2.905   4.998 -1.1118  0.6622 -0.8769
12099TIP3    H257713   3.778   2.889   4.858  0.4565 -0.9084 -0.0990
12100TIP3   OH257714   1.894   4.095  13.683  0.5261  0.3658  0.3894
12100TIP3    H157715   1.911   4.189  13.679  0.4677  0.2994 -2.7313
12100TIP3    H257716   1.800   4.087  13.669  0.4293 -0.1452  1.2919
12101TIP3   OH257717   5.614   3.244   4.307  0.5613  0.0791  0.2563
12101TIP3    H157718   5.639   3.178   4.242 -0.0381 -0.0948  0.2043
12101TIP3    H257719   5.684   3.310   4.301  0.5609  0.0228 -0.5007
12102TIP3   OH257720   5.040   6.064  13.334 -0.4763  0.3384 -0.2161
12102TIP3    H157721   4.996   6.118  13.400  0.5636  0.7518  0.1403
12102TIP3    H257722   5.017   5.974  13.356  1.3336  0.3315  1.8119
12103TIP3   OH257723   6.590   0.197   2.207 -0.6819  0.1274 -0.0454
12103TIP3    H157724   6.555   0.114   2.238  1.2212 -0.9961 -0.7987
12103TIP3    H257725   6.684   0.181   2.198 -0.5300  1.8655 -1.8019
12104TIP3   OH257726   5.940   0.341   4.273 -0.4021  0.1999  0.1180
12104TIP3    H157727   5.853   0.337   4.312 -0.2620  1.2061  0.5432
12104TIP3    H257728   5.959   0.251   4.247 -2.0952  0.1639 -1.1367
12105TIP3   OH257729   2.139   2.463   3.491  0.2840  0.1820  0.3202
12105TIP3    H157730   2.210   2.522   3.516  0.6821  0.7345 -1.9764
12105TIP3    H257731   2.080   2.517   3.439 -0.0472 -1.1067 -0.6765
12106TIP3   OH257732   0.001   0.304   3.198  0.5533 -0.3455  0.1975
12106TIP3    H157733  -0.071   0.345   3.151  0.3448  1.8254  2.3022
12106TIP3    H257734   0.075   0.364   3.188  0.6958 -0.1733  2.0154
12107TIP3   OH257735   0.331   2.915  16.185 -0.2697  0.3370  0.7606
12107TIP3    H157736   0.266   2.936  16.118 -0.1403  0.8317  0.7869
12107TIP3    H257737   0.323   2.821  16.197 -1.1443  0.4262  0.9280
12108TIP3   OH257738   4.422   4.366   1.757  0.7715  0.4155 -0.6177
12108TIP3    H157739   4.340   4.339   1.715  0.3554  0.8808 -0.1014
12108TIP3    H257740   4.461   4.284   1.788  0.5613  0.1815 -0.9626
12109TIP3   OH257741   2.263   1.026  10.958  0.2001  0.1323  0.6097
12109TIP3    H157742   2.340   1.078  10.938 -0.4703  1.3229  1.0850
12109TIP3    H257743   2.297   0.937  10.970  1.4424  0.5790  0.4870
12110TIP3   OH257744   1.628   0.998  13.215  0.0180 -0.3138 -0.8242
12110TIP3    H157745   1.542   1.012  13.176 -1.4268 -0.8652  1.9859
12110TIP3    H257746   1.613   1.010  13.309  2.8466 -1.2239 -0.2202
12111TIP3   OH257747   2.794   6.180   6.447  0.1863  0.0783  0.4433
12111TIP3    H157748   2.842   6.162   6.528  0.8622 -0.3398 -0.0484
12111TIP3    H257749   2.744   6.260   6.466 -0.0642 -0.3159  1.4410
12112TIP3   OH257750   5.540   1.008  12.046  0.3952 -0.8187  0.2897
12112TIP3    H157751   5.605   1.003  12.116  0.2911  0.6284  0.4991
12112TIP3    H257752   5.550   1.096  12.010 -2.4253 -0.0507  1.2716
12113TIP3   OH257753   0.904   5.806  16.791  0.6365 -0.4672  0.3819
12113TIP3    H157754   0.847   5.807  16.868 -0.4022  1.3583 -0.3644
12113TIP3    H257755   0.958   5.728  16.802 -2.1298 -2.3721  1.0294
12114TIP3   OH257756   6.119   1.987  15.242  0.7175 -0.0830 -0.2925
12114TIP3    H157757   6.205   1.998  15.284  0.4814  1.1132 -0.0926
12114TIP3    H257758   6.138   1.994  15.148  1.0885 -1.6284 -0.3319
12115TIP3   OH257759   0.161   4.417  11.092 -0.0306  0.1544  0.4955
12115TIP3    H157760   0.091   4.417  11.026  0.9133 -0.1450 -0.5272
12115TIP3    H257761   0.226   4.478  11.057  1.1175 -1.0797  0.4491
12116TIP3   OH257762   6.203   2.661  14.582  0.9179  0.3457 -0.1542
12116TIP3    H157763   6.202   2.756  14.578  0.0684  0.3808  0.6512
12116TIP3    H257764   6.146   2.634  14.510  0.7261  0.4607 -0.0457
12117TIP3   OH257765   2.899   2.791  15.698  0.1798 -0.3052  0.0404
12117TIP3    H157766   2.976   2.842  15.726 -0.0747  0.7220 -1.0879
12117TIP3    H257767   2.933   2.733  15.629  0.1413 -0.5237  0.2071
12118TIP3   OH257768   6.259   5.758  13.639 -0.4905  0.5735  0.0159
12118TIP3    H157769   6.257   5.755  13.735  1.6010  1.0588  0.1097
12118TIP3    H257770   6.181   5.808  13.615 -1.9173 -0.9149  1.3626
12119TIP3   OH257771   1.092   6.610   1.006  0.5155  0.0290 -0.6368
12119TIP3    H157772   1.002   6.620   0.977 -0.6328 -2.7341  1.7616
12119TIP3    H257773   1.095   6.654   1.091  0.6170 -2.2805  0.6077
12120TIP3   OH257774   4.137   6.280  14.447 -0.5256  0.2243 -0.4664
12120TIP3    H157775   4.142   6.267  14.542  2.0420  2.4654 -0.2252
12120TIP3    H257776   4.137   6.191  14.411  1.3501 -0.6684  1.5580
12121TIP3   OH257777   1.959   1.382   6.810  0.3826  0.4246  0.2795
12121TIP3    H157778   2.002   1.425   6.883 -0.8378  0.0272  1.2400
12121TIP3    H257779   2.026   1.377   6.742  1.3248  1.3796  1.1327
12122TIP3   OH257780   6.335   3.797  14.342 -0.0990 -0.5645  0.3419
12122TIP3    H157781   6.353   3.731  14.409 -0.8177 -0.0708  1.0358
12122TIP3    H257782   6.410   3.793  14.282  0.1579 -1.5720  0.7248
12123TIP3   OH257783   0.361   0.645  12.669 -0.1534 -0.2100 -0.4702
12123TIP3    H157784   0.353   0.550  12.668 -0.6463 -0.2572  2.8223
12123TIP3    H257785   0.289   0.676  12.615 -1.3731 -1.6527  0.2960
12124TIP3   OH257786   5.096   0.222  11.196 -0.4144 -0.3056 -0.3076
12124TIP3    H157787   5.048   0.147  11.233  2.3289 -4.0847 -3.8957
12124TIP3    H257788   5.036   0.258  11.130 -1.1450 -0.2876  0.3517
12125TIP3   OH257789   0.057   6.080  16.749 -0.8014  0.0806  0.2903
12125TIP3    H157790   0.149   6.096  16.768 -0.5908 -0.3431 -0.3405
12125TIP3    H257791   0.047   5.985  16.755 -1.0614  0.0726 -0.2366
12126TIP3   OH257792   3.808   1.467  12.397  0.3155  0.4707  0.5970
12126TIP3    H157793   3.869   1.500  12.332  1.2563 -0.8999  0.7687
12126TIP3    H257794   3.844   1.494  12.481 -1.1889  2.7224  0.5645
12127TIP3   OH257795   4.942   1.761   4.710 -0.4872  0.3556 -0.2431
12127TIP3    H157796   4.943   1.768   4.615  0.0955  2.3478 -0.1038
12127TIP3    H257797   4.958   1.668   4.727 -2.3661 -0.3422 -2.1072
12128TIP3   OH257798   5.601   5.178   5.423  0.0506 -0.3553  0.1894
12128TIP3    H157799   5.624   5.100   5.473  1.4094  0.7274  1.2852
12128TIP3    H257800   5.674   5.191   5.363  0.3828  0.7055  0.7989
12129TIP3   OH257801   6.076   2.694  11.476 -0.4447  0.8551  0.5385
12129TIP3    H157802   6.071   2.599  11.488 -0.6812  0.7336 -0.4505
12129TIP3    H257803   5.985   2.723  11.474 -0.4460  0.7845 -1.4435
12130TIP3   OH257804   5.257   5.465  14.636  0.1904  0.1006 -0.3061
12130TIP3    H157805   5.260   5.543  14.580 -1.4218 -1.4216 -2.6508
12130TIP3    H257806   5.260   5.499  14.725  0.2421  2.8080 -1.2842
12131TIP3   OH257807   0.579   4.289   3.859 -0.2111 -0.5319 -0.3144
12131TIP3    H157808   0.539   4.362   3.813  0.7113 -0.3984 -0.9083
12131TIP3    H257809   0.614   4.327   3.939  0.3340 -0.3092 -0.6582
12132TIP3   OH257810   0.796   4.760  17.144 -0.5701 -0.2287 -0.5432
12132TIP3    H157811   0.703   4.743  17.160 -0.0919 -1.3285  1.1848
12132TIP3    H257812   0.840   4.730  17.223  1.2337  0.6597 -1.1782
12133TIP3   OH257813   0.330   5.164   1.731  0.5984  0.1364  0.3560
12133TIP3    H157814   0.249   5.198   1.769 -0.5194 -1.6770 -0.3136
12133TIP3    H257815   0.320   5.176   1.637  2.1284  2.0018  0.3953
12134TIP3   OH257816   3.615   2.371   0.513 -0.0291 -0.8747  0.4048
12134TIP3    H157817   3.607   2.290   0.564 -0.5464 -0.3340  1.1876
12134TIP3    H257818   3.541   2.425   0.542  0.6599  0.1192  0.3201
12135TIP3   OH257819   5.637   3.579   2.385 -0.0228 -0.2636  0.2022
12135TIP3    H157820   5.674   3.579   2.474  1.8184 -1.6756 -0.5391
12135TIP3    H257821   5.600   3.491   2.375  0.7406 -0.4748 -0.8129
12136TIP3   OH257822   3.799   2.995   2.476  0.0769 -0.3976  0.1822
12136TIP3    H157823   3.797   3.091   2.471  0.0678 -0.4811 -1.7107
12136TIP3    H257824   3.707   2.969   2.481  0.0509 -0.3371  0.0201
12137TIP3   OH257825   4.834   1.405   5.952  0.3423  0.2982 -0.3901
12137TIP3    H157826   4.868   1.316   5.957  0.1337  0.2200 -0.3216
12137TIP3    H257827   4.884   1.453   6.018  0.2688  0.1669 -0.2356
12138TIP3   OH257828   6.247   2.762  16.027  0.5221  0.0973 -0.1538
12138TIP3    H157829   6.294   2.829  15.977  0.9921  1.1671  1.6934
12138TIP3    H257830   6.159   2.762  15.990 -0.0290  3.0797  1.0335
12139TIP3   OH257831   2.729   0.877  16.418 -0.6343 -0.6701 -0.0770
12139TIP3    H157832   2.761   0.927  16.493  0.0894 -0.8223 -0.2827
12139TIP3    H257833   2.649   0.923  16.391 -0.4190 -0.1036  0.2362
12140TIP3   OH257834   6.780   3.202  11.956  0.0719 -0.1174  0.0774
12140TIP3    H157835   6.761   3.230  11.867 -1.1532 -0.3219  0.2630
12140TIP3    H257836   6.789   3.107  11.951  2.0419  0.0645 -0.1699
12141TIP3   OH257837   4.768   4.522  15.884 -0.1544  0.0050 -0.0614
12141TIP3    H157838   4.773   4.617  15.870 -0.9418  0.3278  1.7302
12141TIP3    H257839   4.833   4.504  15.951  0.1600 -0.7601 -0.5720
12142TIP3   OH257840   3.991   2.918  16.011  0.1430  0.0693  0.1686
12142TIP3    H157841   4.057   2.864  16.055  2.1635  2.4753  0.1981
12142TIP3    H257842   3.959   2.977  16.079 -0.0271  0.7538 -0.4963
12143TIP3   OH257843   6.693   2.052  12.634 -0.0947  0.3252 -0.2620
12143TIP3    H157844   6.714   2.122  12.695  0.0286 -0.1025  0.1871
12143TIP3    H257845   6.730   2.081  12.550 -1.4056  1.5240 -0.4510
12144TIP3   OH257846   1.169   1.066   5.265  0.4357 -0.0698  0.9001
12144TIP3    H157847   1.252   1.032   5.300  0.0251 -0.3093  1.6463
12144TIP3    H257848   1.184   1.160   5.258  1.7915 -0.4353 -1.7484
12145TIP3   OH257849   6.583   6.427  12.595  0.1802  0.3233  0.0376
12145TIP3    H157850   6.488   6.437  12.586  0.2856  1.6127  0.2545
12145TIP3    H257851   6.620   6.496  12.540  1.0490 -1.8084 -2.1416
12146TIP3   OH257852   1.510   5.866  16.000 -0.0470  0.2142 -0.1135
12146TIP3    H157853   1.511   5.771  16.003 -1.6879  0.1588 -0.7605
12146TIP3    H257854   1.555   5.894  16.080 -0.9181 -1.1058  0.8528
12147TIP3   OH257855   6.637   0.173   0.589 -0.6130 -0.0727 -0.4682
12147TIP3    H157856   6.649   0.250   0.533 -0.0724 -1.5591 -2.4452
12147TIP3    H257857   6.581   0.204   0.661  1.6635  2.8156  0.1593
12148TIP3   OH257858   1.036   1.248   3.889 -0.5126  0.6129 -0.1193
12148TIP3    H157859   1.000   1.192   3.820  1.1491 -1.1668  0.4248
12148TIP3    H257860   1.090   1.312   3.842 -0.9565  0.6328 -0.6103
12149TIP3   OH257861   3.869   4.271  12.651 -0.2371 -0.0812  0.5143
12149TIP3    H157862   3.817   4.195  12.625 -1.9627  1.5563 -0.9047
12149TIP3    H257863   3.924   4.289  12.575  0.5985 -0.2481  1.0692
12150TIP3   OH257864   0.822   1.231  16.034 -0.2788 -0.3224 -0.6766
12150TIP3    H157865   0.900   1.223  15.978  0.5338 -1.3120  0.5664
12150TIP3    H257866   0.765   1.161  16.004 -0.8121  0.5416 -1.7395
12151TIP3   OH257867   2.433   3.606  14.819 -0.1936 -0.3744 -0.0454
12151TIP3    H157868   2.447   3.589  14.912 -0.5693 -0.3520  0.0148
12151TIP3    H257869   2.488   3.682  14.799  0.0628 -0.5198  0.1047
12152TIP3   OH257870   5.138   1.807   1.282  0.0412 -0.1205 -0.1319
12152TIP3    H157871   5.112   1.893   1.315  0.0603  0.6586 -2.0737
12152TIP3    H257872   5.161   1.823   1.190  2.5599 -1.7188  0.1779
12153TIP3   OH257873   4.509   6.632   0.684 -0.1035 -0.1549  0.2542
12153TIP3    H157874   4.414   6.648   0.683  0.1033  1.2086  0.8251
12153TIP3    H257875   4.517   6.537   0.672 -1.4492 -0.0333 -1.8766
12154TIP3   OH257876   5.122   5.568  13.851  0.5133 -0.0389  1.2395
12154TIP3    H157877   5.198   5.614  13.814  0.6660  0.5447  2.2639
12154TIP3    H257878   5.073   5.636  13.897 -1.7068 -0.0072 -1.0376
12155TIP3   OH257879   5.271   2.788  12.223 -0.2467 -0.2722 -0.0388
12155TIP3    H157880   5.176   2.797  12.233 -0.1937 -0.6927  0.8928
12155TIP3    H257881   5.286   2.693  12.225  0.4171 -0.1476  2.0529
12156TIP3   OH257882   6.040   3.907   0.741 -0.8198  0.0049  0.1614
12156TIP3    H157883   5.945   3.912   0.744 -0.9587 -1.7049 -0.9081
12156TIP3    H257884   6.059   3.815   0.720  1.0233  0.7131 -1.3712
12157TIP3   OH257885   3.198   1.244   4.996  0.3121 -0.4020 -0.0335
12157TIP3    H157886   3.228   1.293   5.072  1.0619  0.9205 -1.1545
12157TIP3    H257887   3.271   1.187   4.974 -0.2013 -1.3562  0.6955
12158TIP3   OH257888   2.138   6.389  13.304 -0.0135 -0.2487  0.3991
12158TIP3    H157889   2.065   6.366  13.247 -0.4234  1.8353  0.0568
12158TIP3    H257890   2.097   6.404  13.389 -0.0534  1.2637  0.1260
12159TIP3   OH257891   5.346   6.613  13.644  0.1198  0.3270  0.4194
12159TIP3    H157892   5.380   6.600  13.556 -0.6861  1.4419 -0.0604
12159TIP3    H257893   5.424   6.620  13.699  0.6421  0.9537 -0.3933
12160TIP3   OH257894   2.508   5.874   6.633  0.2767 -0.1910 -0.3329
12160TIP3    H157895   2.520   5.867   6.538 -0.3666 -0.0586 -0.4292
12160TIP3    H257896   2.568   5.809   6.669 -0.7430 -1.4924 -0.9162
12161TIP3   OH257897   0.534   5.309   3.874 -0.3973 -0.0339 -0.3989
12161TIP3    H157898   0.462   5.353   3.920  0.4802 -1.7395  2.7424
12161TIP3    H257899   0.507   5.217   3.869  1.5677 -0.7282  0.9563
12162TIP3   OH257900   2.193   1.690   5.960  0.0091 -0.1266 -0.7369
12162TIP3    H157901   2.139   1.763   5.991 -0.2334 -0.0985 -1.2279
12162TIP3    H257902   2.142   1.612   5.980 -0.1704 -0.1055 -1.1110
12163TIP3   OH257903   1.114   3.128   0.755 -0.6709 -0.1616  0.1608
12163TIP3    H157904   1.165   3.068   0.702 -2.2046 -0.7912 -0.6262
12163TIP3    H257905   1.033   3.080   0.775 -0.8550  0.7106  1.5996
12164TIP3   OH257906   0.978   2.812   2.138 -0.1572 -0.0931  0.2092
12164TIP3    H157907   0.891   2.794   2.174 -0.9380  1.0345 -1.0516
12164TIP3    H257908   1.036   2.751   2.183 -1.8515 -2.0023 -0.1166
12165TIP3   OH257909   3.461   6.367  17.157 -0.6565 -0.0424 -0.4042
12165TIP3    H157910   3.440   6.286  17.110 -0.4369 -0.0943 -0.4170
12165TIP3    H257911   3.545   6.348  17.199 -1.3457 -0.3524  0.8480
12166TIP3   OH257912   1.297   1.970  16.106 -0.4107  0.0175 -0.3905
12166TIP3    H157913   1.273   1.882  16.136 -1.1194  0.4191  0.2312
12166TIP3    H257914   1.214   2.018  16.103  0.1645  1.1162  0.7424
12167TIP3   OH257915   3.835   0.010  13.179 -0.4747 -0.1235  0.4668
12167TIP3    H157916   3.795  -0.060  13.129 -1.2774  0.2568  0.5750
12167TIP3    H257917   3.775   0.026  13.252 -0.4501  0.8875  0.2736
12168TIP3   OH257918   6.246   5.254   1.178 -0.0737 -0.1722 -0.6688
12168TIP3    H157919   6.253   5.205   1.260 -4.2890 -1.0812 -0.7293
12168TIP3    H257920   6.284   5.196   1.112  1.4850 -0.2977  0.3195
12169TIP3   OH257921   4.231   0.925  15.318 -0.1643  0.1788  0.2508
12169TIP3    H157922   4.321   0.957  15.323 -0.0521  0.1804 -1.2719
12169TIP3    H257923   4.187   0.965  15.393  0.1875  3.3122 -1.0941
12170TIP3   OH257924   0.116   3.065   2.066  0.7802  1.1539 -0.1903
12170TIP3    H157925   0.160   2.996   2.115 -1.1272  1.3664  1.9174
12170TIP3    H257926   0.175   3.141   2.071  1.4388  0.6129  0.1951
12171TIP3   OH257927   6.079   6.689  11.484  0.1333  0.1026  0.0386
12171TIP3    H157928   6.078   6.762  11.546  1.6056  0.5257 -0.4244
12171TIP3    H257929   6.141   6.715  11.416  0.1775 -1.2917 -0.4864
12172TIP3   OH257930   6.209   1.021  15.531 -0.3994 -0.0907  0.4048
12172TIP3    H157931   6.118   1.041  15.556 -1.1931 -2.2768 -0.6030
12172TIP3    H257932   6.256   1.019  15.614 -1.7543 -1.1509  1.1821
12173TIP3   OH257933   2.942   4.751  16.919  0.2106 -0.1389  0.3149
12173TIP3    H157934   2.916   4.681  16.978 -0.3179 -0.7794 -0.6695
12173TIP3    H257935   2.917   4.831  16.965 -0.5828 -0.6441  0.7785
12174TIP3   OH257936   3.388   6.286  10.969 -0.2319  0.6365 -0.0145
12174TIP3    H157937   3.319   6.347  10.943 -0.7696  0.3480  0.7285
12174TIP3    H257938   3.341   6.211  11.005  0.4527  0.1320 -0.1680
12175TIP3   OH257939   5.383   4.294  14.352 -0.1092  0.2115 -0.0509
12175TIP3    H157940   5.339   4.232  14.411 -0.0394  0.7526  0.5662
12175TIP3    H257941   5.408   4.240  14.276 -2.6117  0.0549 -0.8284
12176TIP3   OH257942   0.330   4.136  16.532 -0.1114 -0.1096  0.1828
12176TIP3    H157943   0.337   4.231  16.541 -0.8229  0.0579 -1.0320
12176TIP3    H257944   0.374   4.102  16.611 -1.2915  1.2301  1.4489
12177TIP3   OH257945   4.279   3.461   5.055 -0.3637  0.0043  0.1864
12177TIP3    H157946   4.271   3.367   5.072 -1.5795  0.0462 -0.1434
12177TIP3    H257947   4.312   3.497   5.137 -0.8055 -0.5766  0.6202
12178TIP3   OH257948   4.927   3.710  16.730  0.4597  0.0738  0.4589
12178TIP3    H157949   4.870   3.657  16.787  0.0886  0.3673  0.3603
12178TIP3    H257950   4.902   3.800  16.748  0.2456  0.1632 -0.2777
12179TIP3   OH257951   1.816   3.415   3.521 -0.2569 -0.8820 -0.3631
12179TIP3    H157952   1.824   3.480   3.591 -0.6415 -0.9816 -0.2277
12179TIP3    H257953   1.805   3.467   3.441  0.4951 -0.7631 -0.3922
12180TIP3   OH257954   4.355   6.249   5.120  0.3136 -0.0045  0.2069
12180TIP3    H157955   4.315   6.321   5.167 -0.8322 -0.2548 -0.3723
12180TIP3    H257956   4.293   6.176   5.130  0.6251 -0.3995 -0.6707
12181TIP3   OH257957   6.471   2.596  14.563  0.1234  0.0459 -0.3969
12181TIP3    H157958   6.376   2.606  14.554 -0.0486 -0.7903  0.4339
12181TIP3    H257959   6.499   2.560  14.479 -0.2753  0.4046 -0.6885
12182TIP3   OH257960   1.344   5.763  13.848  0.2783  0.6790  0.0780
12182TIP3    H157961   1.369   5.740  13.758  2.8857 -0.8354  1.1475
12182TIP3    H257962   1.367   5.856  13.856 -0.9896  1.1285 -1.1182
12183TIP3   OH257963   3.522   4.612  16.522  0.7826  0.3333  0.1656
12183TIP3    H157964   3.454   4.612  16.589 -0.2025  0.0861 -0.8007
12183TIP3    H257965   3.541   4.519  16.508  2.2142  0.4468  1.3017
12184TIP3   OH257966   2.246   1.532   0.954 -0.8296 -0.3672  0.2126
12184TIP3    H157967   2.199   1.568   1.030 -1.7869  0.6254 -0.8135
12184TIP3    H257968   2.191   1.459   0.924 -0.4217 -0.7969  0.5087
12185TIP3   OH257969   5.045   3.727   3.546 -0.2064 -0.2984 -0.4336
12185TIP3    H157970   5.006   3.672   3.614 -1.3398 -0.1136 -0.9233
12185TIP3    H257971   5.002   3.812   3.556 -2.1592 -0.9395 -2.9004
12186TIP3   OH257972   4.116   3.275  12.124  0.4377  0.2170 -0.1062
12186TIP3    H157973   4.074   3.189  12.131 -1.3780  1.1142  0.2046
12186TIP3    H257974   4.208   3.255  12.106  0.6401 -1.8650  2.8393
12187TIP3   OH257975   1.571   6.649  14.882 -0.1761  0.4251  0.4698
12187TIP3    H157976   1.607   6.735  14.860  0.3200 -0.4266 -2.3171
12187TIP3    H257977   1.500   6.636  14.818 -1.5123 -0.4330  2.0906
12188TIP3   OH257978   5.306   0.489  15.925 -0.3325 -0.3743  0.3096
12188TIP3    H157979   5.287   0.475  15.832 -3.1804 -0.9417  0.9176
12188TIP3    H257980   5.309   0.584  15.934  0.9015 -0.3154 -0.5046
12189TIP3   OH257981   4.858   1.327  14.306  0.1271  0.2881  0.3694
12189TIP3    H157982   4.790   1.265  14.331 -0.6720  1.2911  0.7197
12189TIP3    H257983   4.816   1.413  14.313  1.7719  0.9933  1.7191
12190TIP3   OH257984   6.400   5.760   1.335 -0.1665 -0.0420 -0.4525
12190TIP3    H157985   6.403   5.669   1.307  0.0579 -0.1760 -0.0027
12190TIP3    H257986   6.316   5.792   1.304 -0.8198 -0.7773  0.5161
12191TIP3   OH257987   2.194   4.070   6.230  0.2823 -0.1952 -0.8590
12191TIP3    H157988   2.161   4.147   6.276 -0.0623 -0.0533 -1.3358
12191TIP3    H257989   2.285   4.061   6.259  1.0609  1.7593 -2.5200
12192TIP3   OH257990   4.195   1.398   3.222  0.0981  0.1054  0.7700
12192TIP3    H157991   4.117   1.346   3.205  1.2618 -1.8514  1.1778
12192TIP3    H257992   4.240   1.401   3.137 -0.7628  1.8615  0.3564
12193TIP3   OH257993   2.707   6.775   2.638 -0.4753  0.0093  0.1197
12193TIP3    H157994   2.791   6.729   2.641 -0.9709 -0.9116  0.0093
12193TIP3    H257995   2.711   6.826   2.558 -0.2026 -0.3983 -0.1306
12194TIP3   OH257996   2.706   5.812  17.177  0.1640  0.7340  0.2703
12194TIP3    H157997   2.798   5.791  17.190 -0.0122 -2.1477 -2.3987
12194TIP3    H257998   2.661   5.766  17.247  0.4192 -1.9419 -1.2547
12195TIP3   OH257999   0.624   4.065  13.463  0.3246 -0.2662  0.2295
12195TIP3    H158000   0.682   4.128  13.506 -1.4103  1.2768  0.3745
12195TIP3    H258001   0.548   4.059  13.521  0.6796 -2.8889  0.4648
12196TIP3   OH258002   0.410   3.756   5.364  0.1179 -0.2241  0.7181
12196TIP3    H158003   0.387   3.666   5.389 -1.1400 -0.7062 -2.0107
12196TIP3    H258004   0.331   3.789   5.322  2.0151  0.6562 -2.2690
12197TIP3   OH258005   5.923   5.183  10.734  0.6870 -0.9788 -0.5525
12197TIP3    H158006   5.948   5.274  10.746 -1.2340 -0.1822 -2.3083
12197TIP3    H258007   5.945   5.164  10.642  1.1515 -2.3093 -0.1745
12198TIP3   OH258008   0.450   5.657  17.226  0.5518 -0.2695 -0.1427
12198TIP3    H158009   0.534   5.703  17.222  0.4655 -0.1214 -0.2608
12198TIP3    H258010   0.414   5.679  17.311  0.9216 -0.8382  0.1644
12199TIP3   OH258011   4.167   3.528  14.488 -0.1653  0.0455 -0.0083
12199TIP3    H158012   4.214   3.561  14.412 -0.6483  0.6496 -0.0511
12199TIP3    H258013   4.233   3.479  14.537  0.0427 -0.6914 -1.0143
12200TIP3   OH258014   4.617   2.455   3.298  0.0378  0.5717  0.4528
12200TIP3    H158015   4.699   2.413   3.270  0.0515  0.2628  0.9424
12200TIP3    H258016   4.612   2.437   3.392 -0.6596  0.4800  0.4002
12201TIP3   OH258017   6.514   0.744   1.550 -0.4249  0.0254 -0.1518
12201TIP3    H158018   6.442   0.763   1.610 -0.8905  0.4978 -0.8479
12201TIP3    H258019   6.486   0.782   1.466  0.2077 -0.6260 -0.6705
12202TIP3   OH258020   3.790   0.999  14.419 -0.0320 -0.1204 -0.1769
12202TIP3    H158021   3.849   0.926  14.403  1.3275  0.9837 -0.3635
12202TIP3    H258022   3.717   0.986  14.358  1.9085  0.5433 -2.7236
12203TIP3   OH258023   6.660   1.817  13.912  0.2985  0.0557 -0.3783
12203TIP3    H158024   6.664   1.805  13.817  1.6875 -0.5795 -0.2425
12203TIP3    H258025   6.681   1.731  13.948 -2.7367 -0.3697  0.4997
12204TIP3   OH258026   4.508   0.120  14.953  0.1609  0.3052 -0.1976
12204TIP3    H158027   4.468   0.048  14.905 -0.1936  1.5457 -1.7971
12204TIP3    H258028   4.437   0.155  15.007  0.0909  0.0816 -0.1424
12205TIP3   OH258029   0.464   5.998  16.192  0.2269  0.1183  0.5823
12205TIP3    H158030   0.527   5.940  16.233  0.7823 -0.6883 -1.3722
12205TIP3    H258031   0.471   5.979  16.098 -1.4935  1.4293  0.1690
12206TIP3   OH258032   0.807   3.051  15.748 -0.7544 -0.0658 -0.3312
12206TIP3    H158033   0.756   3.130  15.766  0.2733  0.5863 -0.2408
12206TIP3    H258034   0.791   2.994  15.823 -1.0110  0.3182 -0.0931
12207TIP3   OH258035   5.725   0.330  13.980  0.1569  0.4543 -0.3919
12207TIP3    H158036   5.727   0.277  13.901 -0.9365 -1.5728  0.9060
12207TIP3    H258037   5.776   0.281  14.044 -0.7942  0.9923  0.8046
12208TIP3   OH258038   4.180   3.650  13.706 -0.0439 -0.3994 -0.3808
12208TIP3    H158039   4.190   3.566  13.749 -2.8483 -0.2521  0.6402
12208TIP3    H258040   4.225   3.712  13.763  1.6278 -1.0969 -0.9068
12209TIP3   OH258041   2.418   3.790   2.072  0.4980  0.1380 -0.4502
12209TIP3    H158042   2.356   3.719   2.059  1.4489 -1.1123  1.6056
12209TIP3    H258043   2.498   3.747   2.102  0.7217  2.1238  1.9705
12210TIP3   OH258044   4.134   6.459  13.073 -0.4005  0.4136  0.3949
12210TIP3    H158045   4.167   6.462  13.163  0.3601 -0.4556  0.1575
12210TIP3    H258046   4.210   6.479  13.018 -0.0084 -2.4393 -0.1934
12211TIP3   OH258047   2.900   1.373  15.995 -0.6338 -0.4689 -0.8973
12211TIP3    H158048   2.954   1.452  15.990  0.2256 -0.9816  0.2757
12211TIP3    H258049   2.810   1.405  15.986 -0.2685  0.6112 -0.7239
12212TIP3   OH258050   5.701   1.808   6.057  0.5194 -0.5667 -0.0265
12212TIP3    H158051   5.644   1.867   6.007  0.0849  0.4939  1.6798
12212TIP3    H258052   5.772   1.786   5.996 -0.3507  0.1655 -1.3231
12213TIP3   OH258053   4.741   0.331  13.657 -0.2226  0.0240 -0.1073
12213TIP3    H158054   4.788   0.263  13.706  0.4036 -0.0218 -0.7718
12213TIP3    H258055   4.651   0.324  13.688  0.4401  1.0026  2.1911
12214TIP3   OH258056   3.755   1.603   0.220 -0.3385 -0.0100 -0.5567
12214TIP3    H158057   3.792   1.684   0.184  1.2061 -0.7933 -0.7896
12214TIP3    H258058   3.821   1.573   0.283 -0.8445 -1.1363 -0.5518
12215TIP3   OH258059   3.912   2.321   6.596  0.1449 -0.0664  0.3666
12215TIP3    H158060   3.908   2.332   6.501  0.8220 -0.1904  0.3212
12215TIP3    H258061   3.887   2.407   6.631  0.9196  0.2856  0.0632
12216TIP3   OH258062   1.158   2.488   5.484 -0.1676 -0.2565 -0.1971
12216TIP3    H158063   1.097   2.459   5.416  0.4785 -4.5320  0.9287
12216TIP3    H258064   1.102   2.527   5.551 -1.1837  0.1971 -1.2822
12217TIP3   OH258065   1.631   1.040  15.092  0.3398 -0.0129 -0.5923
12217TIP3    H158066   1.582   1.106  15.142  1.8413  1.2925 -0.7808
12217TIP3    H258067   1.654   0.973  15.156  1.7987  1.3908  0.4007
12218TIP3   OH258068   4.562   6.262   5.350  0.0959  0.0018  0.1695
12218TIP3    H158069   4.475   6.266   5.389 -0.0493 -0.9261 -0.0608
12218TIP3    H258070   4.617   6.223   5.419  0.6434  1.9214  0.8564
12219TIP3   OH258071   5.581   6.330   4.766  0.1306 -0.8887  0.0619
12219TIP3    H158072   5.666   6.288   4.753  0.7019  0.4486 -0.6599
12219TIP3    H258073   5.559   6.313   4.858  1.7722 -0.1709  0.6054
12220TIP3   OH258074   3.513   5.548   3.684 -0.1967 -0.5832 -0.5639
12220TIP3    H158075   3.535   5.470   3.633 -0.4445 -0.5128 -0.7806
12220TIP3    H258076   3.427   5.529   3.722  0.3781 -0.9886  0.5544
12221TIP3   OH258077   4.736   1.238   1.728 -0.1415 -0.6220 -0.1093
12221TIP3    H158078   4.685   1.169   1.687 -2.2533  0.2702  0.9088
12221TIP3    H258079   4.752   1.207   1.817 -1.4601  0.3712  0.4803
12222TIP3   OH258080   6.013   2.721  12.527  0.3792  0.4545  0.3101
12222TIP3    H158081   6.094   2.759  12.493 -0.4430  0.2815 -1.9283
12222TIP3    H258082   5.944   2.773  12.486 -0.7136 -1.8576 -0.8539
12223TIP3   OH258083   2.332   6.112  16.027  0.3232  0.0197 -1.1122
12223TIP3    H158084   2.251   6.152  15.994  0.6931  0.2996 -1.6942
12223TIP3    H258085   2.339   6.029  15.980  0.1980 -0.1636 -0.8100
12224TIP3   OH258086   1.548   2.192   1.974 -0.0696 -0.0664 -0.1248
12224TIP3    H158087   1.561   2.213   1.881  0.9731 -1.4919 -0.3274
12224TIP3    H258088   1.495   2.113   1.973 -0.5138  0.2263  0.5080
12225TIP3   OH258089   3.909   6.424   4.095 -0.5818  0.2941  0.5085
12225TIP3    H158090   3.926   6.376   4.014 -0.7551 -1.2448  1.3755
12225TIP3    H258091   3.987   6.410   4.148  0.2730  2.7234 -0.0407
12226TIP3   OH258092   5.850   6.652   0.728 -0.0898  0.3323  0.0433
12226TIP3    H158093   5.778   6.715   0.723 -0.0017  0.3872 -0.5731
12226TIP3    H258094   5.889   6.654   0.640  1.8159  1.6805  0.8898
12227TIP3   OH258095   1.310   2.424   5.749  0.1862  0.1050 -0.1459
12227TIP3    H158096   1.343   2.480   5.679 -1.1889  1.2619  0.0985
12227TIP3    H258097   1.232   2.470   5.781 -0.5558 -1.6090  0.5432
12228TIP3   OH258098   2.749   3.223   0.909  0.5541 -0.7598 -0.4963
12228TIP3    H158099   2.654   3.213   0.899 -0.0657  2.4227  1.5356
12228TIP3    H258100   2.766   3.201   1.001  1.6432 -0.3623 -0.6003
12229TIP3   OH258101   3.065   2.126  14.531 -0.2684 -0.1970  0.4079
12229TIP3    H158102   3.034   2.150  14.619 -1.2986 -2.9730  0.8274
12229TIP3    H258103   3.092   2.035  14.539  0.6393 -0.1686 -1.9285
12230TIP3   OH258104   4.805   2.137  13.319 -0.4988  0.6754 -0.0168
12230TIP3    H158105   4.854   2.055  13.313 -1.5341 -0.1473  2.3041
12230TIP3    H258106   4.796   2.166  13.228  2.0977 -0.4286 -0.6654
12231TIP3   OH258107   4.244   3.868   2.623 -0.1218 -0.2212 -0.0264
12231TIP3    H158108   4.255   3.778   2.653  0.9568 -0.0852 -0.0000
12231TIP3    H258109   4.210   3.859   2.534  0.8100 -0.6616 -0.3416
12232TIP3   OH258110   2.178   3.262   6.584  0.7934  0.3374  0.0852
12232TIP3    H158111   2.144   3.350   6.603 -0.5183 -0.2736  0.6788
12232TIP3    H258112   2.237   3.275   6.510  0.9924  1.7942  0.4716
12233TIP3   OH258113   0.112   3.145  11.591  0.1717 -0.3447  0.1600
12233TIP3    H158114   0.048   3.216  11.583 -0.6483 -1.1931 -0.8466
12233TIP3    H258115   0.061   3.070  11.623  0.6793 -0.9995 -0.5655
12234TIP3   OH258116   5.304   0.524   4.623 -0.5288 -0.2156  0.4998
12234TIP3    H158117   5.331   0.445   4.575 -0.2524  0.4760 -0.5132
12234TIP3    H258118   5.212   0.536   4.599 -0.6544 -0.3827  0.8864
12235TIP3   OH258119   0.938   5.757  14.996 -0.0552 -0.6218 -0.1837
12235TIP3    H158120   0.959   5.664  15.004 -0.8224 -0.8457 -0.6436
12235TIP3    H258121   0.861   5.759  14.938 -1.8121  0.0939  2.1051
12236TIP3   OH258122   3.968   3.802   6.782 -0.4073  0.3788  0.2471
12236TIP3    H158123   3.967   3.876   6.842 -1.8069 -1.5313  2.6612
12236TIP3    H258124   4.037   3.744   6.816  0.7856  0.5904 -1.7048
12237TIP3   OH258125   5.442   1.336   4.028  0.5256 -0.3275 -0.1112
12237TIP3    H158126   5.410   1.352   4.117  1.4294 -2.0621  0.5322
12237TIP3    H258127   5.362   1.326   3.976 -0.0003  0.0416  0.6095
12238TIP3   OH258128   2.138   2.677   2.873 -0.5375  0.4881  0.8021
12238TIP3    H158129   2.143   2.762   2.829 -0.5267  1.6062  2.8528
12238TIP3    H258130   2.055   2.640   2.845  0.1890  0.4384 -1.3649
12239TIP3   OH258131   1.881   1.246   0.572 -0.5297  0.2655 -0.1154
12239TIP3    H158132   1.894   1.184   0.501  0.0392  0.5424 -0.2557
12239TIP3    H258133   1.906   1.331   0.535  0.6404  0.2800  0.6863
12240TIP3   OH258134   1.032   1.993   6.541  0.7038 -0.0651  0.0402
12240TIP3    H158135   1.076   1.942   6.609  1.6654 -0.5728 -0.9561
12240TIP3    H258136   0.967   1.932   6.505 -0.3735  0.4649  1.0401
12241TIP3   OH258137   0.135   4.763  13.415  0.3030 -0.4384  0.1281
12241TIP3    H158138   0.153   4.724  13.500 -0.1252  0.0870  0.4651
12241TIP3    H258139   0.190   4.841  13.412 -0.2433 -0.0377  0.2493
12242TIP3   OH258140   2.084   3.386  14.191  0.1230  0.1204  0.3385
12242TIP3    H158141   2.108   3.313  14.248 -0.5036  0.7609  1.4292
12242TIP3    H258142   2.037   3.344  14.118 -2.0415 -0.3944  1.9777
12243TIP3   OH258143   3.136   4.609   2.818 -0.2526  0.6932 -0.0577
12243TIP3    H158144   3.217   4.598   2.867 -1.1659 -1.0718  1.1432
12243TIP3    H258145   3.159   4.666   2.745  2.5763 -1.3818 -0.9021
12244TIP3   OH258146   5.226   6.638   4.947  0.2662 -0.1681  0.2496
12244TIP3    H158147   5.288   6.621   4.876 -1.3517  2.2043 -1.7986
12244TIP3    H258148   5.160   6.569   4.939 -0.4915  0.7060 -1.2686
12245TIP3   OH258149   6.668   3.156   3.407 -0.4674 -0.3207 -0.0719
12245TIP3    H158150   6.684   3.117   3.493 -2.8915 -3.1503 -0.8111
12245TIP3    H258151   6.602   3.224   3.423  1.4743  1.4409  0.7405
12246TIP3   OH258152   0.020   6.012  14.725 -0.2959  0.4408 -0.1682
12246TIP3    H158153  -0.017   5.967  14.649  0.4742 -0.2443 -0.1536
12246TIP3    H258154   0.087   6.070  14.688 -1.1355  1.4101 -0.1663
12247TIP3   OH258155   3.853   0.566   1.766  0.3870 -0.5841 -0.4583
12247TIP3    H158156   3.823   0.591   1.679  0.3737 -0.0449 -0.3047
12247TIP3    H258157   3.847   0.471   1.768  1.8402 -0.7021 -1.5561
12248TIP3   OH258158   1.456   5.964  17.042  0.3428  0.1973  0.2973
12248TIP3    H158159   1.413   5.985  16.959  1.1096 -0.3017 -0.2360
12248TIP3    H258160   1.545   5.941  17.017  0.6190  0.1892  1.2853
12249TIP3   OH258161   3.824   1.101  15.475  0.4430 -0.6809 -0.0559
12249TIP3    H158162   3.820   1.009  15.450  3.2377 -1.1735  1.1064
12249TIP3    H258163   3.854   1.146  15.396 -1.0875 -0.7115 -0.6750
12250TIP3   OH258164   4.608   0.477  14.272  0.4139  0.2558  0.6741
12250TIP3    H158165   4.567   0.506  14.354  3.2133 -0.2440  2.3329
12250TIP3    H258166   4.697   0.511  14.277  1.4734 -2.2028 -0.8636
12251TIP3   OH258167   3.888   0.186  14.880 -0.3020 -0.2051  0.1479
12251TIP3    H158168   3.882   0.271  14.836 -0.3730  0.2935  1.1133
12251TIP3    H258169   3.888   0.208  14.973  1.6787 -1.1432  0.3730
12252TIP3   OH258170   1.457   2.135  15.536 -0.3304 -0.1092 -0.2493
12252TIP3    H158171   1.419   2.223  15.535 -0.4190 -0.1161  1.1398
12252TIP3    H258172   1.551   2.149  15.539 -0.3936 -0.0117  2.3055
12253TIP3   OH258173   2.545   5.427  15.950  0.1816  0.4471 -0.5567
12253TIP3    H158174   2.632   5.434  15.991  0.8430 -2.2738 -1.3756
12253TIP3    H258175   2.485   5.463  16.015  1.6655 -0.0270  1.1348
12254TIP3   OH258176   5.252   2.994   1.166  0.1046 -0.3848  0.5032
12254TIP3    H158177   5.320   3.005   1.233  0.4382 -1.7731  0.4055
12254TIP3    H258178   5.293   2.937   1.100 -0.8395 -0.4848  0.0021
12255TIP3   OH258179   5.823   3.115  14.236 -0.4293  0.2639  0.1057
12255TIP3    H158180   5.743   3.161  14.215 -0.5712 -0.4928 -1.0352
12255TIP3    H258181   5.825   3.041  14.176  2.1077  1.3717 -1.2880
12256TIP3   OH258182   2.558   6.303   3.311  0.4114  0.4460 -0.0482
12256TIP3    H158183   2.636   6.287   3.257  0.8948 -0.5520  0.9428
12256TIP3    H258184   2.582   6.378   3.366  0.5700  0.3175  0.0583
12257TIP3   OH258185   2.628   2.840   5.561 -0.6202 -0.2474 -0.1600
12257TIP3    H158186   2.664   2.769   5.509  0.8508 -0.8388  1.5751
12257TIP3    H258187   2.705   2.889   5.592 -1.4697  0.4913  0.8649
12258TIP3   OH258188   5.935   6.180  14.867  0.5559 -0.2632 -0.2642
12258TIP3    H158189   6.025   6.153  14.887  0.9408  0.8182 -0.4769
12258TIP3    H258190   5.882   6.144  14.938  1.1210 -1.1377 -0.2837
12259TIP3   OH258191   2.707   4.762   0.474 -0.1575  1.0393 -0.0784
12259TIP3    H158192   2.738   4.831   0.534  2.4639 -0.5961  0.5255
12259TIP3    H258193   2.734   4.792   0.387 -0.0832  1.3664  0.0566
12260TIP3   OH258194   1.206   1.777   3.112 -0.2970  0.4525  0.6888
12260TIP3    H158195   1.188   1.683   3.113 -0.2748  0.3891 -2.0264
12260TIP3    H258196   1.176   1.808   3.197  0.4883 -2.1501  1.9592
12261TIP3   OH258197   5.766   0.202   2.261 -0.5990 -0.3128 -0.3480
12261TIP3    H158198   5.682   0.224   2.301  0.1726 -0.0918  1.1875
12261TIP3    H258199   5.752   0.116   2.221 -1.8034  0.1297 -0.9050
12262TIP3   OH258200   3.339   6.381  12.439 -0.5325  0.3873  0.5445
12262TIP3    H158201   3.315   6.333  12.359 -0.5474  0.5174  0.4716
12262TIP3    H258202   3.264   6.439  12.455  0.3583  1.8666 -0.5110
12263TIP3   OH258203   6.208   1.699  11.388 -0.2132 -0.3093 -0.1189
12263TIP3    H158204   6.290   1.667  11.351  0.1746 -0.8578  1.1652
12263TIP3    H258205   6.145   1.629  11.371 -0.6746  0.5569 -2.0171
12264TIP3   OH258206   1.203   5.407   5.137 -0.0312 -0.0236 -0.0798
12264TIP3    H158207   1.184   5.341   5.203 -1.1249 -0.4777 -0.8387
12264TIP3    H258208   1.253   5.361   5.069  1.6422  0.5836  0.6991
12265TIP3   OH258209   1.203   5.363  13.817 -0.1396  0.3127  0.0280
12265TIP3    H158210   1.194   5.403  13.903  0.8234 -1.4586  0.9690
12265TIP3    H258211   1.285   5.398  13.782  0.2302 -0.1058  0.4649
12266TIP3   OH258212   4.411   1.504  14.210  0.0989  0.4745 -0.0822
12266TIP3    H158213   4.427   1.587  14.166  0.1456  1.8378  2.3959
12266TIP3    H258214   4.326   1.475  14.176 -0.5590  2.2276  0.0178
12267TIP3   OH258215   2.659   2.583   2.568  0.4713  1.0017  0.0945
12267TIP3    H158216   2.582   2.601   2.515 -0.3706 -0.2733  0.8640
12267TIP3    H258217   2.663   2.488   2.574  2.7428  0.9977 -0.8439
12268TIP3   OH258218   0.798   0.621  13.735  0.1353 -0.3288 -0.3376
12268TIP3    H158219   0.752   0.574  13.666 -0.5534  0.8524 -0.7062
12268TIP3    H258220   0.741   0.615  13.811 -1.8207  3.0767 -1.4113
12269TIP3   OH258221   1.460   1.292  10.884  0.2956 -0.3257  0.0507
12269TIP3    H158222   1.512   1.258  10.811  0.6188 -0.6803  0.4398
12269TIP3    H258223   1.390   1.342  10.843  1.5589  1.0514 -0.4580
12270TIP3   OH258224   5.164   6.285  17.101 -0.1062 -0.1651 -0.4762
12270TIP3    H158225   5.141   6.194  17.082 -0.3298 -0.0684 -0.6622
12270TIP3    H258226   5.251   6.296  17.062 -0.4421 -0.0491 -1.1966
12271TIP3   OH258227   4.538   6.652  15.231 -0.3702 -0.0264 -0.2354
12271TIP3    H158228   4.626   6.614  15.218  1.0235  2.4698  1.5188
12271TIP3    H258229   4.508   6.613  15.313 -1.1735 -1.3317 -1.1384
12272TIP3   OH258230   3.421   1.233  14.892  0.1693  0.6456  0.5311
12272TIP3    H158231   3.401   1.153  14.843  0.5283  0.7494  0.2207
12272TIP3    H258232   3.483   1.280  14.838  0.0815  1.0634  0.7923
12273TIP3   OH258233   5.389   4.287   1.021 -0.2434 -0.5447 -0.2175
12273TIP3    H158234   5.393   4.329   1.107  1.5330  0.5098 -0.7870
12273TIP3    H258235   5.460   4.223   1.022  0.1457 -0.1452 -1.0772
12274TIP3   OH258236   3.168   0.187  11.539 -0.4423 -0.2726  0.1167
12274TIP3    H158237   3.105   0.246  11.499  0.0220  0.9789  1.1935
12274TIP3    H258238   3.224   0.244  11.592  0.6190 -1.5564  0.3943
12275TIP3   OH258239   5.345   1.399   1.681 -0.1960  0.1655  0.2444
12275TIP3    H158240   5.374   1.403   1.590  1.2115 -3.3728  0.4561
12275TIP3    H258241   5.335   1.305   1.699 -0.8945  0.8170  3.5884
12276TIP3   OH258242   3.136   4.112  11.998  0.5573 -0.2062  0.4229
12276TIP3    H158243   3.127   4.193  12.047  0.0252 -1.1010  1.8349
12276TIP3    H258244   3.057   4.061  12.020  1.3375 -1.4894  0.3230
12277TIP3   OH258245   3.178   4.407  16.742  0.6081 -0.2839 -0.2093
12277TIP3    H158246   3.185   4.377  16.832 -0.2489 -0.4384 -0.1937
12277TIP3    H258247   3.095   4.372  16.711 -1.3469  3.5960  0.3878
12278TIP3   OH258248   5.575   5.396   1.787  0.6349  0.1960  0.0338
12278TIP3    H158249   5.542   5.307   1.800  0.0925  0.5915  1.4474
12278TIP3    H258250   5.620   5.393   1.702  0.7245 -1.4447  0.1302
12279TIP3   OH258251   2.025   5.033  11.476  0.0970 -0.1438  0.0782
12279TIP3    H158252   2.106   5.039  11.425 -0.4918  0.2068 -0.8295
12279TIP3    H258253   2.051   5.056  11.565  1.3454 -1.7817  0.1666
12280TIP3   OH258254   4.140   3.602   5.531  0.7915  1.2181 -0.1707
12280TIP3    H158255   4.073   3.587   5.464 -0.5071  1.6119  1.0188
12280TIP3    H258256   4.145   3.518   5.578 -1.7644  2.3183  2.2716
12281TIP3   OH258257   2.320   3.765   4.199 -0.1387  0.7719 -0.0329
12281TIP3    H158258   2.289   3.780   4.288 -0.2156  0.0425  0.0640
12281TIP3    H258259   2.378   3.689   4.206  0.2627  1.0319 -0.5146
12282TIP3   OH258260   5.184   6.738  12.020  0.0354 -0.0038 -0.3676
12282TIP3    H158261   5.106   6.699  12.059  0.6142 -0.5952  0.2133
12282TIP3    H258262   5.221   6.792  12.089 -0.0666  0.5769 -0.7655
12283TIP3   OH258263   5.429   5.486   5.875  0.5586  1.0637  0.1827
12283TIP3    H158264   5.376   5.534   5.938 -0.7286 -0.3694  0.2274
12283TIP3    H258265   5.415   5.532   5.792 -2.6172 -0.5862 -0.2860
12284TIP3   OH258266   2.693   1.494   0.504  0.1933 -0.6116  0.2679
12284TIP3    H158267   2.718   1.478   0.595 -0.4823 -2.3024  0.1693
12284TIP3    H258268   2.650   1.579   0.506  1.9514  0.2855  1.1831
12285TIP3   OH258269   6.506   2.260   5.731 -0.3410  0.3398  0.1943
12285TIP3    H158270   6.429   2.215   5.696 -0.0567  0.7713 -1.0210
12285TIP3    H258271   6.551   2.194   5.783  0.5867 -1.0788 -2.3267
12286TIP3   OH258272   2.468   6.360  16.549 -0.1402 -0.4951 -0.3953
12286TIP3    H158273   2.513   6.279  16.525  1.4050  0.4544 -0.8218
12286TIP3    H258274   2.422   6.386  16.469 -0.4108 -0.7990 -0.3401
12287TIP3   OH258275   0.544   2.598  14.686  0.6074 -0.2555  0.4468
12287TIP3    H158276   0.471   2.651  14.653 -0.0308 -2.2794 -1.5641
12287TIP3    H258277   0.515   2.568  14.772 -0.4286 -0.0582  0.1757
12288TIP3   OH258278   1.974   4.430   3.548  0.2593  0.1731 -0.1494
12288TIP3    H158279   1.897   4.383   3.516  1.3495 -1.4236 -0.5267
12288TIP3    H258280   1.971   4.515   3.504 -0.7936 -0.2209 -0.8503
12289TIP3   OH258281   1.309   4.326   5.146 -0.7039  0.2747 -0.0153
12289TIP3    H158282   1.344   4.245   5.184  0.1173  0.3087 -0.6805
12289TIP3    H258283   1.315   4.390   5.217 -0.6208 -0.0483  0.2714
12290TIP3   OH258284   6.005   5.578   3.543  0.3976  0.1120 -0.3159
12290TIP3    H158285   5.968   5.524   3.613  0.7827  0.6198  0.2856
12290TIP3    H258286   6.093   5.544   3.531  0.9928  1.2354  0.7509
12291TIP3   OH258287   4.338   3.510  16.878 -0.3232  0.5891 -1.0177
12291TIP3    H158288   4.390   3.431  16.867 -1.0191  0.2168 -1.6468
12291TIP3    H258289   4.310   3.508  16.969  0.4694  0.6155 -0.7674
12292TIP3   OH258290   3.900   1.777  14.122  0.5901 -0.7403 -0.2961
12292TIP3    H158291   3.973   1.837  14.132  0.3507 -0.6196  0.7924
12292TIP3    H258292   3.824   1.834  14.111  0.1910 -0.7946  1.9042
12293TIP3   OH258293   5.864   3.759   5.798  0.3656 -0.1100 -0.3123
12293TIP3    H158294   5.946   3.723   5.832 -0.0384  0.5227  1.3833
12293TIP3    H258295   5.799   3.691   5.814  0.4646 -0.4437 -1.2797
12294TIP3   OH258296   6.638   6.624  15.604  0.0818 -0.0989  0.1518
12294TIP3    H158297   6.695   6.694  15.570  1.2855 -0.7605  0.7647
12294TIP3    H258298   6.553   6.641  15.564  0.6741  1.0000 -0.6799
12295TIP3   OH258299   5.458   1.609   5.139 -0.2922 -0.0088 -0.0801
12295TIP3    H158300   5.372   1.582   5.109 -0.2958 -0.8370  0.6560
12295TIP3    H258301   5.445   1.637   5.230  0.3423 -0.8549  0.2781
12296TIP3   OH258302   2.447   6.756   3.193  0.3659 -0.3622  0.0545
12296TIP3    H158303   2.447   6.698   3.269 -0.8925  0.9287  1.0547
12296TIP3    H258304   2.448   6.697   3.117 -0.4814 -1.6651  1.0551
12297TIP3   OH258305   3.677   1.357  15.501 -0.0914  0.3623 -0.3677
12297TIP3    H158306   3.716   1.271  15.514 -0.0131  0.5142  0.4465
12297TIP3    H258307   3.625   1.372  15.580 -1.9230  0.1039 -1.4977
12298TIP3   OH258308   4.518   2.587   2.311  0.1959 -0.4597  0.0544
12298TIP3    H158309   4.471   2.534   2.376  1.1383 -0.8287  0.4386
12298TIP3    H258310   4.545   2.666   2.359 -0.6143  0.0715 -0.3427
12299TIP3   OH258311   6.197   5.485   5.465  0.5853 -0.3404  0.0973
12299TIP3    H158312   6.131   5.553   5.451  0.6707 -0.1011  0.8683
12299TIP3    H258313   6.257   5.496   5.392  0.8802  0.7469  0.4910
12300TIP3   OH258314   4.178   6.385   5.810  0.0294  0.1274 -0.4342
12300TIP3    H158315   4.250   6.443   5.835  2.9652 -3.5035 -0.0151
12300TIP3    H258316   4.148   6.347   5.892 -0.6629 -0.2319 -0.8530
12301TIP3   OH258317   4.562   5.157  14.141 -0.0419 -0.6030 -0.1957
12301TIP3    H158318   4.596   5.083  14.091 -0.0129 -0.7141 -0.0093
12301TIP3    H258319   4.479   5.125  14.177  0.4966 -0.8996  0.7770
12302TIP3   OH258320   4.061   4.143  11.258 -0.4123  0.3824  0.0349
12302TIP3    H158321   4.070   4.231  11.222 -2.0692  1.1795  1.4709
12302TIP3    H258322   3.977   4.144  11.304  0.1364 -1.5569  1.1720
12303TIP3   OH258323   6.564   6.534  10.932  0.2226  0.0623 -0.1029
12303TIP3    H158324   6.554   6.622  10.896  0.0630  0.2673  0.4475
12303TIP3    H258325   6.583   6.480  10.855 -0.8405  0.3715 -0.5946
12304TIP3   OH258326   1.316   3.185   2.141 -0.3362  0.0949  0.3342
12304TIP3    H158327   1.275   3.113   2.093  1.2214  0.9111 -2.3561
12304TIP3    H258328   1.409   3.162   2.144  0.1807  1.9472 -0.5421
12305TIP3   OH258329   0.455   5.778   5.342 -0.0645  0.1761 -0.2680
12305TIP3    H158330   0.521   5.799   5.276  0.0319 -0.1892 -0.2903
12305TIP3    H258331   0.437   5.861   5.386  0.9895  0.1372  0.2634
12306TIP3   OH258332   4.878   5.049  14.240 -0.1973  0.2141  0.4578
12306TIP3    H158333   4.805   5.040  14.178 -1.8451 -3.1597  2.6936
12306TIP3    H258334   4.947   5.091  14.190 -2.4625  0.2489 -2.8103
12307TIP3   OH258335   1.052   4.472  15.346  0.4957  0.0220  0.4756
12307TIP3    H158336   1.128   4.464  15.288 -0.1925  0.8850 -0.5462
12307TIP3    H258337   0.994   4.401  15.320 -0.4440  1.2562 -0.8563
12308TIP3   OH258338   1.684   0.997   3.767  0.2373 -0.2061  1.1337
12308TIP3    H158339   1.759   1.057   3.761  0.6245 -0.7623  0.1940
12308TIP3    H258340   1.623   1.039   3.827  1.3528  0.2138  1.9831
12309TIP3   OH258341   0.422   0.585  15.631  0.2466  0.2670  0.0466
12309TIP3    H158342   0.517   0.586  15.644  0.3344 -0.5263 -0.4924
12309TIP3    H258343   0.387   0.630  15.708  0.9059 -2.1942  1.8410
12310TIP3   OH258344   2.265   1.293   3.602  0.0149 -0.0144  0.1784
12310TIP3    H158345   2.346   1.338   3.580  0.8198 -0.3231  2.4303
12310TIP3    H258346   2.216   1.357   3.654 -0.8243 -0.1546 -0.4222
12311TIP3   OH258347   0.589   5.476   3.205 -0.1687 -0.5058  0.4778
12311TIP3    H158348   0.509   5.423   3.202 -0.7120  0.1479  2.4364
12311TIP3    H258349   0.594   5.517   3.119 -2.1594 -0.2678  0.4515
12312TIP3   OH258350   3.331   0.113  14.319  0.2071  0.0346  0.2090
12312TIP3    H158351   3.322   0.205  14.293  1.9670  0.3772  0.7462
12312TIP3    H258352   3.422   0.105  14.348  0.0051 -1.8294  0.3864
12313TIP3   OH258353   2.096   6.255  12.902 -0.7886  0.1834  0.5088
12313TIP3    H158354   2.182   6.219  12.881 -0.6123  0.9559 -0.1346
12313TIP3    H258355   2.115   6.340  12.942 -1.1964 -0.3745  1.9037
12314TIP3   OH258356   3.453   4.309  15.732 -0.4157  0.5476 -0.3870
12314TIP3    H158357   3.428   4.285  15.821  0.0706 -1.3661 -0.7524
12314TIP3    H258358   3.442   4.404  15.729  0.9491  0.8377  2.1749
12315TIP3   OH258359   2.118   1.540   2.778 -0.2458 -0.5967 -0.9121
12315TIP3    H158360   2.112   1.524   2.684  2.4869  3.2067 -1.8578
12315TIP3    H258361   2.049   1.605   2.795 -0.4234 -0.9224 -0.3687
12316TIP3   OH258362   1.276   2.726   4.456  0.3791  0.1419  0.4257
12316TIP3    H158363   1.309   2.794   4.397  1.0567 -0.1451  0.4675
12316TIP3    H258364   1.223   2.670   4.399  1.2858 -0.3132  0.0173
12317TIP3   OH258365   2.752   4.349  12.075 -0.2961 -0.1429  0.1677
12317TIP3    H158366   2.842   4.319  12.088 -1.0563 -2.0806  1.2347
12317TIP3    H258367   2.732   4.325  11.984  0.4097  0.7012 -0.2104
12318TIP3   OH258368   4.527   5.093   1.901  0.9873 -0.3952  0.0727
12318TIP3    H158369   4.600   5.104   1.963  0.8160 -2.5735  0.6978
12318TIP3    H258370   4.526   4.999   1.882 -0.5395 -0.1107 -1.3357
12319TIP3   OH258371   3.867   2.386  15.785  0.7506 -0.1993  0.2393
12319TIP3    H158372   3.911   2.465  15.751  2.1883  0.1024  2.7050
12319TIP3    H258373   3.925   2.354  15.854 -0.8127 -2.3063  0.6192
12320TIP3   OH258374   5.793   0.076  16.608  0.4664  0.3701  0.7785
12320TIP3    H158375   5.736   0.144  16.574  0.8671  0.8114  0.9699
12320TIP3    H258376   5.857   0.060  16.538  0.2435  0.0379  0.6486
12321TIP3   OH258377   1.672   2.445   0.988 -0.6363 -0.2326 -0.5193
12321TIP3    H158378   1.601   2.428   0.926  1.2640 -1.5645 -2.3689
12321TIP3    H258379   1.631   2.434   1.074 -2.6793 -0.8999 -1.5396
12322TIP3   OH258380   0.795   6.697   3.544 -0.3461 -0.1840  0.3067
12322TIP3    H158381   0.741   6.620   3.561  0.2190 -0.8532 -0.8309
12322TIP3    H258382   0.749   6.743   3.474  1.1705 -1.4563 -1.6199
12323TIP3   OH258383   6.611   5.173  11.619  0.1585 -0.1326 -0.4082
12323TIP3    H158384   6.530   5.123  11.622  0.2847 -0.2685  0.7799
12323TIP3    H258385   6.650   5.151  11.534 -0.3389 -1.1643 -0.3734
12324TIP3   OH258386   2.839   2.132  16.464  0.0258 -0.2404  0.0782
12324TIP3    H158387   2.924   2.141  16.506  0.5441 -0.1260 -0.9823
12324TIP3    H258388   2.851   2.061  16.401 -0.1557  0.9693 -1.3440
12325TIP3   OH258389   2.682   3.051  17.176 -0.1254 -0.4275  0.0688
12325TIP3    H158390   2.766   3.089  17.203 -0.4499  0.0010  0.4629
12325TIP3    H258391   2.701   2.957  17.167 -0.1288 -0.6400  2.2347
12326TIP3   OH258392   4.061   1.454   5.408 -0.3313  0.6657  0.2363
12326TIP3    H158393   4.015   1.481   5.328  0.6750 -1.8416 -1.2535
12326TIP3    H258394   4.112   1.530   5.433  0.3595  1.0840 -2.2845
12327TIP3   OH258395   0.409   5.227   4.224  0.3583  0.0555  0.0878
12327TIP3    H158396   0.333   5.191   4.270  1.4719  0.3618  2.2819
12327TIP3    H258397   0.375   5.302   4.175 -0.7369  0.2422  1.1083
12328TIP3   OH258398   6.453   1.152  16.498 -0.1319  0.8111  0.0562
12328TIP3    H158399   6.373   1.181  16.543  0.3531 -0.0682  1.5175
12328TIP3    H258400   6.518   1.218  16.520  0.1805  0.2289  0.8843
12329TIP3   OH258401   2.754   6.261  13.395 -0.6905  0.5208 -0.5948
12329TIP3    H158402   2.843   6.283  13.369 -0.9907  2.2815 -0.2015
12329TIP3    H258403   2.715   6.345  13.421 -2.5409 -0.1892 -1.0091
12330TIP3   OH258404   1.551   6.390   2.998 -0.0573 -0.2568  0.1526
12330TIP3    H158405   1.607   6.312   2.999  0.3336 -0.0049 -0.8355
12330TIP3    H258406   1.507   6.386   2.913 -1.0486 -0.1075  0.6556
12331TIP3   OH258407   1.210   5.174   2.246 -0.1287  0.1190 -0.1754
12331TIP3    H158408   1.175   5.088   2.225  0.0189  0.1960 -0.7489
12331TIP3    H258409   1.155   5.235   2.197  2.9030  0.0551 -3.9546
12332TIP3   OH258410   6.379   3.396   2.257  0.1622 -0.3887  0.8013
12332TIP3    H158411   6.310   3.356   2.205  0.0561 -0.2559  0.8412
12332TIP3    H258412   6.384   3.486   2.225 -1.2600  0.2743  2.3937
12333TIP3   OH258413   4.731   1.350   0.187 -0.0444  0.1810  0.3094
12333TIP3    H158414   4.776   1.434   0.198  0.9526 -0.2777 -0.2633
12333TIP3    H258415   4.766   1.313   0.107 -1.2462 -0.3214 -0.0020
12334TIP3   OH258416   1.766   6.010  16.957 -0.1700 -0.2022  0.0948
12334TIP3    H158417   1.778   6.065  17.035 -0.7455 -0.9217  0.6944
12334TIP3    H258418   1.844   5.955  16.954 -0.6321 -0.9210  0.7861
12335TIP3   OH258419   3.614   4.644   2.216 -0.1320  0.2098  0.0733
12335TIP3    H158420   3.569   4.572   2.173  0.8716  0.1886 -0.9715
12335TIP3    H258421   3.663   4.602   2.288  0.8672 -0.2405 -0.8528
12336TIP3   OH258422   0.760   1.550  16.069  0.3040  0.9540 -0.1956
12336TIP3    H158423   0.801   1.512  15.992  0.0653 -1.4381  0.8096
12336TIP3    H258424   0.682   1.496  16.084 -1.0453  2.9637  0.2478
12337TIP3   OH258425   3.163   3.775  12.542 -0.0955 -0.1098  0.3940
12337TIP3    H158426   3.084   3.752  12.493  0.2180  0.9030 -0.6222
12337TIP3    H258427   3.221   3.700  12.530  0.2133  0.3720 -1.3404
12338TIP3   OH258428   1.071   5.216   5.310  0.2087 -0.2234 -0.1369
12338TIP3    H158429   1.159   5.181   5.329  0.1167  0.6336  1.9727
12338TIP3    H258430   1.019   5.139   5.289  0.9958 -0.9659  0.5570
12339TIP3   OH258431   6.631   2.044   1.199 -0.2085  0.8729  0.5439
12339TIP3    H158432   6.659   1.961   1.237 -0.7558 -0.7220 -2.3282
12339TIP3    H258433   6.590   2.091   1.271  2.2495 -0.3370  2.7906
12340TIP3   OH258434   1.674   6.004   0.840 -0.3013  0.0098  0.1847
12340TIP3    H158435   1.655   6.011   0.934 -0.1634  1.2701  0.1194
12340TIP3    H258436   1.665   6.093   0.807  1.4828 -0.1015 -0.6558
12341TIP3   OH258437   2.275   6.388   0.946 -0.3053 -0.3006  0.0136
12341TIP3    H158438   2.279   6.303   0.902 -0.2337  0.1003 -0.7849
12341TIP3    H258439   2.221   6.374   1.023  1.5362 -1.6024  1.1057
12342TIP3   OH258440   1.347   2.536  12.131 -0.4489 -0.1920 -0.1972
12342TIP3    H158441   1.267   2.580  12.103 -1.8930 -2.4674  0.1613
12342TIP3    H258442   1.418   2.587  12.093 -2.0776  1.8070 -0.6171
12343TIP3   OH258443   4.284   3.285  15.369  0.5607  0.0991  0.2208
12343TIP3    H158444   4.267   3.369  15.327 -0.8086  0.2090  0.9611
12343TIP3    H258445   4.337   3.306  15.446 -2.2964  0.6887  2.1078
12344TIP3   OH258446   1.267   0.771   6.410  0.2218 -0.4624 -0.8113
12344TIP3    H158447   1.303   0.712   6.344 -2.2410 -1.7184 -1.0862
12344TIP3    H258448   1.178   0.789   6.381 -0.4083  0.1576  1.3781
12345TIP3   OH258449   1.633   3.896  12.053 -0.2082 -0.1948 -0.2648
12345TIP3    H158450   1.545   3.886  12.017 -0.4143 -0.3328  0.2650
12345TIP3    H258451   1.644   3.820  12.110  1.1050 -1.3715 -2.0326
12346TIP3   OH258452   6.450   0.717  14.658 -0.1462 -0.0087  0.2547
12346TIP3    H158453   6.402   0.646  14.616 -0.5029  0.9609 -0.9863
12346TIP3    H258454   6.383   0.777  14.690  0.1989  0.6740 -0.2900
12347TIP3   OH258455   3.382   0.943   2.711  0.2727 -0.1204  0.1433
12347TIP3    H158456   3.326   0.909   2.780 -1.3080  1.2171 -0.4419
12347TIP3    H258457   3.398   1.034   2.736 -0.8219  0.5616 -1.5117
12348TIP3   OH258458   4.162   6.611  15.581 -0.6298  0.0637  0.2345
12348TIP3    H158459   4.128   6.574  15.663 -0.8917 -0.1702  0.0238
12348TIP3    H258460   4.111   6.567  15.513 -0.1762  0.0076 -0.0687
12349TIP3   OH258461   0.517   4.761  16.469  0.1082  0.2688  0.0110
12349TIP3    H158462   0.425   4.751  16.447  0.1453 -0.8118  0.2754
12349TIP3    H258463   0.563   4.709  16.403  0.2838 -2.1216  1.9054
12350TIP3   OH258464   4.917   6.640   3.232 -0.1512  0.4265  0.4081
12350TIP3    H158465   4.919   6.546   3.249  1.6700  0.7003  1.8927
12350TIP3    H258466   4.975   6.653   3.157 -0.0305  0.3937  0.4942
12351TIP3   OH258467   3.702   6.673   3.623 -0.0040 -0.2052  0.0950
12351TIP3    H158468   3.682   6.621   3.701 -1.0731 -0.5632 -0.4108
12351TIP3    H258469   3.793   6.701   3.636  0.9288 -3.0105 -0.0598
12352TIP3   OH258470   6.765   5.966  17.148 -0.4241 -0.3171  0.5654
12352TIP3    H158471   6.770   5.893  17.086 -1.0912  0.4529 -0.4000
12352TIP3    H258472   6.856   5.986  17.169 -0.1938 -0.6154 -0.1382
12353TIP3   OH258473   5.956   6.183   3.079  0.3169 -0.4905 -0.0324
12353TIP3    H158474   6.036   6.220   3.042 -0.1802 -1.0011 -1.6683
12353TIP3    H258475   5.942   6.232   3.159 -1.0561  3.8048 -2.7342
12354TIP3   OH258476   5.891   6.717  15.361 -0.1813  0.1283 -0.2579
12354TIP3    H158477   5.823   6.673  15.310 -1.0169  1.3102 -0.1940
12354TIP3    H258478   5.904   6.801  15.316 -0.1415  0.7144  0.8319
12355TIP3   OH258479   3.057   5.641  14.463  0.1317 -0.4044 -0.2724
12355TIP3    H158480   2.969   5.641  14.425  0.8806 -1.8320 -2.0987
12355TIP3    H258481   3.075   5.549  14.482 -0.0533  0.2440  3.2152
12356TIP3   OH258482   5.447   1.071  11.542 -0.6470 -0.2704  0.0534
12356TIP3    H158483   5.430   1.155  11.501  1.1733  0.9551  1.6885
12356TIP3    H258484   5.473   1.013  11.470  0.0871  1.1379 -0.8218
12357TIP3   OH258485   5.003   3.232  14.164 -0.1720 -0.1838 -0.3848
12357TIP3    H158486   5.029   3.239  14.256 -0.0022 -1.8674 -0.2899
12357TIP3    H258487   5.071   3.280  14.116  1.1116 -1.4469  0.1659
12358TIP3   OH258488   0.412   3.852  13.479 -0.0165  0.0286 -0.3171
12358TIP3    H158489   0.390   3.916  13.412  0.0387  0.0283 -0.3372
12358TIP3    H258490   0.395   3.767  13.438 -0.5904  0.0436 -0.1113
12359TIP3   OH258491   3.730   4.735  16.166  0.6595  0.1421 -0.0821
12359TIP3    H158492   3.750   4.820  16.127  1.4140  0.2138  0.4685
12359TIP3    H258493   3.675   4.755  16.241  3.1849  0.3893  1.7705
12360TIP3   OH258494   4.753   2.430  10.961 -0.1334  0.2669 -0.5222
12360TIP3    H158495   4.819   2.471  11.017  0.0238  0.1303 -0.6088
12360TIP3    H258496   4.677   2.419  11.018  0.0309  0.1158 -0.3332
12361TIP3   OH258497   3.381   2.168  13.428 -0.7658 -0.1463 -0.1996
12361TIP3    H158498   3.329   2.233  13.475  0.1097  0.3747  0.0706
12361TIP3    H258499   3.342   2.084  13.452 -1.2985  0.2171  0.2212
12362TIP3   OH258500   5.640   1.120  11.735  0.4875  0.0358  0.0321
12362TIP3    H158501   5.576   1.094  11.669 -0.7915 -0.0805  1.2878
12362TIP3    H258502   5.672   1.205  11.706 -1.6737  0.9929  0.3917
12363TIP3   OH258503   5.223   2.236  15.155  0.0831  0.3577 -0.4162
12363TIP3    H158504   5.268   2.156  15.127  1.4061  2.0420 -3.4144
12363TIP3    H258505   5.287   2.282  15.209  0.2262  0.5049 -0.7074
12364TIP3   OH258506   1.795   3.616   6.500 -0.6793 -0.0034 -0.4726
12364TIP3    H158507   1.818   3.696   6.548 -0.0441  0.3180 -1.2873
12364TIP3    H258508   1.787   3.645   6.409 -0.1618 -0.9265 -0.8188
12365TIP3   OH258509   2.986   0.084  14.336  0.1820 -0.4156 -0.0600
12365TIP3    H158510   3.062   0.052  14.287  0.8519 -0.7334  1.1648
12365TIP3    H258511   2.912   0.071  14.277  1.1952  0.7382 -1.6282
12366TIP3   OH258512   5.475   2.409   3.907 -0.1618 -0.3210  0.1254
12366TIP3    H158513   5.427   2.328   3.923 -0.1254  0.0936  2.5384
12366TIP3    H258514   5.565   2.388   3.929 -0.1538  0.3850  0.7734
12367TIP3   OH258515   3.000   3.915  13.887  0.2955  0.0656  0.0909
12367TIP3    H158516   2.933   3.896  13.952  1.5615 -0.3780  1.2753
12367TIP3    H258517   2.989   4.008  13.868 -1.0858 -0.1597 -0.2178
12368TIP3   OH258518   2.611   2.980  14.660  0.5278  0.5838 -0.0278
12368TIP3    H158519   2.619   3.060  14.608 -0.8287  1.1972  0.6930
12368TIP3    H258520   2.622   3.009  14.751  1.3986 -0.2624  0.1480
12369TIP3   OH258521   0.151   3.150   0.617  0.1415 -0.0404  0.1608
12369TIP3    H158522   0.099   3.199   0.553 -0.9216 -0.7260  0.4843
12369TIP3    H258523   0.136   3.058   0.595  1.8439 -0.2382 -0.2168
12370TIP3   OH258524   0.788   4.678   2.337  0.1923  0.2096  0.5075
12370TIP3    H158525   0.744   4.727   2.406  1.0202  0.6763  0.7059
12370TIP3    H258526   0.799   4.742   2.266 -2.3588 -0.7442 -0.8208
12371TIP3   OH258527   5.909   2.024   5.250 -0.0570  0.4693  0.3117
12371TIP3    H158528   5.853   2.096   5.278  1.7713  2.0610 -0.0311
12371TIP3    H258529   5.903   1.960   5.321 -0.5778  1.5706  1.2730
12372TIP3   OH258530   5.782   4.059   3.202  0.5194  0.0365  0.0803
12372TIP3    H158531   5.796   4.120   3.130  0.6481  0.7395  0.6971
12372TIP3    H258532   5.692   4.029   3.192  0.6061 -0.0337 -0.4958
12373TIP3   OH258533   5.870   2.929   3.267  0.4512  0.0945 -0.2777
12373TIP3    H158534   5.785   2.918   3.309  0.9991  0.7011  0.9922
12373TIP3    H258535   5.908   2.841   3.268 -0.0668 -0.1394 -0.6657
12374TIP3   OH258536   0.122   1.536   1.617  0.1611 -0.1287 -0.0724
12374TIP3    H158537   0.155   1.513   1.705  3.6796  1.8155 -0.7977
12374TIP3    H258538   0.065   1.612   1.632 -0.6000 -0.8428  0.7101
12375TIP3   OH258539   5.772   0.771  16.646 -0.0231 -0.0466 -0.0709
12375TIP3    H158540   5.743   0.855  16.681 -0.4425 -0.0132 -0.4885
12375TIP3    H258541   5.692   0.720  16.637  0.3691 -0.8933  1.2280
12376TIP3   OH258542   3.470   3.219  13.374 -0.1278 -0.3670  0.5903
12376TIP3    H158543   3.506   3.286  13.432  0.8317 -0.5240  0.1839
12376TIP3    H258544   3.458   3.263  13.290  0.0408 -0.5676  0.4588
12377TIP3   OH258545   0.922   2.462  13.809 -0.0891 -0.0293  0.4765
12377TIP3    H158546   0.964   2.401  13.748  1.6058  1.6393 -0.0779
12377TIP3    H258547   0.903   2.409  13.886 -0.0769 -1.6116 -0.5715
12378TIP3   OH258548   4.499   5.381  16.431  0.4277  0.2852 -0.1771
12378TIP3    H158549   4.431   5.448  16.431  0.5476  0.4224  1.0469
12378TIP3    H258550   4.536   5.383  16.343 -0.4048  0.9657 -0.5108
12379TIP3   OH258551   2.594   2.207  16.718 -0.2938 -0.0196 -0.3390
12379TIP3    H158552   2.521   2.232  16.661 -0.7955 -2.0806 -0.6442
12379TIP3    H258553   2.667   2.191  16.658  0.6369  2.7047  0.0243
12380TIP3   OH258554   3.293   4.653  16.213  0.2375 -0.3386  0.3511
12380TIP3    H158555   3.366   4.595  16.190  1.5411  1.1959  0.4851
12380TIP3    H258556   3.298   4.724  16.148 -2.0320 -0.9302 -0.5325
12381TIP3   OH258557   5.072   5.395   6.555  0.6284  0.1715 -0.7178
12381TIP3    H158558   5.110   5.483   6.554 -2.9815  1.8769  1.6241
12381TIP3    H258559   5.014   5.395   6.631  1.6525 -4.7765  0.2257
12382TIP3   OH258560   2.557   0.846  15.681 -0.5258 -0.5945  0.5523
12382TIP3    H158561   2.589   0.852  15.771 -0.2528  2.0966  0.3285
12382TIP3    H258562   2.472   0.891  15.683 -0.8409 -1.1334 -0.3897
12383TIP3   OH258563   4.348   3.657   1.479 -0.1650  0.5541 -0.5185
12383TIP3    H158564   4.411   3.618   1.539  0.4585  0.9148 -0.9298
12383TIP3    H258565   4.398   3.723   1.431 -0.6559  0.2964 -1.4051
12384TIP3   OH258566   3.301   6.221  13.277 -0.4572 -0.4245  0.0091
12384TIP3    H158567   3.347   6.179  13.350  1.4972  0.8688 -0.4280
12384TIP3    H258568   3.259   6.149  13.230  0.1717 -1.5282  1.1211
12385TIP3   OH258569   5.844   2.315  15.387  0.7494  0.2062 -0.2231
12385TIP3    H158570   5.763   2.365  15.386 -0.3049 -1.4447 -2.6023
12385TIP3    H258571   5.913   2.380  15.401 -0.7493  2.0313 -1.1688
12386TIP3   OH258572   5.292   0.864  11.204 -0.1559 -0.2741  0.6227
12386TIP3    H158573   5.310   0.816  11.123 -3.0287  0.9484 -0.8296
12386TIP3    H258574   5.226   0.811  11.249  0.2734 -0.1602  1.3801
12387TIP3   OH258575   0.120   3.758  16.549 -0.8262 -0.3489 -0.7796
12387TIP3    H158576   0.110   3.666  16.572  1.0012 -0.9935 -2.4049
12387TIP3    H258577   0.215   3.773  16.550 -1.0573  1.2817 -1.3467
12388TIP3   OH258578   4.022   0.742  12.712 -0.6407  0.1453  0.6455
12388TIP3    H158579   4.049   0.781  12.796  0.4027  1.1612 -0.1485
12388TIP3    H258580   4.104   0.727  12.665 -1.2299 -0.3072 -0.2468
12389TIP3   OH258581   0.584   5.437   0.431  0.6652 -0.1037  0.3526
12389TIP3    H158582   0.554   5.512   0.379  1.0288 -0.5579 -0.5125
12389TIP3    H258583   0.660   5.404   0.384  1.1606 -0.3550  1.3258
12390TIP3   OH258584   1.852   2.906  11.869  0.0921  0.0014  0.2854
12390TIP3    H158585   1.900   2.830  11.838  1.6247  1.3050 -0.5780
12390TIP3    H258586   1.819   2.949  11.790 -0.1940  0.6216  0.7319
12391TIP3   OH258587   4.446   3.001   4.917 -0.0218 -0.2610 -0.1424
12391TIP3    H158588   4.535   2.990   4.950  0.3685 -1.4428 -1.5155
12391TIP3    H258589   4.404   2.916   4.933 -0.7485  0.1191  0.0187
12392TIP3   OH258590   4.757   1.570   5.694  0.5561  0.1620  0.3036
12392TIP3    H158591   4.735   1.581   5.786  3.1823 -0.2317  1.0257
12392TIP3    H258592   4.794   1.481   5.689  2.6368  1.0510 -0.6410
12393TIP3   OH258593   6.210   6.524   0.829  0.9454 -0.2993  0.2852
12393TIP3    H158594   6.265   6.603   0.829  1.3324 -0.5581  1.2346
12393TIP3    H258595   6.146   6.539   0.899 -0.7480  0.3616 -1.3766
12394TIP3   OH258596   0.523   3.956  12.367 -0.3172 -0.3023  0.3624
12394TIP3    H158597   0.506   3.995  12.452 -3.2036 -1.7589  0.5089
12394TIP3    H258598   0.469   4.005  12.305 -2.1338 -2.4067  0.1925
12395TIP3   OH258599   1.570   0.574   4.360 -0.1951  0.3334  0.8344
12395TIP3    H158600   1.579   0.479   4.374 -0.5455  0.5435  2.6128
12395TIP3    H258601   1.486   0.596   4.400 -0.7786  1.1854 -0.8081
12396TIP3   OH258602   1.539   3.213   6.000 -0.2402  0.1199 -0.8439
12396TIP3    H158603   1.477   3.210   6.072 -0.2793  1.4906 -0.8135
12396TIP3    H258604   1.493   3.258   5.929  0.6824  1.0790 -0.8440
12397TIP3   OH258605   0.696   6.412   5.091  0.1067  0.0766 -0.2330
12397TIP3    H158606   0.747   6.453   5.160  1.9810 -0.2158 -1.3821
12397TIP3    H258607   0.623   6.471   5.076  0.9275  1.2881  0.4478
12398TIP3   OH258608   0.732   4.741  15.802 -0.3778  0.3153  0.2251
12398TIP3    H158609   0.707   4.825  15.765 -0.0052  1.4005  2.3332
12398TIP3    H258610   0.691   4.740  15.888  1.9973 -0.3668  1.4059
12399TIP3   OH258611   5.493   0.064   5.965 -0.2124  0.3410 -0.5748
12399TIP3    H158612   5.501   0.156   5.940 -2.3268  0.8977  0.7111
12399TIP3    H258613   5.401   0.043   5.951  0.2998 -1.6737 -1.1178
12400TIP3   OH258614   6.154   3.222  11.690 -0.3404  0.1587 -0.1731
12400TIP3    H158615   6.126   3.200  11.602  0.0533 -0.4165 -0.1585
12400TIP3    H258616   6.120   3.151  11.745  1.4691 -0.7647 -0.2105
12401TIP3   OH258617   4.828   2.270  11.732  0.2739  0.3068 -0.2270
12401TIP3    H158618   4.846   2.306  11.646 -0.8172 -3.5231 -2.1515
12401TIP3    H258619   4.914   2.264  11.775  0.8861  1.6748 -1.2390
12402TIP3   OH258620   3.170   4.871  10.952 -0.4960  0.5098  0.0622
12402TIP3    H158621   3.150   4.892  10.861  0.1775 -1.3005 -0.5300
12402TIP3    H258622   3.242   4.929  10.976  0.6952 -0.4214 -1.2175
12403TIP3   OH258623   5.553   1.338   2.330 -0.1055  0.2393 -0.0694
12403TIP3    H158624   5.625   1.279   2.350  1.6464  2.4713  0.3820
12403TIP3    H258625   5.572   1.371   2.242 -0.5488  0.8984  0.0767
12404TIP3   OH258626   2.161   0.026  12.356  0.1100  0.1569  0.5143
12404TIP3    H158627   2.094  -0.038  12.381  0.8135 -0.7231  0.1578
12404TIP3    H258628   2.117   0.084  12.294 -0.6454  0.2585  1.1367
12405TIP3   OH258629   3.175   1.888  15.918  0.3689  0.3085  0.5493
12405TIP3    H158630   3.206   1.969  15.878 -3.4213  0.7313 -1.7985
12405TIP3    H258631   3.182   1.822  15.849  1.0820 -0.8173  1.6734
12406TIP3   OH258632   4.067   0.420   2.277 -0.2908 -0.3413  0.2343
12406TIP3    H158633   3.974   0.421   2.297  0.0380 -0.6358  1.9058
12406TIP3    H258634   4.073   0.449   2.186 -1.9013  1.0324  0.5485
12407TIP3   OH258635   4.169   0.276  16.149 -0.2364  0.0580 -0.2508
12407TIP3    H158636   4.076   0.298  16.143 -0.4487 -0.4926  0.8541
12407TIP3    H258637   4.212   0.339  16.091 -1.0855  1.7074  0.8634
12408TIP3   OH258638   5.253   0.272  13.461 -0.5163  0.1815  0.3046
12408TIP3    H158639   5.327   0.286  13.402 -1.1454 -1.8731 -1.0118
12408TIP3    H258640   5.282   0.307  13.546  1.7543 -0.1665 -0.3168
12409TIP3   OH258641   0.964   0.675  14.922 -0.5548 -0.5262 -0.1383
12409TIP3    H158642   0.922   0.606  14.973  0.3234 -2.4697 -1.9846
12409TIP3    H258643   1.052   0.682  14.959 -1.0925  0.6306  0.9752
12410TIP3   OH258644   6.693   1.751   5.761 -0.0865 -0.9182  0.0075
12410TIP3    H158645   6.608   1.755   5.806  0.3424 -0.6578  0.8016
12410TIP3    H258646   6.698   1.661   5.729 -1.4642 -0.4440 -1.6365
12411TIP3   OH258647   1.427   3.370   3.268 -0.3223  0.2187 -0.5770
12411TIP3    H158648   1.476   3.452   3.279 -1.8468  1.1874 -0.8643
12411TIP3    H258649   1.398   3.372   3.177 -1.1542 -0.1875 -0.3224
12412TIP3   OH258650   5.517   5.774   0.189  0.2243 -0.2840  0.3271
12412TIP3    H158651   5.537   5.862   0.221 -1.6008 -0.0571  0.8735
12412TIP3    H258652   5.545   5.716   0.260  0.5700 -0.0859  0.3537
12413TIP3   OH258653   0.228   2.472  16.054 -0.1228 -0.4243 -0.0756
12413TIP3    H158654   0.164   2.502  16.118  0.9996  2.6239 -0.3009
12413TIP3    H258655   0.180   2.471  15.971 -0.4259 -0.1074  0.0919
12414TIP3   OH258656   1.960   3.309  12.274  0.1790 -0.3232  0.3652
12414TIP3    H158657   1.975   3.293  12.181 -0.5163  1.1726 -0.0059
12414TIP3    H258658   2.031   3.262  12.318  0.5575 -0.9585 -0.9178
12415TIP3   OH258659   2.470   4.105   2.029  0.5864  0.1658  0.5977
12415TIP3    H158660   2.557   4.091   2.067  0.2886 -3.1942  0.2230
12415TIP3    H258661   2.410   4.062   2.090 -0.5983  0.6469 -0.2073
12416TIP3   OH258662   4.597   3.064   5.523 -0.0777 -0.0022 -0.8849
12416TIP3    H158663   4.627   3.121   5.452  1.1409 -1.5556 -1.6693
12416TIP3    H258664   4.532   3.007   5.483 -2.3391  1.7439  0.2377
12417TIP3   OH258665   1.188   6.381   4.129 -0.6186 -0.4592  0.1910
12417TIP3    H158666   1.221   6.311   4.074 -2.3174 -1.1737  0.0486
12417TIP3    H258667   1.185   6.457   4.072 -0.1495 -0.6214 -0.0505
12418TIP3   OH258668   0.498   6.076   2.824 -0.0870 -0.0170 -0.4171
12418TIP3    H158669   0.531   6.156   2.863 -0.1519 -0.3879  0.4093
12418TIP3    H258670   0.564   6.052   2.759  1.4812 -0.9416  1.4629
12419TIP3   OH258671   4.898   0.776  15.972 -0.2634  0.4054  0.2198
12419TIP3    H158672   4.803   0.765  15.970 -0.0920 -1.4548  0.8543
12419TIP3    H258673   4.912   0.851  16.030 -1.2641 -0.7377  1.9924
12420TIP3   OH258674   2.976   1.118   0.861 -0.0314 -0.4712 -0.7049
12420TIP3    H158675   2.919   1.044   0.882 -1.3145  0.2644 -1.5942
12420TIP3    H258676   2.927   1.170   0.798  1.5930  0.2167 -1.4310
12421TIP3   OH258677   0.728   0.822  12.791 -0.1589  0.7411 -0.1131
12421TIP3    H158678   0.688   0.752  12.739  1.8484 -0.0164 -0.7171
12421TIP3    H258679   0.722   0.900  12.735 -1.3206  0.7772  0.0570
12422TIP3   OH258680   3.004   0.252  15.511 -0.2353 -0.0304 -0.1785
12422TIP3    H158681   3.039   0.270  15.598 -1.6194 -1.2812  0.6826
12422TIP3    H258682   2.991   0.157  15.511 -2.6096  0.2510 -0.7989
12423TIP3   OH258683   4.106   5.282  14.810  0.5602  0.4962  0.1670
12423TIP3    H158684   4.042   5.345  14.779 -0.7508 -0.7555  0.2694
12423TIP3    H258685   4.111   5.216  14.740 -1.7244 -1.8527  2.1155
12424TIP3   OH258686   2.598   3.206  10.320  0.3148 -0.1702  0.0248
12424TIP3    H158687   2.564   3.291  10.347  0.1801  0.1740 -1.1874
12424TIP3    H258688   2.520   3.152  10.306  0.4205 -0.7052  1.4471
12425TIP3   OH258689   1.422   1.363  13.326 -0.0407  0.0734  0.1565
12425TIP3    H158690   1.328   1.352  13.311 -0.1525  0.5320  0.4944
12425TIP3    H258691   1.463   1.330  13.247 -0.6008  2.2387 -1.0779
12426TIP3   OH258692   0.851   2.536   1.155 -0.0180 -0.0208  0.2785
12426TIP3    H158693   0.914   2.566   1.222 -0.4035  0.8436  0.2651
12426TIP3    H258694   0.829   2.447   1.181 -1.9947  1.1188  2.6794
12427TIP3   OH258695   6.725   6.485  16.392 -0.4345 -0.1678  0.3504
12427TIP3    H158696   6.814   6.514  16.413  0.1924 -1.3985 -0.5611
12427TIP3    H258697   6.693   6.549  16.329  0.0563 -0.1024  0.1628
12428TIP3   OH258698   0.129   4.925  13.711 -0.6488 -0.2432 -0.4349
12428TIP3    H158699   0.131   5.005  13.658 -1.3880 -0.5341 -0.8982
12428TIP3    H258700   0.037   4.913  13.734 -0.6145 -1.2254 -0.7769
12429TIP3   OH258701   3.010   4.458   1.735  0.3301  0.2283  0.1292
12429TIP3    H158702   2.970   4.426   1.816 -1.2644  0.1436 -0.6714
12429TIP3    H258703   3.050   4.542   1.759 -0.8400  0.5918  0.8178
12430TIP3   OH258704   6.021   3.196   1.929  0.1895  0.1340 -0.2816
12430TIP3    H158705   5.926   3.211   1.930  0.2024  0.2327  1.6335
12430TIP3    H258706   6.033   3.120   1.873 -0.7779  1.6033 -2.5606
12431TIP3   OH258707   5.287   6.498   3.303 -0.3741 -0.4145 -0.3467
12431TIP3    H158708   5.305   6.484   3.396  3.3287  1.7337 -0.6214
12431TIP3    H258709   5.228   6.573   3.300 -0.1665 -0.2260  0.2760
12432TIP3   OH258710   0.715   5.893   1.470  0.3972 -0.2160  0.0729
12432TIP3    H158711   0.700   5.915   1.378 -0.3651  0.3313  0.3260
12432TIP3    H258712   0.778   5.820   1.467  1.7213  0.9367 -0.8135
12433TIP3   OH258713   0.599   1.391   2.865  0.3693 -0.0286 -0.2182
12433TIP3    H158714   0.504   1.383   2.859  0.4601 -1.0560 -0.4455
12433TIP3    H258715   0.616   1.485   2.858 -0.9385  0.7155  4.9030
12434TIP3   OH258716   2.767   2.621   3.873 -0.3451  0.1046  0.5228
12434TIP3    H158717   2.856   2.623   3.910 -0.6523 -0.0347  1.2621
12434TIP3    H258718   2.757   2.706   3.831  1.2151 -0.9259 -2.0948
12435TIP3   OH258719   2.502   3.009   6.230 -0.6770  0.1888  0.4136
12435TIP3    H158720   2.432   2.949   6.255 -0.3562 -0.1557  0.4957
12435TIP3    H258721   2.582   2.966   6.260 -0.3431  0.0856 -0.5814
12436TIP3   OH258722   3.787   4.701  12.698  0.3540  0.2946 -0.5139
12436TIP3    H158723   3.870   4.667  12.664  0.3706 -1.5653  1.2801
12436TIP3    H258724   3.784   4.670  12.788 -1.0771  2.6041  0.2699
12437TIP3   OH258725   3.619   3.222   2.822  0.3418  0.6580 -0.2983
12437TIP3    H158726   3.709   3.248   2.798  0.0015  0.9470 -1.3043
12437TIP3    H258727   3.563   3.281   2.771 -0.4248  2.0809  2.1149
12438TIP3   OH258728   2.793   4.400   5.036 -0.0147  0.1118 -0.1220
12438TIP3    H158729   2.792   4.495   5.028 -0.2414  0.0494 -0.8207
12438TIP3    H258730   2.718   4.379   5.091 -0.5468  0.2552 -0.8008
12439TIP3   OH258731   5.013   5.262  17.119  0.5350  0.2255 -0.2014
12439TIP3    H158732   5.023   5.174  17.082 -0.5752 -0.2575  0.6375
12439TIP3    H258733   4.999   5.318  17.043 -1.0376 -0.6564 -0.5864
12440TIP3   OH258734   2.442   4.294  15.664  0.0904 -0.1557  0.1466
12440TIP3    H158735   2.366   4.285  15.606 -2.2950 -1.0600  3.2256
12440TIP3    H258736   2.486   4.373  15.635 -1.3255 -0.2817 -2.5074
12441TIP3   OH258737   2.047   5.758   2.593 -0.1000 -0.0677 -0.8491
12441TIP3    H158738   2.047   5.758   2.688  2.7155 -1.9296 -0.7801
12441TIP3    H258739   1.973   5.702   2.569 -1.3504  1.1045  0.1867
12442TIP3   OH258740   3.629   2.664   3.013 -0.5258 -0.6241 -0.3572
12442TIP3    H158741   3.634   2.579   2.970 -1.3547 -0.4180 -0.8623
12442TIP3    H258742   3.640   2.727   2.942  0.3046 -0.3065  0.0455
12443TIP3   OH258743   2.235   3.255   0.272 -0.2478  0.7041 -0.7554
12443TIP3    H158744   2.148   3.233   0.305 -0.6130  3.0634 -0.0246
12443TIP3    H258745   2.255   3.187   0.208 -1.6027 -1.2013  0.8017
12444TIP3   OH258746   6.166   6.101  14.186 -0.0698  0.0929  0.1681
12444TIP3    H158747   6.248   6.066  14.221 -0.8850 -1.4657  0.5763
12444TIP3    H258748   6.138   6.037  14.120 -0.1865  1.3827 -1.0551
12445TIP3   OH258749   4.191   2.193   1.754 -0.4460 -0.2470 -0.1192
12445TIP3    H158750   4.177   2.288   1.744 -0.0111 -0.1175  0.4571
12445TIP3    H258751   4.172   2.176   1.846  0.8693 -0.4682  0.1166
12446TIP3   OH258752   3.364   0.938   5.639  0.0177 -0.7504 -0.7128
12446TIP3    H158753   3.427   1.010   5.649 -1.0497  0.2484 -1.0268
12446TIP3    H258754   3.351   0.930   5.545  0.3044 -1.5159 -0.6892
12447TIP3   OH258755   0.660   4.170  15.895  0.1047  0.4775 -0.1107
12447TIP3    H158756   0.731   4.120  15.937 -1.7220 -1.8979  0.2246
12447TIP3    H258757   0.628   4.112  15.826 -1.4156  1.6039 -0.3605
12448TIP3   OH258758   6.168   2.901  13.668 -0.3730 -0.0949 -0.3809
12448TIP3    H158759   6.098   2.945  13.716 -0.7980 -0.2615 -0.8447
12448TIP3    H258760   6.201   2.967  13.607 -1.0599 -0.4333 -1.1262
12449TIP3   OH258761   0.163   1.854   1.792  0.1861  0.1742  0.1350
12449TIP3    H158762   0.120   1.837   1.709 -1.2987  0.0361  0.9151
12449TIP3    H258763   0.208   1.773   1.813 -2.0185 -0.8783  0.9650
12450TIP3   OH258764   0.176   3.418   2.661  0.2172  0.2488 -0.0715
12450TIP3    H158765   0.098   3.408   2.607  0.6362 -0.9016 -0.4951
12450TIP3    H258766   0.163   3.357   2.734 -1.6209  3.7892  2.7210
12451TIP3   OH258767   4.840   4.618  15.522 -0.2161  0.4903 -0.3641
12451TIP3    H158768   4.834   4.643  15.614  0.6973  2.2720 -0.7724
12451TIP3    H258769   4.906   4.677  15.486  0.4895 -1.1705 -1.8327
12452TIP3   OH258770   6.165   3.890   1.005  0.6381 -0.4603  0.2004
12452TIP3    H158771   6.140   3.907   0.914  0.3582 -1.7806  0.0197
12452TIP3    H258772   6.128   3.804   1.024  0.0278  0.1384  1.8248
12453TIP3   OH258773   4.190   0.347   5.115 -0.0764  0.6669 -0.5346
12453TIP3    H158774   4.243   0.405   5.169  0.3175  0.6140 -0.8639
12453TIP3    H258775   4.229   0.260   5.126 -0.3620  0.5512 -0.4298
12454TIP3   OH258776   2.451   4.690   3.062  0.1066 -0.0780  0.1199
12454TIP3    H158777   2.397   4.617   3.091 -1.8726  0.7362 -1.3917
12454TIP3    H258778   2.485   4.663   2.977  2.2247 -0.6204  1.0954
12455TIP3   OH258779   0.768   3.564   3.883  0.4845  0.5133  0.7185
12455TIP3    H158780   0.816   3.592   3.805  1.5171  2.6370  2.0791
12455TIP3    H258781   0.720   3.642   3.911 -1.4615 -0.7895  1.0653
12456TIP3   OH258782   5.992   4.002   2.979 -0.1530 -0.5426 -0.2453
12456TIP3    H158783   5.910   4.040   3.013 -0.2460 -0.5549 -0.4543
12456TIP3    H258784   6.054   4.074   2.982 -0.1408 -0.5621  0.0183
12457TIP3   OH258785   6.188   2.314   2.191 -0.2180 -0.2787 -0.5834
12457TIP3    H158786   6.216   2.315   2.282 -0.1688 -3.2121 -0.5244
12457TIP3    H258787   6.199   2.223   2.163 -2.1360  0.1472 -2.9093
12458TIP3   OH258788   0.932   3.002   3.519 -0.2603 -0.2937  0.3548
12458TIP3    H158789   0.866   2.970   3.458  0.1136  0.9373 -0.7206
12458TIP3    H258790   0.959   2.925   3.569 -3.3896 -0.5878  1.6830
12459TIP3   OH258791   4.930   3.578   1.653  0.8381 -0.3063 -0.1112
12459TIP3    H158792   4.899   3.528   1.577  1.2521 -0.5919 -0.0950
12459TIP3    H258793   4.851   3.603   1.699  0.5493  0.3399 -0.9416
12460TIP3   OH258794   6.552   1.389   5.071  0.0752  0.8014 -0.2793
12460TIP3    H158795   6.491   1.460   5.050 -0.3155  0.4887 -0.2209
12460TIP3    H258796   6.604   1.422   5.145 -0.9054  0.5771  0.5205
12461TIP3   OH258797   5.068   6.376   5.031 -0.0041 -0.0303 -0.3564
12461TIP3    H158798   5.120   6.327   4.968 -0.0880 -0.6402  0.0408
12461TIP3    H258799   4.977   6.358   5.006 -0.0330  0.0300 -0.2950
12462TIP3   OH258800   4.537   3.676  15.741 -0.1883  0.3747 -0.0834
12462TIP3    H158801   4.518   3.648  15.652 -1.0048  0.6678 -0.0078
12462TIP3    H258802   4.511   3.602  15.796  0.5663  0.0914 -0.1067
12463TIP3   OH258803   5.619   4.579  14.982  0.0804 -0.4087  0.3692
12463TIP3    H158804   5.571   4.530  14.915 -1.6323  1.8059 -0.0854
12463TIP3    H258805   5.600   4.533  15.064 -2.3373  0.0422  0.0903
12464TIP3   OH258806   0.396   4.499  13.072  0.9453  0.7294  0.0175
12464TIP3    H158807   0.391   4.547  13.155  1.9329  1.2804 -0.2408
12464TIP3    H258808   0.438   4.560  13.011  0.3888  0.2581 -0.8472
12465TIP3   OH258809   3.929   5.293  11.465 -0.0818  0.3345 -0.3498
12465TIP3    H158810   3.962   5.303  11.376 -0.9870 -1.1533 -0.8638
12465TIP3    H258811   3.894   5.204  11.469  0.8726  0.0197  1.8142
12466TIP3   OH258812   1.624   1.089   2.362 -0.3826 -0.2463 -0.0956
12466TIP3    H158813   1.559   1.083   2.431 -0.0294  2.9003  0.6000
12466TIP3    H258814   1.708   1.095   2.408 -0.0719  1.0496 -0.7849
12467TIP3   OH258815   6.234   4.039   5.667  0.6444  0.4996  0.3415
12467TIP3    H158816   6.221   4.134   5.662  0.5629  0.5123  0.7047
12467TIP3    H258817   6.186   4.014   5.747 -1.3377 -0.1877 -1.0265
12468TIP3   OH258818   0.201   0.518   3.730  0.1391  0.0020 -0.3960
12468TIP3    H158819   0.218   0.564   3.648 -1.4880  0.5086 -0.4777
12468TIP3    H258820   0.168   0.432   3.703  1.9087 -0.7497 -0.2457
12469TIP3   OH258821   2.957   6.700   2.596 -0.0733 -0.1848  0.1321
12469TIP3    H158822   2.999   6.645   2.662  3.8529  0.3267 -1.7918
12469TIP3    H258823   3.027   6.757   2.564 -3.1713  3.4824 -0.4861
12470TIP3   OH258824   3.382   2.741   1.471 -1.0813 -0.3832  0.3613
12470TIP3    H158825   3.341   2.822   1.441  0.4395  1.1392  2.2381
12470TIP3    H258826   3.311   2.690   1.510 -2.0648  0.0010 -0.9131
12471TIP3   OH258827   0.094   5.256  16.279  0.0416  0.2939 -0.7751
12471TIP3    H158828   0.066   5.218  16.196 -1.6666 -0.6640  0.2206
12471TIP3    H258829   0.080   5.350  16.268 -2.3203 -0.0337 -0.7902
12472TIP3   OH258830   2.940   4.260  16.691  0.4227  0.0488 -0.4179
12472TIP3    H158831   2.929   4.167  16.672 -1.5922  0.1483  0.1310
12472TIP3    H258832   2.891   4.273  16.772 -0.5943  1.8727 -1.2922
12473TIP3   OH258833   0.090   1.260   0.360  0.2052 -0.1643  0.3545
12473TIP3    H158834   0.104   1.176   0.317  0.9772 -0.0191  0.3236
12473TIP3    H258835   0.139   1.323   0.307  1.7463 -0.0901  1.8457
12474TIP3   OH258836   6.148   4.085   1.821  0.3879  0.6059  0.0374
12474TIP3    H158837   6.207   4.062   1.749 -0.4102 -0.9636 -0.1362
12474TIP3    H258838   6.062   4.055   1.792 -0.2369  1.5476  0.9104
12475TIP3   OH258839   4.701   0.953   5.312  0.2636  0.2797 -0.2017
12475TIP3    H158840   4.703   1.048   5.325 -1.0610  0.2422  0.3513
12475TIP3    H258841   4.652   0.919   5.387 -1.9046 -0.5456 -1.9516
12476TIP3   OH258842   2.097   6.628  16.952 -0.0738 -0.2570  0.0513
12476TIP3    H158843   2.152   6.584  17.017 -0.7881 -1.0695  0.1122
12476TIP3    H258844   2.008   6.604  16.975 -0.3534 -0.3608 -1.0825
12477TIP3   OH258845   3.676   0.268  11.483 -0.0535  0.6613  0.2559
12477TIP3    H158846   3.597   0.321  11.489 -0.7157 -0.4698  2.4468
12477TIP3    H258847   3.671   0.209  11.559  1.4732 -1.3647 -1.1434
12478TIP3   OH258848   0.477   5.423   5.423  0.0128 -0.2270 -0.0349
12478TIP3    H158849   0.533   5.398   5.350  1.4396  2.6110  0.0076
12478TIP3    H258850   0.487   5.351   5.486  0.6181 -1.5635 -1.6147
12479TIP3   OH258851   2.884   5.540   0.423  0.3507 -0.5399 -0.3126
12479TIP3    H158852   2.930   5.457   0.430 -0.6916 -0.9672  2.1502
12479TIP3    H258853   2.842   5.551   0.509 -1.8473  1.1449 -1.5529
12480TIP3   OH258854   2.365   0.549   2.422  0.8084  0.3256 -0.6894
12480TIP3    H158855   2.418   0.477   2.456 -1.2443 -1.0118 -0.1910
12480TIP3    H258856   2.377   0.620   2.485 -1.8040 -1.6278  2.1218
12481TIP3   OH258857   4.568   0.107  11.689  0.3022  0.0094  0.2170
12481TIP3    H158858   4.611   0.186  11.721 -0.3256  0.2479  0.4713
12481TIP3    H258859   4.572   0.046  11.762  0.4980 -0.0840  0.1292
12482TIP3   OH258860   1.187   4.220   5.446 -0.1940 -0.1912 -0.1818
12482TIP3    H158861   1.168   4.159   5.375 -0.8584  0.7996 -0.8614
12482TIP3    H258862   1.136   4.299   5.425  1.6197  1.0622  0.0311
12483TIP3   OH258863   6.701   4.017   6.140  0.0880  0.2634  0.7307
12483TIP3    H158864   6.707   3.994   6.233  1.6690  0.5691  0.7129
12483TIP3    H258865   6.692   4.113   6.140 -2.0794  0.0802  0.6389
12484TIP3   OH258866   5.259   6.736   0.192  0.1263  0.2837  0.3788
12484TIP3    H158867   5.311   6.662   0.224 -2.4671 -0.3538  3.3047
12484TIP3    H258868   5.231   6.710   0.105  0.3553 -1.5876  0.8464
12485TIP3   OH258869   6.279   2.970  14.531  0.3118 -0.6348  0.2626
12485TIP3    H158870   6.256   3.040  14.592 -1.8306 -1.7832  0.8404
12485TIP3    H258871   6.195   2.944  14.491  1.2778 -1.8218 -1.0722
12486TIP3   OH258872   3.394   1.497  12.689  0.1348 -0.2166  0.6427
12486TIP3    H158873   3.342   1.482  12.609 -0.6407  0.0111  1.1004
12486TIP3    H258874   3.440   1.579  12.672  1.0182 -0.8581 -0.1104
12487TIP3   OH258875   1.289   0.568  14.913  0.1812  0.0003 -0.1306
12487TIP3    H158876   1.326   0.481  14.930 -0.2290  0.1211  1.4555
12487TIP3    H258877   1.307   0.618  14.992 -1.9538  0.5429  0.0609
12488TIP3   OH258878   3.063   2.906  13.925  0.5142  0.3734 -0.0692
12488TIP3    H158879   3.037   2.986  13.972  0.9624  0.4238  0.0983
12488TIP3    H258880   3.144   2.879  13.968  1.1259  0.6221 -1.0372
12489TIP3   OH258881   0.541   3.855   0.743 -0.6215  0.3228  0.1095
12489TIP3    H158882   0.622   3.814   0.713 -0.7663  0.3644 -0.3408
12489TIP3    H258883   0.472   3.798   0.711 -0.9660  2.3014 -2.8574
12490TIP3   OH258884   1.462   0.310  11.189 -0.3971  0.3629 -0.2918
12490TIP3    H158885   1.441   0.324  11.097 -0.4261  0.6528 -0.2412
12490TIP3    H258886   1.379   0.282  11.229 -0.2561 -0.3178 -0.4683
12491TIP3   OH258887   3.293   5.360   0.003  0.3375  0.1896 -0.0783
12491TIP3    H158888   3.317   5.268  -0.005 -0.0852  0.1770 -1.2625
12491TIP3    H258889   3.322   5.400  -0.080 -0.5375  0.8820 -0.0623
12492TIP3   OH258890   3.119   1.423  15.680 -0.1716 -0.5169 -0.3249
12492TIP3    H158891   3.161   1.353  15.730  0.2167  0.7093  1.1019
12492TIP3    H258892   3.140   1.403  15.588  1.9660 -0.9549  0.2366
12493TIP3   OH258893   6.427   2.581   0.363  0.3964 -0.3831  0.1901
12493TIP3    H158894   6.415   2.525   0.440  0.3013 -1.0606 -0.3196
12493TIP3    H258895   6.517   2.613   0.371 -0.1929  1.0259  1.5612
12494TIP3   OH258896   1.144   4.676  16.223  0.0850  0.1230  0.5579
12494TIP3    H158897   1.178   4.685  16.134  0.2773 -1.0836  0.5043
12494TIP3    H258898   1.168   4.758  16.266 -0.7744  1.0617 -0.7540
12495TIP3   OH258899   0.262   3.457  12.336 -0.4538 -0.2840  0.2279
12495TIP3    H158900   0.356   3.452  12.350 -0.3760 -1.6205 -0.8062
12495TIP3    H258901   0.224   3.433  12.421  0.1220 -1.2188  0.2242
12496TIP3   OH258902   0.251   3.041   3.334 -0.0407  0.0624 -0.2091
12496TIP3    H158903   0.217   2.953   3.345 -0.7653  0.3664  0.0165
12496TIP3    H258904   0.264   3.073   3.423 -3.5294  1.6083 -0.1659
12497TIP3   OH258905   0.350   0.230  13.738 -0.3255 -0.2591  0.0481
12497TIP3    H158906   0.331   0.286  13.813  0.8328 -0.2432  0.3449
12497TIP3    H258907   0.342   0.288  13.662 -0.5034 -0.0268  0.2440
12498TIP3   OH258908   3.424   6.009   3.696 -0.0931 -0.1633  0.4609
12498TIP3    H158909   3.409   6.048   3.782 -0.9198 -0.0995  0.2952
12498TIP3    H258910   3.415   5.915   3.710 -1.4816 -0.0762  0.2076
12499TIP3   OH258911   1.903   0.825  15.375 -0.2646  0.0328  0.3436
12499TIP3    H158912   1.972   0.791  15.432 -0.4447  1.2877  1.3190
12499TIP3    H258913   1.921   0.919  15.369 -1.0731  0.1358 -0.5318
12500TIP3   OH258914   0.156   6.267  12.326  0.5838 -0.2404  0.0038
12500TIP3    H158915   0.236   6.306  12.362  1.0548 -0.3121 -0.9359
12500TIP3    H258916   0.125   6.208  12.395 -0.2692  1.9518  1.5442
12501TIP3   OH258917   5.316   2.119   1.541 -0.3933 -0.5222  0.7874
12501TIP3    H158918   5.241   2.172   1.515 -1.5472 -2.7969 -0.6454
12501TIP3    H258919   5.277   2.045   1.589  1.2324  0.2464  3.4095
12502TIP3   OH258920   3.267   5.359  15.118 -0.3100  0.2807 -0.5417
12502TIP3    H158921   3.276   5.340  15.024 -0.7893 -1.8093 -0.1976
12502TIP3    H258922   3.344   5.318  15.158 -1.4343 -1.1386  0.2429
12503TIP3   OH258923   6.547   6.568  17.104 -0.0069  0.4561  0.0522
12503TIP3    H158924   6.524   6.597  17.015 -0.6554 -3.5491 -1.1545
12503TIP3    H258925   6.479   6.505  17.127  0.9938  0.3553  2.8294
12504TIP3   OH258926   1.361   1.806  17.110  0.1154  0.0404 -0.0970
12504TIP3    H158927   1.310   1.881  17.140 -0.0128 -0.5113  1.1200
12504TIP3    H258928   1.452   1.835  17.114  0.0037  0.4602 -0.6050
12505TIP3   OH258929   0.165   1.643  13.029 -0.0922  0.1856  0.5669
12505TIP3    H158930   0.110   1.721  13.018 -0.7130 -0.3622 -0.2995
12505TIP3    H258931   0.119   1.589  13.092  0.7622  0.8825  1.8191
12506TIP3   OH258932   0.036   4.269   3.654  0.1081  0.4891  0.6505
12506TIP3    H158933   0.025   4.308   3.741  2.3526 -0.5075  1.4189
12506TIP3    H258934   0.112   4.211   3.663 -0.7401 -1.0187 -1.5147
12507TIP3   OH258935   1.806   4.410  17.100  0.1405 -0.2573 -0.1636
12507TIP3    H158936   1.801   4.502  17.076 -1.7730 -0.2375  0.1655
12507TIP3    H258937   1.781   4.408  17.193  2.0322 -0.9135  0.3607
12508TIP3   OH258938   4.128   6.622   4.230 -0.0582  0.4471 -0.4145
12508TIP3    H158939   4.142   6.530   4.206 -0.5502 -0.3522  2.1914
12508TIP3    H258940   4.214   6.653   4.256 -0.1690  0.2447  0.2104
12509TIP3   OH258941   2.509   0.606   0.194 -0.4283  0.8102 -0.5213
12509TIP3    H158942   2.555   0.589   0.112  0.9307  2.5552 -0.1738
12509TIP3    H258943   2.419   0.626   0.168 -0.0057  1.3617 -1.6063
12510TIP3   OH258944   2.240   6.020  12.601  0.0765  0.1721  0.2289
12510TIP3    H158945   2.176   6.017  12.672  1.0872  1.0949  1.2249
12510TIP3    H258946   2.313   5.966  12.633 -0.5819 -1.7218 -1.3248
12511TIP3   OH258947   4.447   6.364   3.016  0.7033  0.7315 -0.2307
12511TIP3    H158948   4.457   6.363   2.921 -0.3408  4.3396 -0.4691
12511TIP3    H258949   4.534   6.345   3.050  0.7123 -2.3506 -1.8556
12512TIP3   OH258950   5.645   0.797   2.957 -0.0234  0.1972  0.5542
12512TIP3    H158951   5.563   0.750   2.944 -0.1243  0.7594 -0.9914
12512TIP3    H258952   5.662   0.791   3.051 -0.7398 -1.7204  0.5843
12513TIP3   OH258953   5.714   2.783   0.286 -0.3994  0.2324 -0.0253
12513TIP3    H158954   5.688   2.696   0.256  0.9591  0.4915 -2.0237
12513TIP3    H258955   5.646   2.841   0.254 -0.6236  0.0775  0.1699
12514TIP3   OH258956   5.105   2.950  15.724  0.6596  0.6628 -0.2223
12514TIP3    H158957   5.020   2.911  15.744  1.4899 -0.5076  1.0532
12514TIP3    H258958   5.093   3.043  15.743  0.2064  0.2133  1.7982
12515TIP3   OH258959   5.407   0.032  14.067 -0.6982  0.3113  0.0012
12515TIP3    H158960   5.340  -0.028  14.036  0.0660  0.3138 -1.7289
12515TIP3    H258961   5.405   0.105  14.005  1.6882 -0.2414 -0.7879
12516TIP3   OH258962   6.585   5.904  12.814 -0.5703  0.2397  0.3078
12516TIP3    H158963   6.666   5.868  12.851 -0.6425 -1.1050 -0.8226
12516TIP3    H258964   6.616   5.964  12.746 -0.5296 -2.8561 -2.5021
12517TIP3   OH258965   0.761   2.736   1.707 -0.1117  0.2374 -0.1106
12517TIP3    H158966   0.681   2.755   1.757  0.2685  0.1817  0.5249
12517TIP3    H258967   0.731   2.726   1.617 -0.6691  1.3315 -0.0535
12518TIP3   OH258968   0.140   1.996  16.407 -0.0772  0.1219  0.6810
12518TIP3    H158969   0.062   2.012  16.460 -1.3447 -2.7584 -0.2049
12518TIP3    H258970   0.108   1.944  16.333  2.0690  1.9697 -1.6215
12519TIP3   OH258971   5.842   0.061  14.443 -0.3688  0.5127 -0.8097
12519TIP3    H158972   5.794   0.118  14.503 -1.3484  0.3919 -1.4743
12519TIP3    H258973   5.778  -0.005  14.415  0.6939 -0.8286 -0.1791
12520TIP3   OH258974   0.473   5.251  11.683 -0.3105  0.2843 -0.4409
12520TIP3    H158975   0.414   5.243  11.608  1.0458  0.4236 -1.5416
12520TIP3    H258976   0.420   5.224  11.758 -1.4162 -0.7409 -1.5633
12521TIP3   OH258977   4.452   4.465   2.480 -0.2242 -0.2249 -0.4988
12521TIP3    H158978   4.420   4.470   2.571 -0.1749  0.8737 -0.5337
12521TIP3    H258979   4.379   4.498   2.427 -0.0301 -0.2907 -0.8053
12522TIP3   OH258980   3.166   3.212   2.632  0.0208 -0.1769 -0.2669
12522TIP3    H158981   3.128   3.176   2.711  1.6566  1.3793  1.2635
12522TIP3    H258982   3.248   3.164   2.620 -0.1659 -0.3300 -0.9704
12523TIP3   OH258983   6.131   0.286  13.036 -0.0060 -0.1167  0.5569
12523TIP3    H158984   6.204   0.243  12.991 -1.4503 -1.0853 -0.9026
12523TIP3    H258985   6.172   0.359  13.082  2.0047 -1.0838  0.3954
12524TIP3   OH258986   1.452   1.020   6.570  0.2117 -0.4230 -0.1950
12524TIP3    H158987   1.490   1.107   6.559  1.2407 -0.8083  0.2316
12524TIP3    H258988   1.439   0.989   6.480  0.9727 -0.3008 -0.3574
12525TIP3   OH258989   6.162   4.862   3.845 -0.7629  0.6040 -0.3409
12525TIP3    H158990   6.123   4.779   3.818 -1.7004  0.8668  0.1746
12525TIP3    H258991   6.244   4.867   3.796  0.6330 -1.8635  1.6244
12526TIP3   OH258992   4.091   2.784   3.139  0.0009 -0.1321  0.1106
12526TIP3    H158993   4.008   2.737   3.149  0.0174 -0.0558  0.6044
12526TIP3    H258994   4.145   2.753   3.212  0.6379 -0.6644 -0.5825
12527TIP3   OH258995   0.091   0.718   1.039 -0.1167  0.2904  0.0734
12527TIP3    H158996   0.036   0.785   0.997 -1.7248 -0.5555  0.8059
12527TIP3    H258997   0.077   0.732   1.133 -0.4089 -1.0231  0.2283
12528TIP3   OH258998   4.077   2.389   3.246  0.2604 -0.8315 -0.4344
12528TIP3    H158999   4.167   2.418   3.228  0.7535 -1.4540  0.9124
12528TIP3    H259000   4.087   2.296   3.267 -0.5109 -0.5517  1.2001
12529TIP3   OH259001   6.376   5.681   3.225 -0.7794  0.6206  0.1873
12529TIP3    H159002   6.468   5.654   3.223 -0.8073  0.5461 -0.0695
12529TIP3    H259003   6.343   5.645   3.307  0.1765  3.1501  1.7356
12530TIP3   OH259004   0.611   6.000  13.474 -1.0267 -0.0380  0.0630
12530TIP3    H159005   0.529   6.032  13.512 -0.9064 -0.7111  0.8955
12530TIP3    H259006   0.585   5.963  13.389 -1.4387  0.6213 -0.0991
12531TIP3   OH259007   6.535   4.550  13.281 -0.2603 -0.1791 -0.4094
12531TIP3    H159008   6.506   4.637  13.308  1.3820 -0.8304  3.8191
12531TIP3    H259009   6.628   4.561  13.262 -0.1700 -0.9097 -0.4122
12532TIP3   OH259010   5.776   1.486   0.253  0.3097  0.4040  0.1156
12532TIP3    H159011   5.681   1.477   0.262  0.4929 -2.3889 -0.4433
12532TIP3    H259012   5.790   1.581   0.254 -2.8263  1.0452 -3.4443
12533TIP3   OH259013   4.167   0.182  11.934 -0.9239 -0.6586  0.3149
12533TIP3    H159014   4.229   0.252  11.914 -1.0745 -0.0763  1.8535
12533TIP3    H259015   4.200   0.106  11.886 -0.1005  0.1494 -0.4158
12534TIP3   OH259016   5.217   6.003   2.086 -0.0837 -0.4406  0.4419
12534TIP3    H159017   5.148   6.028   2.025  0.0463 -1.1402 -0.0002
12534TIP3    H259018   5.290   6.062   2.066 -0.0847 -0.5852  0.0034
12535TIP3   OH259019   0.910   5.021  12.953 -0.6423 -0.4647 -0.1700
12535TIP3    H159020   0.823   5.055  12.931 -0.1720  0.8155 -0.0667
12535TIP3    H259021   0.932   5.061  13.037 -0.8984 -2.5587  0.9292
12536TIP3   OH259022   0.563   4.882   5.930 -0.2122 -0.6527 -0.3147
12536TIP3    H159023   0.499   4.924   5.873 -0.2281 -0.3689 -0.0912
12536TIP3    H259024   0.547   4.788   5.919 -0.8974 -0.5747 -0.0039
12537TIP3   OH259025   3.381   5.807   2.411 -0.1254 -0.4085 -0.2946
12537TIP3    H159026   3.370   5.899   2.436  2.3911  0.1071 -0.9756
12537TIP3    H259027   3.352   5.758   2.488 -0.6745  0.9758  0.3943
12538TIP3   OH259028   1.358   5.630  11.940  0.1049  0.0716  0.0565
12538TIP3    H159029   1.336   5.587  12.022  1.9867  1.9617  1.5994
12538TIP3    H259030   1.280   5.680  11.917 -1.1402 -1.9896 -0.3969
12539TIP3   OH259031   2.017   2.414   0.160  0.5245  0.4973 -0.6129
12539TIP3    H159032   2.041   2.387   0.071 -1.0899  2.6316 -1.7287
12539TIP3    H259033   2.070   2.491   0.177  1.3843 -0.3449  0.5951
12540TIP3   OH259034   3.849   1.106   3.771 -0.4736  0.1134 -0.6502
12540TIP3    H159035   3.892   1.179   3.726  0.8348 -0.5119 -0.4245
12540TIP3    H259036   3.910   1.081   3.840 -1.5641 -0.2620  0.1981
12541TIP3   OH259037   1.304   2.767  11.265  0.2199  0.1966 -0.3148
12541TIP3    H159038   1.243   2.733  11.200 -0.9593 -1.7380  1.7399
12541TIP3    H259039   1.259   2.842  11.304 -0.0209 -0.0084 -0.1947
12542TIP3   OH259040   3.660   5.908   5.681 -0.2565 -0.2458 -0.2829
12542TIP3    H159041   3.618   5.872   5.759 -1.8469  1.6082 -0.2420
12542TIP3    H259042   3.609   5.873   5.608 -0.6397  0.4205 -0.3352
12543TIP3   OH259043   0.328   5.168  13.850 -0.0610 -0.4224  0.4086
12543TIP3    H159044   0.411   5.168  13.899 -1.3081  0.3764  2.5783
12543TIP3    H259045   0.338   5.238  13.786  0.5117  0.4385  1.4263
12544TIP3   OH259046   0.045   5.464  13.986  0.4785  0.5315 -0.5081
12544TIP3    H159047   0.076   5.437  14.072  1.1895  1.9299 -0.3025
12544TIP3    H259048  -0.051   5.463  13.993  0.5438  2.1253  0.7966
12545TIP3   OH259049   0.601   1.002   4.988 -0.1904  0.6391 -0.2449
12545TIP3    H159050   0.681   0.952   4.971 -0.1524  1.0479 -1.2958
12545TIP3    H259051   0.532   0.953   4.944  0.0652  2.2510 -2.5202
12546TIP3   OH259052   2.076   5.376   5.511  0.0801  0.1512 -0.5790
12546TIP3    H159053   1.994   5.419   5.485 -0.5196 -0.7083 -0.1654
12546TIP3    H259054   2.144   5.420   5.460 -0.3930  2.1661  0.5092
12547TIP3   OH259055   3.948   3.042   4.239  0.6862 -0.0465  0.3463
12547TIP3    H159056   4.041   3.023   4.224  0.3417 -0.0871 -1.8620
12547TIP3    H259057   3.949   3.108   4.308  2.2110 -2.2543  2.5288
12548TIP3   OH259058   5.619   5.543  12.890 -0.2069  0.0441 -0.1730
12548TIP3    H159059   5.666   5.543  12.807 -0.3041 -1.7816 -0.2307
12548TIP3    H259060   5.540   5.596  12.873 -0.5895 -0.9138 -1.4464
12549TIP3   OH259061   3.781   1.643  15.570 -0.0572 -0.5549 -0.4383
12549TIP3    H159062   3.691   1.652  15.540 -0.6893  1.2071  1.7890
12549TIP3    H259063   3.796   1.721  15.624  3.0018 -0.5167 -1.2415
12550TIP3   OH259064   0.640   0.637  12.611 -0.3407 -0.7822  0.7610
12550TIP3    H159065   0.555   0.649  12.653 -1.1943 -1.4426 -0.7619
12550TIP3    H259066   0.652   0.542  12.607 -0.6620 -0.7612 -1.2318
12551TIP3   OH259067   6.588   1.785   6.151  0.0671 -0.6649  0.2228
12551TIP3    H159068   6.575   1.879   6.160  0.3549 -0.6568  0.5352
12551TIP3    H259069   6.535   1.746   6.220  0.6296 -0.6939  0.6364
12552TIP3   OH259070   4.661   5.389   4.705 -0.0593  0.5137 -0.1380
12552TIP3    H159071   4.600   5.450   4.663 -1.0894  0.0809  0.7008
12552TIP3    H259072   4.689   5.330   4.634 -1.3778  0.1111 -0.3399
12553TIP3   OH259073   6.384   6.086   3.162 -0.2260 -0.6012 -0.2529
12553TIP3    H159074   6.313   6.074   3.225  0.2397 -2.0983  0.0094
12553TIP3    H259075   6.419   6.174   3.180 -0.0182 -1.0681  1.6530
12554TIP3   OH259076   0.439   0.500  14.472 -0.0343 -0.8446  0.7575
12554TIP3    H159077   0.474   0.412  14.473  0.2131 -0.7637 -0.2663
12554TIP3    H259078   0.499   0.551  14.527  0.3346 -1.1202  0.6078
12555TIP3   OH259079   0.165   0.539  14.652  0.9122  0.0347 -0.5493
12555TIP3    H159080   0.078   0.573  14.675  1.3345  1.1520 -0.5468
12555TIP3    H259081   0.225   0.610  14.676  1.8637 -0.8873 -0.1836
12556TIP3   OH259082   3.006   3.881   2.939  0.3341  0.6612  0.2449
12556TIP3    H159083   2.912   3.866   2.941  0.2218  1.4189  0.8583
12556TIP3    H259084   3.020   3.934   2.860  0.1192  1.3180  0.6384
12557TIP3   OH259085   1.578   1.187   5.250  0.5857 -0.0449  0.0520
12557TIP3    H159086   1.653   1.221   5.299  1.1516  0.3404 -1.0517
12557TIP3    H259087   1.561   1.254   5.184 -2.0508  0.8578  1.5738
12558TIP3   OH259088   5.816   1.351  16.547 -0.5940  0.0194  0.3442
12558TIP3    H159089   5.803   1.327  16.639 -0.4119 -1.0508  0.0934
12558TIP3    H259090   5.857   1.274  16.507 -1.0321  0.3298 -0.7239
12559TIP3   OH259091   3.991   6.682  15.870 -0.2147  0.3434  0.4295
12559TIP3    H159092   3.986   6.709  15.962  1.9809  1.0198  0.3810
12559TIP3    H259093   3.997   6.764  15.821 -2.3865  0.0274 -0.4298
12560TIP3   OH259094   5.796   4.481  13.244 -1.1070 -0.2933  0.4094
12560TIP3    H159095   5.706   4.459  13.221 -0.9252  0.4717 -1.0987
12560TIP3    H259096   5.802   4.575  13.227 -0.4748 -0.0231  2.0298
12561TIP3   OH259097   5.905   3.060   3.864 -0.1548 -0.0707  0.2095
12561TIP3    H159098   5.902   3.154   3.881 -1.5169 -0.3173  1.5168
12561TIP3    H259099   5.818   3.039   3.830  0.1184 -0.8522 -0.0282
12562TIP3   OH259100   3.931   1.776  16.916  0.6024 -0.1045  0.4555
12562TIP3    H159101   4.006   1.812  16.868  0.2499  0.6254  0.4512
12562TIP3    H259102   3.898   1.706  16.860 -0.1649  1.1212 -0.6575
12563TIP3   OH259103   5.986   0.236   0.324 -0.7472 -0.1623 -0.2501
12563TIP3    H159104   6.067   0.215   0.279  0.4759  0.4906  1.5899
12563TIP3    H259105   5.933   0.282   0.259 -0.0482 -1.4527 -1.7523
12564TIP3   OH259106   5.775   6.597   0.191  0.5529 -0.3998  0.7332
12564TIP3    H159107   5.725   6.595   0.273 -1.1514 -0.8140 -0.2957
12564TIP3    H259108   5.765   6.509   0.155  1.4318 -0.2627  0.1495
12565TIP3   OH259109   6.289   2.640  14.290  0.4194 -0.0773 -0.5078
12565TIP3    H159110   6.328   2.727  14.301 -2.7800  1.3989 -0.2945
12565TIP3    H259111   6.361   2.585  14.259  1.9584  3.1876 -3.0015
12566TIP3   OH259112   3.591   4.932  17.137  0.5975  0.3475  0.6599
12566TIP3    H159113   3.616   4.891  17.220  0.2508  0.1782  0.6838
12566TIP3    H259114   3.572   4.859  17.079  1.7419  0.4592  0.1416
12567TIP3   OH259115   6.351   0.139   3.869  0.8846  0.5263  0.4614
12567TIP3    H159116   6.432   0.147   3.818  0.6472  0.2923  0.0459
12567TIP3    H259117   6.360   0.056   3.915  0.9659  0.5931  0.5663
12568TIP3   OH259118   4.031   6.177  12.380  0.8452 -0.2766 -0.0302
12568TIP3    H159119   3.957   6.192  12.438  1.2570 -0.8083  0.6507
12568TIP3    H259120   4.001   6.110  12.319  0.2121  0.7066 -0.8161
12569TIP3   OH259121   5.742   1.326  15.866 -0.5153 -0.2158  0.3498
12569TIP3    H159122   5.826   1.362  15.896 -1.0714  1.6395 -0.2337
12569TIP3    H259123   5.676   1.384  15.905 -1.4482 -0.5824 -0.6581
12570TIP3   OH259124   3.984   1.201   2.136 -0.1550 -0.1808 -0.3912
12570TIP3    H159125   3.968   1.142   2.209 -0.1700 -1.9701 -1.7843
12570TIP3    H259126   3.897   1.233   2.111  0.0051  1.7119  1.3643
12571TIP3   OH259127   1.757   2.456   0.215  0.3381  0.1015  0.6813
12571TIP3    H159128   1.745   2.520   0.285  0.7473  0.2198  0.6387
12571TIP3    H259129   1.851   2.452   0.201  0.0412  2.6173 -2.2578
12572TIP3   OH259130   4.785   1.846   0.765  0.0561 -0.7569 -0.0628
12572TIP3    H159131   4.721   1.901   0.810 -0.2901 -0.8433 -0.4504
12572TIP3    H259132   4.864   1.900   0.762  0.5490 -1.3139  1.9896
12573TIP3   OH259133   2.461   3.611   3.409  0.4612 -0.1456  0.2451
12573TIP3    H159134   2.396   3.546   3.382  2.0371 -1.7981  0.3404
12573TIP3    H259135   2.482   3.587   3.499  1.5476  0.0949  0.0568
12574TIP3   OH259136   0.732   2.602  13.459 -0.2278 -0.5036 -0.7969
12574TIP3    H159137   0.826   2.586  13.470 -0.0297  0.7561 -0.5800
12574TIP3    H259138   0.715   2.682  13.510 -1.5077 -0.9928 -0.4466
12575TIP3   OH259139   0.669   1.564  14.316 -0.9284 -0.0791  0.2250
12575TIP3    H159140   0.649   1.655  14.291 -1.5651  0.2599  1.8635
12575TIP3    H259141   0.759   1.568  14.348 -1.1645  0.1036  0.8735
12576TIP3   OH259142   3.465   6.069   6.092 -0.6851 -0.5212  0.2407
12576TIP3    H159143   3.407   6.145   6.095 -0.6713 -0.4844 -0.3524
12576TIP3    H259144   3.495   6.065   6.002  1.9740  0.7253  1.0405
12577TIP3   OH259145   0.074   2.125   2.852  0.3191 -0.0534  0.2457
12577TIP3    H159146   0.053   2.179   2.928  1.4222 -1.8867  1.8881
12577TIP3    H259147   0.154   2.164   2.816  0.9250 -0.3780  1.2251
12578TIP3   OH259148   2.524   2.486   0.302 -0.4533 -0.3104  0.1886
12578TIP3    H159149   2.543   2.401   0.341  1.8818 -0.0551 -0.2972
12578TIP3    H259150   2.487   2.538   0.373  3.5481  0.0826  2.0817
12579TIP3   OH259151   4.026   4.921   6.243 -0.4945  0.0004 -0.4700
12579TIP3    H159152   4.006   4.866   6.318  1.9686 -1.3168 -0.7491
12579TIP3    H259153   4.008   5.010   6.273 -1.7613 -0.6932  0.9028
12580TIP3   OH259154   0.588   6.323  12.640  0.2752 -0.6982  0.4796
12580TIP3    H159155   0.626   6.265  12.574 -1.4712 -0.6918 -0.5800
12580TIP3    H259156   0.568   6.265  12.714 -2.5480 -1.7637 -1.0191
12581TIP3   OH259157   6.173   0.864   3.764 -0.0751 -0.5235 -0.0624
12581TIP3    H159158   6.238   0.798   3.788  0.6840  0.8890  1.8727
12581TIP3    H259159   6.092   0.835   3.805 -0.0366 -0.8722 -0.2290
12582TIP3   OH259160   3.979   4.686   0.312  0.2524 -0.6170  0.1624
12582TIP3    H159161   4.023   4.765   0.281  0.6531 -0.9834 -0.2188
12582TIP3    H259162   3.911   4.717   0.371 -0.7392  0.1209 -1.3500
12583TIP3   OH259163   3.891   6.519   4.925  0.2490  0.0686 -0.1850
12583TIP3    H159164   3.935   6.439   4.955  1.1872 -0.1106 -1.9641
12583TIP3    H259165   3.835   6.544   4.998  2.3033 -0.4702  1.6222
12584TIP3   OH259166   2.181   4.353   2.663 -0.2100  0.1167  0.0050
12584TIP3    H159167   2.235   4.344   2.584  0.1648  0.6961  0.1864
12584TIP3    H259168   2.094   4.327   2.636  0.1426 -0.7160 -0.3283
12585TIP3   OH259169   4.045   0.783   2.413 -1.1887 -0.3450  0.0464
12585TIP3    H159170   4.051   0.877   2.434 -0.4645 -0.2686 -0.5141
12585TIP3    H259171   4.135   0.751   2.419 -1.4073 -0.9656  0.0414
12586TIP3   OH259172   5.838   5.610   1.432 -0.1445  0.1203 -0.0466
12586TIP3    H159173   5.899   5.561   1.377  0.9393  1.1830  0.1717
12586TIP3    H259174   5.850   5.701   1.405 -1.0623  0.4232  0.5609
12587TIP3   OH259175   5.145   3.683   4.845 -0.4386  0.0602 -0.7060
12587TIP3    H159176   5.113   3.768   4.814 -0.2450  1.6182  3.0780
12587TIP3    H259177   5.068   3.628   4.850 -1.1455  1.0884 -0.0171
12588TIP3   OH259178   4.701   4.946   4.095 -0.6294 -0.1085  0.6564
12588TIP3    H159179   4.664   5.033   4.076 -0.0750 -0.0410 -0.1266
12588TIP3    H259180   4.629   4.885   4.078 -0.9356  0.1762  0.9279
12589TIP3   OH259181   2.527   5.001  14.920 -0.2387 -0.3605  0.4360
12589TIP3    H159182   2.501   5.090  14.894 -0.5891 -0.3928  0.6659
12589TIP3    H259183   2.484   4.944  14.857  1.4119 -0.2813 -0.7851
12590TIP3   OH259184   2.667   3.946   3.314 -0.1404 -0.2962  0.4517
12590TIP3    H159185   2.665   4.040   3.296  0.0533 -0.6670 -1.6396
12590TIP3    H259186   2.733   3.911   3.253 -2.0963 -2.1523 -0.6800
12591TIP3   OH259187   0.232   2.944   2.304 -0.2213  0.4323 -0.1774
12591TIP3    H159188   0.162   2.958   2.368  0.9390 -0.1750  1.2580
12591TIP3    H259189   0.294   3.015   2.320 -1.1147  1.7723 -2.3577
12592TIP3   OH259190   3.293   0.120   1.516 -0.0644  0.3903  0.4238
12592TIP3    H159191   3.287   0.142   1.609  0.0764  0.6164  0.3809
12592TIP3    H259192   3.215   0.069   1.498 -1.2341  2.2448  0.1410
12593TIP3   OH259193   3.705   3.090  11.029 -0.3607  0.4033  0.2023
12593TIP3    H159194   3.625   3.143  11.026 -0.8999 -0.3934  0.4884
12593TIP3    H259195   3.710   3.049  10.942 -0.6989 -0.1909  0.4644
12594TIP3   OH259196   3.073   1.787   1.936 -0.1901 -0.2611  0.2052
12594TIP3    H159197   2.986   1.797   1.975 -0.5598 -0.8133 -0.4495
12594TIP3    H259198   3.132   1.778   2.010 -0.5947  0.8971  0.6744
12595TIP3   OH259199   3.052   1.222  16.597 -0.0623  0.1551  0.5091
12595TIP3    H159200   3.146   1.208  16.593 -0.0299  0.5151 -0.1127
12595TIP3    H259201   3.035   1.249  16.687  0.5030  0.6496  0.4689
12596TIP3   OH259202   0.032   1.847  12.965 -0.5277  0.1065 -0.1128
12596TIP3    H159203   0.083   1.918  12.927  0.3721 -0.5050 -0.0425
12596TIP3    H259204  -0.058   1.881  12.966 -0.4696  0.3669 -2.1736
12597TIP3   OH259205   2.727   4.599   3.290 -0.6613 -0.2654 -0.2881
12597TIP3    H159206   2.681   4.536   3.235  0.7397 -0.6757 -0.9880
12597TIP3    H259207   2.756   4.549   3.366 -0.1630 -0.3033 -0.5047
12598TIP3   OH259208   4.889   2.948   5.545 -0.3059 -0.0470 -0.2115
12598TIP3    H159209   4.842   2.867   5.563 -0.4777 -0.2832 -1.6728
12598TIP3    H259210   4.826   3.017   5.566  0.5379 -0.1882  3.0710
12599TIP3   OH259211   3.589   3.058  12.829 -0.0781 -0.4486 -0.0997
12599TIP3    H159212   3.529   3.100  12.891 -0.0919  0.4863 -0.7330
12599TIP3    H259213   3.670   3.110  12.836 -0.0648 -0.3730 -0.8191
12600TIP3   OH259214   5.755   4.902  16.743 -0.5210  0.5752  0.1527
12600TIP3    H159215   5.802   4.985  16.733  1.7347 -0.4135  1.9735
12600TIP3    H259216   5.759   4.884  16.837 -0.3835 -1.9349 -0.3174
12601TIP3   OH259217   1.116   4.715  15.712 -0.0208  0.1926  0.0817
12601TIP3    H159218   1.190   4.757  15.669 -0.5688  0.4388 -0.6322
12601TIP3    H259219   1.039   4.753  15.670 -0.6076  1.1401  1.9324
12602TIP3   OH259220   5.139   6.602  12.259 -0.4042  0.0874  0.0676
12602TIP3    H159221   5.090   6.553  12.324  0.1945  0.6469  0.9643
12602TIP3    H259222   5.149   6.689  12.298  2.6163 -0.4463  0.6320
12603TIP3   OH259223   2.483   2.001   0.542  0.5228  0.2542 -0.2502
12603TIP3    H159224   2.578   2.001   0.545  0.5187 -1.1428  0.4594
12603TIP3    H259225   2.461   2.062   0.472  1.9713 -0.4757 -1.3687
12604TIP3   OH259226   3.570   1.074   3.224 -0.2063  0.2626  0.1564
12604TIP3    H159227   3.533   1.029   3.148  0.4595 -0.3731  0.2029
12604TIP3    H259228   3.497   1.080   3.286 -0.5224  0.0161 -0.1897
12605TIP3   OH259229   3.260   0.826   3.178 -0.6134  0.6240  0.3131
12605TIP3    H159230   3.223   0.896   3.232  0.2669  1.0789  0.3366
12605TIP3    H259231   3.312   0.871   3.112  0.7411 -0.0301  0.9143
12606TIP3   OH259232   6.702   0.948  16.356  0.1757 -0.2063 -0.7769
12606TIP3    H159233   6.611   0.943  16.387 -0.4356 -0.5161 -2.5599
12606TIP3    H259234   6.743   0.869  16.391 -0.9722 -1.4652 -2.1256
12607TIP3   OH259235   4.970   0.524  11.842  0.1380  0.6024  0.4602
12607TIP3    H159236   4.911   0.503  11.770  1.4654  0.4247 -0.6075
12607TIP3    H259237   4.978   0.620  11.839  1.1114  0.5024 -0.3905
12608TIP3   OH259238   1.311   3.287   0.457 -0.6723 -0.0616 -0.5948
12608TIP3    H159239   1.334   3.371   0.417 -0.8708  0.6372  0.7193
12608TIP3    H259240   1.219   3.297   0.483 -0.9458 -0.9834 -1.1790
12609TIP3   OH259241   2.178   2.969   1.533  0.2367  0.0119 -0.5247
12609TIP3    H159242   2.261   2.926   1.554 -0.3659 -0.6805  0.5194
12609TIP3    H259243   2.190   3.060   1.561  0.5599 -0.1433 -0.1553
12610TIP3   OH259244   3.772   2.237   4.501  0.1231  0.1954 -0.5931
12610TIP3    H159245   3.833   2.266   4.433 -0.4859  0.2852 -1.0956
12610TIP3    H259246   3.827   2.187   4.562  0.6355 -0.0308 -1.2371
12611TIP3   OH259247   6.312   6.338  12.789  0.9421 -0.4667  0.3172
12611TIP3    H159248   6.337   6.277  12.719  0.6960 -1.6950  1.2718
12611TIP3    H259249   6.235   6.298  12.829  0.1546  1.0141  0.3009
12612TIP3   OH259250   5.691   4.764   1.299 -0.2565  0.4382  0.4442
12612TIP3    H159251   5.736   4.793   1.379  0.9017 -1.2811  0.4475
12612TIP3    H259252   5.754   4.707   1.256 -1.1161  0.8613 -1.4016
12613TIP3   OH259253   6.068   3.501   5.006 -0.2902  0.1039  0.2927
12613TIP3    H159254   6.041   3.530   4.919 -0.0092  0.6501  0.3884
12613TIP3    H259255   6.001   3.535   5.065 -0.1121  0.3185  0.3710
12614TIP3   OH259256   3.280   3.031  16.125  0.1754  0.0180  0.2155
12614TIP3    H159257   3.284   2.980  16.043 -0.5677 -0.8995  0.7439
12614TIP3    H259258   3.189   3.026  16.152  0.9536 -2.2302  2.6684
12615TIP3   OH259259   6.517   3.804   0.713 -0.1396  0.2083  0.0481
12615TIP3    H159260   6.598   3.855   0.707 -1.0440  1.6679 -0.0786
12615TIP3    H259261   6.480   3.826   0.798 -1.7161  1.6248 -0.9550
12616TIP3   OH259262   0.345   3.796   3.261  0.4360  0.5749  0.2860
12616TIP3    H159263   0.294   3.847   3.197 -0.3413  1.3607  1.4986
12616TIP3    H259264   0.434   3.828   3.252 -0.0694  2.3181  1.1452
12617TIP3   OH259265   3.401   1.666   1.272  0.1969  0.2148 -0.1760
12617TIP3    H159266   3.407   1.595   1.336 -3.6899  0.5794  0.7044
12617TIP3    H259267   3.448   1.739   1.314  0.7599 -0.5973  0.6609
12618TIP3   OH259268   4.944   5.923   2.192 -0.6598  0.1169  0.2094
12618TIP3    H159269   4.930   5.913   2.097 -0.7880 -1.2231  0.3546
12618TIP3    H259270   5.039   5.927   2.201 -0.6292 -0.3156  0.0778
12619TIP3   OH259271   1.072   6.463   0.640  0.5618  0.0975 -0.0166
12619TIP3    H159272   1.050   6.529   0.706  1.5461 -0.1976  0.6354
12619TIP3    H259273   1.160   6.487   0.611  1.9486 -2.2232  1.9583
12620TIP3   OH259274   4.242   0.313   3.629  0.3655  0.0998  0.1992
12620TIP3    H159275   4.165   0.290   3.577  0.1846  0.4617  0.3046
12620TIP3    H259276   4.218   0.395   3.672  1.7261  1.5757 -1.7211
12621TIP3   OH259277   1.615   0.727  17.004 -0.5866  0.2619 -0.3415
12621TIP3    H159278   1.621   0.816  17.039 -0.7439  0.0875  0.1335
12621TIP3    H259279   1.529   0.696  17.033  0.1427 -0.6387  0.8898
12622TIP3   OH259280   6.547   6.326  16.601  0.8038 -0.1473 -0.3517
12622TIP3    H159281   6.611   6.285  16.543  0.4430 -2.7406  0.9672
12622TIP3    H259282   6.468   6.272  16.589 -0.8068  2.2882 -1.0965
12623TIP3   OH259283   6.435   1.827  13.099 -0.2488  0.1099  0.5545
12623TIP3    H159284   6.420   1.905  13.045 -1.7230 -0.3076  0.3256
12623TIP3    H259285   6.449   1.861  13.187 -0.2368  0.6692  0.3397
12624TIP3   OH259286   6.204   2.340  11.291  0.3234 -0.2497  0.7163
12624TIP3    H159287   6.160   2.310  11.212  1.1886  0.0459  0.1027
12624TIP3    H259288   6.166   2.289  11.362 -0.5440 -0.4373  0.1182
12625TIP3   OH259289   4.253   3.062   2.423  0.1036 -0.4808 -0.4754
12625TIP3    H159290   4.325   3.048   2.362  0.2358 -0.0568 -0.4120
12625TIP3    H259291   4.175   3.034   2.374  0.4383 -2.0697 -0.1308
12626TIP3   OH259292   0.339   4.720   3.881  0.1996 -0.0568  0.1374
12626TIP3    H159293   0.327   4.785   3.811  0.6680 -0.3888 -0.2549
12626TIP3    H259294   0.254   4.678   3.890 -0.3365  1.1929  0.9667
12627TIP3   OH259295   3.406   1.048  16.804 -0.2322  0.1450 -0.8377
12627TIP3    H159296   3.483   1.003  16.840 -0.3856 -0.4826 -1.2829
12627TIP3    H259297   3.333   1.014  16.856 -0.6269 -1.7323 -2.5306
12628TIP3   OH259298   6.693   2.083  13.588 -0.1703 -0.4171 -0.0075
12628TIP3    H159299   6.706   1.993  13.558 -0.6624  0.1385 -1.9570
12628TIP3    H259300   6.732   2.085  13.676  0.3863 -2.3590 -0.1858
12629TIP3   OH259301   3.928   2.940  11.666  0.0201 -0.6869  0.0480
12629TIP3    H159302   3.966   2.915  11.582 -1.2388 -0.1486 -0.6933
12629TIP3    H259303   3.965   2.878  11.729  2.4569  0.1121 -0.5710
12630TIP3   OH259304   3.577   0.202   5.208  0.2807  0.4267  0.1256
12630TIP3    H159305   3.615   0.277   5.162 -1.8418  1.0667 -0.6424
12630TIP3    H259306   3.573   0.132   5.143  1.0611  0.0541  0.4781
12631TIP3   OH259307   2.577   2.930  10.962 -0.0736  0.1607 -0.4082
12631TIP3    H159308   2.656   2.928  11.017  0.6115  2.1872 -1.2773
12631TIP3    H259309   2.576   2.845  10.918  1.8170  0.2403 -0.6335
12632TIP3   OH259310   4.836   2.846  15.748 -0.1089 -0.1235  0.1134
12632TIP3    H159311   4.861   2.754  15.753 -0.7394 -0.3257 -0.4426
12632TIP3    H259312   4.761   2.854  15.806  0.1989  0.1258  0.4772
12633TIP3   OH259313   2.596   3.903  13.203  0.5797  0.0196  0.7520
12633TIP3    H159314   2.658   3.944  13.143 -2.9496 -0.6396 -3.6717
12633TIP3    H259315   2.613   3.809  13.195 -1.2701 -0.2120 -0.9952
12634TIP3   OH259316   3.264   2.148   0.818  0.4452 -1.0668 -0.2412
12634TIP3    H159317   3.198   2.208   0.852  0.4026 -1.8815  1.1635
12634TIP3    H259318   3.333   2.205   0.785 -0.4743 -0.2258 -0.7379
12635TIP3   OH259319   5.440   1.701  16.386 -0.0865  0.9861 -0.1006
12635TIP3    H159320   5.517   1.643  16.386 -0.0249  1.0677  0.0153
12635TIP3    H259321   5.397   1.683  16.469 -0.8719  0.0512 -0.6969
12636TIP3   OH259322   3.969   1.396   0.259  0.9037 -0.7193 -0.1043
12636TIP3    H159323   3.936   1.308   0.246 -1.7064  0.4275 -1.6437
12636TIP3    H259324   3.996   1.398   0.351  0.9503 -3.0737 -0.0424
12637TIP3   OH259325   4.519   1.649   0.221  0.2865  0.0204  0.3208
12637TIP3    H159326   4.432   1.658   0.181  0.9299 -0.6455 -1.2974
12637TIP3    H259327   4.577   1.699   0.163  1.3816 -1.7058 -0.1026
12638TIP3   OH259328   5.274   0.692  12.706 -0.0012  0.1095  0.2554
12638TIP3    H159329   5.359   0.734  12.721  0.5858 -1.2246  0.7104
12638TIP3    H259330   5.268   0.626  12.775  0.2086 -2.2820 -1.9398
12639TIP3   OH259331   4.986   6.071  13.771 -0.3727 -0.1957 -0.3035
12639TIP3    H159332   5.058   6.059  13.833 -2.3723 -0.8265  1.9767
12639TIP3    H259333   4.943   6.152  13.799 -0.4454  0.2837 -1.7606
12640TIP3   OH259334   3.703   5.637   0.123  0.1717 -0.5246 -1.0223
12640TIP3    H159335   3.711   5.544   0.106 -1.7302 -0.8557 -0.2522
12640TIP3    H259336   3.673   5.675   0.041 -0.3431 -0.7971 -0.9624
12641TIP3   OH259337   3.067   5.237  13.638 -0.5780 -0.3817  0.1224
12641TIP3    H159338   3.079   5.143  13.655  0.7551 -0.2038  0.2519
12641TIP3    H259339   3.029   5.271  13.719  1.0208 -0.4375  0.9310
12642TIP3   OH259340   0.313   3.352   4.643 -0.3693  0.0696 -0.0699
12642TIP3    H159341   0.314   3.368   4.549  0.0894  0.5143  0.0057
12642TIP3    H259342   0.405   3.338   4.665 -0.3271  1.1797  0.5125
12643TIP3   OH259343   1.278   0.413  13.659  0.4760 -0.0378 -0.4107
12643TIP3    H159344   1.216   0.417  13.587  0.2739 -4.1836 -0.6036
12643TIP3    H259345   1.224   0.407  13.738  0.6936  2.4281 -0.0478
12644TIP3   OH259346   5.930   0.569   4.631  0.6797  0.3887 -0.9605
12644TIP3    H159347   5.988   0.564   4.555  0.2252 -1.0180 -1.2239
12644TIP3    H259348   5.966   0.507   4.693  0.1871  0.4521 -0.6086
12645TIP3   OH259349   5.726   3.218  16.290 -0.4686 -0.2090 -0.3635
12645TIP3    H159350   5.696   3.309  16.293 -0.6327 -0.2550 -0.5628
12645TIP3    H259351   5.798   3.214  16.353  0.6412  0.4697 -1.5605
12646TIP3   OH259352   1.623   1.660  13.364  0.2286 -0.4222 -0.5539
12646TIP3    H159353   1.634   1.573  13.326 -1.1939 -1.2193  0.7705
12646TIP3    H259354   1.618   1.644  13.459 -1.4486  0.9254 -0.3878
12647TIP3   OH259355   5.975   5.312  16.316 -0.2558  0.0311 -0.3966
12647TIP3    H159356   5.897   5.257  16.309 -0.5555  0.2957  0.7749
12647TIP3    H259357   5.985   5.350  16.229 -0.8190 -0.8364 -0.8447
12648TIP3   OH259358   5.802   3.685  14.822 -0.5597  0.6101 -0.2062
12648TIP3    H159359   5.710   3.679  14.800 -0.4354 -0.8453 -0.3777
12648TIP3    H259360   5.845   3.620  14.766  0.6279  1.5921 -0.4641
12649TIP3   OH259361   4.911   2.564   0.907 -0.1046 -0.2114 -0.0838
12649TIP3    H159362   5.004   2.555   0.885 -0.1471 -0.6364 -0.0937
12649TIP3    H259363   4.903   2.526   0.994 -0.2672 -0.1525 -0.0729
12650TIP3   OH259364   3.328   1.915  13.506 -0.1364 -0.7816 -0.3017
12650TIP3    H159365   3.353   1.859  13.579  0.4508 -1.8866 -1.3297
12650TIP3    H259366   3.252   1.872  13.467 -0.3159 -0.3123 -0.4820
12651TIP3   OH259367   1.369   4.606  14.628 -0.0562  0.4647  0.1208
12651TIP3    H159368   1.313   4.535  14.659  0.0719  0.6622  0.8068
12651TIP3    H259369   1.455   4.587  14.667  0.1532  0.6147 -0.2598
12652TIP3   OH259370   5.229   6.147  13.123 -0.8701 -0.1292  0.0747
12652TIP3    H159371   5.199   6.064  13.087 -1.9391  0.3145 -0.0763
12652TIP3    H259372   5.188   6.152  13.209 -0.5402  0.0860  0.2172
12653TIP3   OH259373   3.605   6.712   6.327 -0.0822  0.4640 -0.8418
12653TIP3    H159374   3.682   6.655   6.333  0.0367  0.5249 -1.6644
12653TIP3    H259375   3.590   6.741   6.417 -1.6953 -2.8600  0.0261
12654TIP3   OH259376   6.128   4.563  16.074  0.6087 -0.2747 -0.0178
12654TIP3    H159377   6.172   4.623  16.134 -0.8388 -0.3922  1.2186
12654TIP3    H259378   6.038   4.597  16.068 -0.1195 -2.0589  0.3840
12655TIP3   OH259379   4.638   4.399   5.471 -0.3814 -0.1519 -0.4220
12655TIP3    H159380   4.553   4.413   5.513 -0.4871  0.1427 -0.7384
12655TIP3    H259381   4.617   4.370   5.382 -0.1498 -0.1205 -0.4880
12656TIP3   OH259382   1.300   5.917   6.096  0.2190 -0.3165 -0.8754
12656TIP3    H159383   1.371   5.855   6.078  0.6056 -0.3221  0.5832
12656TIP3    H259384   1.331   5.967   6.171 -1.1699 -0.0772 -0.4497
12657TIP3   OH259385   2.790   3.206   3.749  0.3418 -0.3718  0.4784
12657TIP3    H159386   2.707   3.241   3.782 -0.8762 -0.6559 -2.1908
12657TIP3    H259387   2.851   3.280   3.755 -1.5382  1.5479 -2.7023
12658TIP3   OH259388   3.810   0.238   3.637 -0.8502 -0.1498 -0.4515
12658TIP3    H159389   3.725   0.216   3.676 -0.7179 -1.3281 -0.8069
12658TIP3    H259390   3.859   0.281   3.707 -1.5436  0.0576 -0.0880
12659TIP3   OH259391   5.994   4.784  14.229  0.4399 -0.4837  0.0352
12659TIP3    H159392   6.012   4.742  14.145 -1.2853  0.8751 -1.0481
12659TIP3    H259393   6.024   4.874  14.218 -0.3092 -0.1494  0.6797
12660TIP3   OH259394   2.796   2.750   3.507 -0.0576  0.2894  0.3901
12660TIP3    H159395   2.814   2.781   3.596  3.0727  0.0984 -0.1146
12660TIP3    H259396   2.862   2.682   3.491 -1.0176 -0.1804 -1.8400
12661TIP3   OH259397   6.367   6.089  12.937  0.4605 -0.1684  0.1803
12661TIP3    H159398   6.388   6.141  13.014 -0.3253  1.1966 -0.5089
12661TIP3    H259399   6.449   6.084  12.888  1.3619 -2.3317  1.8148
12662TIP3   OH259400   4.929   3.700  12.184  0.5696  0.6137 -0.3298
12662TIP3    H159401   4.973   3.780  12.155  2.2603 -0.8101 -1.7855
12662TIP3    H259402   4.900   3.658  12.103 -0.3111 -0.2493  0.4221
12663TIP3   OH259403   3.217   6.312  12.186 -0.1019  0.2455 -0.2171
12663TIP3    H159404   3.134   6.293  12.143  0.0394  1.3896 -1.0282
12663TIP3    H259405   3.282   6.260  12.138 -0.2474 -0.0934 -0.0450
12664TIP3   OH259406   5.794   0.103  12.739 -0.4677  0.1238  0.5574
12664TIP3    H159407   5.765   0.012  12.754 -0.6744  0.3164  1.3405
12664TIP3    H259408   5.889   0.096  12.727 -0.6704 -0.3774 -0.9240
12665TIP3   OH259409   2.548   2.695  14.738  0.0210 -0.3846  0.1641
12665TIP3    H159410   2.602   2.624  14.703  1.6409  0.5903  0.6612
12665TIP3    H259411   2.595   2.775  14.717 -0.8353  0.4451  1.3070
12666TIP3   OH259412   1.365   6.401   3.205 -0.7513 -0.3627  0.1476
12666TIP3    H159413   1.354   6.496   3.214 -1.0047 -0.2693 -1.1197
12666TIP3    H259414   1.438   6.391   3.143  0.3846 -1.0041  1.5397
12667TIP3   OH259415   1.933   3.790   4.361 -0.1951  0.9709  0.2721
12667TIP3    H159416   1.870   3.739   4.413  0.0726 -2.1903 -2.3578
12667TIP3    H259417   1.881   3.863   4.326 -1.6655  0.0509  0.4991
12668TIP3   OH259418   1.677   1.934  13.278  0.9079  0.4805  0.2208
12668TIP3    H159419   1.754   1.902  13.325  0.3456 -0.1095  0.7547
12668TIP3    H259420   1.603   1.913  13.335  0.2687  0.2744 -0.6556
12669TIP3   OH259421   4.035   5.814  16.165 -0.0221 -0.3006  0.0241
12669TIP3    H159422   4.030   5.719  16.154 -1.4592 -0.4901  2.0595
12669TIP3    H259423   3.954   5.847  16.127  0.8223  0.2012 -1.3710
12670TIP3   OH259424   0.432   2.319   6.538  0.5377  0.8445  0.2275
12670TIP3    H159425   0.521   2.292   6.514 -0.3387 -1.1442 -0.8234
12670TIP3    H259426   0.434   2.415   6.529  2.6369  0.8598  0.4765
12671TIP3   OH259427   6.210   0.307  14.056 -0.2327  0.7620  0.0675
12671TIP3    H159428   6.136   0.266  14.101  0.3167  1.2597  1.4839
12671TIP3    H259429   6.279   0.310  14.123  1.2189 -0.0936 -1.3600
12672TIP3   OH259430   4.949   4.062  15.435 -0.3282  0.4958  0.0491
12672TIP3    H159431   5.021   4.027  15.383 -1.8555 -0.8450 -1.2235
12672TIP3    H259432   4.958   4.157  15.428 -0.2677  0.3405 -2.3827
12673TIP3   OH259433   1.286   4.765  13.193  0.3807  0.5961 -0.1664
12673TIP3    H159434   1.310   4.744  13.103 -2.0940  0.6380 -0.8476
12673TIP3    H259435   1.310   4.857  13.203 -1.2657  1.1813 -1.4512
12674TIP3   OH259436   6.688   5.184   4.235  0.1119  0.1126 -0.6637
12674TIP3    H159437   6.743   5.261   4.246  1.6572 -0.8368 -1.4977
12674TIP3    H259438   6.686   5.169   4.140  0.9218 -1.6095 -0.4412
12675TIP3   OH259439   0.618   3.819  12.141  0.4842 -0.1232  0.1629
12675TIP3    H159440   0.620   3.914  12.151 -1.9365  0.0016 -0.2344
12675TIP3    H259441   0.643   3.785  12.226  0.2930  0.8828  0.6289
12676TIP3   OH259442   0.915   1.257  11.683 -0.5950 -0.1244  0.1334
12676TIP3    H159443   0.906   1.343  11.643 -2.0597 -0.4231 -0.2465
12676TIP3    H259444   1.007   1.251  11.708 -0.1959  1.0414 -0.9801
12677TIP3   OH259445   4.126   1.271  15.451 -0.3326 -0.1660  0.3538
12677TIP3    H159446   4.108   1.290  15.359  1.7487  0.6199  0.0993
12677TIP3    H259447   4.067   1.198  15.472 -1.0794 -0.1117 -1.4794
12678TIP3   OH259448   1.809   2.236  12.916  0.0026  0.1072  0.6081
12678TIP3    H159449   1.886   2.292  12.923 -1.4334  1.9225  2.4956
12678TIP3    H259450   1.824   2.166  12.980 -0.1377  0.7728  1.3840
12679TIP3   OH259451   5.878   5.424  12.232 -0.0991  0.0632  0.8225
12679TIP3    H159452   5.966   5.392  12.210 -0.3634 -0.2525  0.2230
12679TIP3    H259453   5.831   5.423  12.149 -0.9091 -0.5196  1.2930
12680TIP3   OH259454   1.810   1.471   5.603  0.2877 -0.2834 -0.3008
12680TIP3    H159455   1.829   1.560   5.630  0.9562 -0.5787  0.2288
12680TIP3    H259456   1.733   1.446   5.656 -1.1824  0.6668 -1.9307
12681TIP3   OH259457   1.674   1.013   1.685 -0.2773 -0.8486  0.4692
12681TIP3    H159458   1.763   1.009   1.718 -0.5496 -0.2510  1.2783
12681TIP3    H259459   1.626   0.946   1.734 -0.0963 -1.7207 -0.5278
12682TIP3   OH259460   1.224   3.481  15.670  1.0212 -0.3032  0.0699
12682TIP3    H159461   1.307   3.463  15.624  2.0353  0.1828  1.6693
12682TIP3    H259462   1.237   3.444  15.757 -0.5286 -0.3799  0.2700
12683TIP3   OH259463   6.476   5.707  11.694 -0.2516  0.3050 -0.3588
12683TIP3    H159464   6.399   5.705  11.637 -2.1108 -0.4511  2.1244
12683TIP3    H259465   6.474   5.624  11.741  0.9123  1.1819  1.2761
12684TIP3   OH259466   1.560   5.766  13.356 -0.0165 -0.1117 -0.3382
12684TIP3    H159467   1.543   5.859  13.340  2.7546  0.6433  0.8692
12684TIP3    H259468   1.539   5.754  13.448 -1.9929 -1.1052 -0.8956
12685TIP3   OH259469   3.011   3.094  10.958 -0.0716 -0.1923  0.3496
12685TIP3    H159470   3.097   3.081  10.998  0.2468 -1.2870 -0.6637
12685TIP3    H259471   3.019   3.175  10.908  0.2236 -0.0296  0.6607
12686TIP3   OH259472   4.210   5.307  13.598 -0.1204  0.0046  0.3390
12686TIP3    H159473   4.291   5.356  13.607  0.1924 -0.6455  1.1214
12686TIP3    H259474   4.141   5.374  13.596  0.3781  0.5176  0.3534
12687TIP3   OH259475   1.875   3.489  12.454 -0.2479 -0.7418  0.6835
12687TIP3    H159476   1.862   3.572  12.409 -1.9170  0.1167  2.6336
12687TIP3    H259477   1.913   3.431  12.389  2.7886  2.0960 -0.2002
12688TIP3   OH259478   4.022   3.175   1.238  0.2125 -0.2549 -0.4575
12688TIP3    H159479   3.966   3.252   1.252 -0.4786 -0.5400 -1.6588
12688TIP3    H259480   4.111   3.211   1.237 -0.1571  0.6519 -1.8592
12689TIP3   OH259481   6.666   2.939  12.456 -0.5559  0.1262 -0.0165
12689TIP3    H159482   6.659   3.033  12.439 -2.0390  0.0200 -0.0303
12689TIP3    H259483   6.752   2.915  12.420 -0.6570  1.2502 -1.0534
12690TIP3   OH259484   1.528   3.972   4.094  0.1069 -0.3104 -0.1656
12690TIP3    H159485   1.533   3.965   4.189  0.4738  2.6814  0.0901
12690TIP3    H259486   1.463   4.041   4.079  1.5745  0.7116 -2.0073
12691TIP3   OH259487   5.353   3.780   2.373  0.0002  0.0405 -0.1385
12691TIP3    H159488   5.265   3.768   2.336 -0.1791  0.4663  0.1374
12691TIP3    H259489   5.347   3.742   2.461 -0.4646  1.7617  0.5983
12692TIP3   OH259490   1.187   5.374  14.337 -0.1791  0.2043 -0.0994
12692TIP3    H159491   1.189   5.467  14.362  0.8540  0.6858 -1.8302
12692TIP3    H259492   1.260   5.335  14.386  2.2125  1.2579 -2.6422
12693TIP3   OH259493   5.351   3.092   2.741 -0.1417 -0.6846  0.4080
12693TIP3    H159494   5.283   3.157   2.759  0.4764 -0.0644  0.5639
12693TIP3    H259495   5.349   3.033   2.816  0.3623  0.0997  1.0505
12694TIP3   OH259496   3.878   6.022  16.039  0.4044  0.4996 -0.0208
12694TIP3    H159497   3.811   5.984  16.097  0.1999 -0.6487 -0.9950
12694TIP3    H259498   3.861   5.982  15.954  2.2862  0.2622 -0.3024
12695TIP3   OH259499   4.872   5.983  16.707  0.6718 -0.6585 -0.2130
12695TIP3    H159500   4.840   5.983  16.617 -0.2507 -0.7622  0.1099
12695TIP3    H259501   4.874   5.891  16.733  0.7050 -0.6117 -0.0469
12696TIP3   OH259502   1.333   0.567   6.234 -0.1998 -0.0350 -0.5149
12696TIP3    H159503   1.392   0.492   6.230  0.2145  0.2588  0.0488
12696TIP3    H259504   1.280   0.560   6.154  0.6790 -0.2274 -1.0896
12697TIP3   OH259505   5.433   5.363   3.897  0.0470 -0.3527 -0.1187
12697TIP3    H159506   5.387   5.416   3.962  1.3356  0.2811  0.2863
12697TIP3    H259507   5.366   5.343   3.831 -1.0495 -0.2638  0.9493
12698TIP3   OH259508   0.354   1.782  12.891  0.1737  0.1074  0.2817
12698TIP3    H159509   0.278   1.743  12.935 -0.3932  1.3788  0.4633
12698TIP3    H259510   0.382   1.852  12.950 -0.9240  2.1920 -1.6203
12699TIP3   OH259511   4.208   2.554  14.240  0.1631  0.3481  0.2116
12699TIP3    H159512   4.130   2.498  14.242 -0.2714  0.9569  1.9628
12699TIP3    H259513   4.176   2.640  14.268  1.2073  0.9479 -0.4240
12700TIP3   OH259514   4.115   4.584  15.033 -0.3538  0.3315  0.1320
12700TIP3    H159515   4.104   4.598  15.127  0.4802  0.4794  0.2144
12700TIP3    H259516   4.197   4.627  15.012 -1.6925  2.3254 -1.1219
12701TIP3   OH259517   0.128   4.332   2.043 -0.1939 -0.0689  0.3144
12701TIP3    H159518   0.149   4.329   1.950  0.8533  1.5278  0.4760
12701TIP3    H259519   0.033   4.325   2.047 -0.2941  0.4740 -0.9166
12702TIP3   OH259520   0.618   5.771   0.699  0.1189  0.3834 -0.5289
12702TIP3    H159521   0.523   5.764   0.705  0.1830 -0.3531 -0.3235
12702TIP3    H259522   0.635   5.789   0.606 -0.1799 -0.3363 -0.7302
12703TIP3   OH259523   4.946   2.948   2.680  0.1047 -0.1341  0.8222
12703TIP3    H159524   4.994   2.877   2.636 -2.6631 -0.3748 -2.0587
12703TIP3    H259525   4.864   2.907   2.707 -0.2944  1.2794  1.8037
12704TIP3   OH259526   6.650   2.424  14.675 -0.2713  0.0854  0.3336
12704TIP3    H159527   6.568   2.374  14.668  0.8129 -1.4035 -2.2407
12704TIP3    H259528   6.622   2.515  14.670 -1.7091 -0.4248 -1.6936
12705TIP3   OH259529   3.265   5.873   5.836  0.4214 -0.5694  0.1590
12705TIP3    H159530   3.281   5.963   5.809  2.7598 -1.2074 -0.7231
12705TIP3    H259531   3.257   5.825   5.753 -1.3187 -1.1031  0.6189
12706TIP3   OH259532   6.638   0.101   1.684  0.1514 -0.2226 -0.2100
12706TIP3    H159533   6.629   0.031   1.749  1.7483  1.0832  1.4792
12706TIP3    H259534   6.598   0.177   1.725  1.0904  0.5954 -0.7835
12707TIP3   OH259535   2.966   2.521  15.807 -0.1337  0.4358 -0.0954
12707TIP3    H159536   2.914   2.488  15.880  0.7443  0.8685  0.7472
12707TIP3    H259537   2.937   2.611  15.795 -0.8396  0.1134 -0.8086
12708TIP3   OH259538   5.036   5.801   0.616  0.1488 -0.0487 -0.1932
12708TIP3    H159539   4.943   5.782   0.604 -0.1205  0.7802  0.5724
12708TIP3    H259540   5.064   5.837   0.532 -0.3721  0.2912 -0.2213
12709TIP3   OH259541   5.479   3.561  15.204 -0.1051  0.5978 -0.5352
12709TIP3    H159542   5.391   3.522  15.204  0.2205 -0.1751  0.3905
12709TIP3    H259543   5.466   3.647  15.244 -0.1883 -0.1636  1.1188
12710TIP3   OH259544   5.182   4.984  16.777 -0.0756  0.3586  0.1871
12710TIP3    H159545   5.232   5.056  16.739 -0.2312  0.4093  0.0774
12710TIP3    H259546   5.126   4.952  16.706  0.1988 -0.0540  0.1539
12711TIP3   OH259547   6.546   4.345   0.736 -0.1077  0.2532  0.1115
12711TIP3    H159548   6.620   4.335   0.677  0.4246 -0.4236  0.8915
12711TIP3    H259549   6.584   4.341   0.823 -0.8289  1.7135  0.5163
12712TIP3   OH259550   0.768   3.773   0.624  0.2648  0.4516 -0.2800
12712TIP3    H159551   0.772   3.865   0.598 -1.2823  0.2186 -1.3569
12712TIP3    H259552   0.833   3.729   0.568  2.3385  1.1514  1.4999
12713TIP3   OH259553   1.256   2.216  12.523 -0.2099 -0.7642  0.0832
12713TIP3    H159554   1.292   2.286  12.469 -2.6238 -0.1309 -0.7816
12713TIP3    H259555   1.196   2.260  12.583 -0.0414 -1.8454  1.0620
12714TIP3   OH259556   1.700   2.995   5.890  0.2381  0.5795 -0.3421
12714TIP3    H159557   1.668   3.049   5.963 -1.8611  0.7132 -1.3211
12714TIP3    H259558   1.777   3.042   5.857  0.4890  1.1385  1.0307
12715TIP3   OH259559   2.310   0.030  16.298  0.3063  0.3694 -0.2094
12715TIP3    H159560   2.314   0.110  16.245 -2.1435  1.0635  0.6233
12715TIP3    H259561   2.260  -0.032  16.244  1.5651 -0.3923 -0.5364
12716TIP3   OH259562   0.768   6.722  13.613  0.7339 -0.1331 -0.2825
12716TIP3    H159563   0.819   6.710  13.693  1.9801 -0.9781 -1.1816
12716TIP3    H259564   0.677   6.711  13.640  1.2192 -1.6505  0.7972
12717TIP3   OH259565   3.474   5.991  13.070  0.3899  0.0514  0.0149
12717TIP3    H159566   3.390   6.036  13.065  0.3474  0.1765  1.5543
12717TIP3    H259567   3.512   6.020  13.154  1.1724 -1.3594  0.1647
12718TIP3   OH259568   1.874   2.908   1.524  0.6883 -0.6957 -0.3458
12718TIP3    H159569   1.951   2.908   1.467  0.3364  0.5289 -0.8394
12718TIP3    H259570   1.817   2.841   1.486  1.7023 -1.9426  0.3043
12719TIP3   OH259571   3.021   6.341   4.850 -0.5864 -0.3433  0.0717
12719TIP3    H159572   3.002   6.396   4.927  0.3745 -0.5058  0.4379
12719TIP3    H259573   3.032   6.404   4.778  1.1600  0.0291  0.6210
12720TIP3   OH259574   2.916   0.388   5.048 -0.2820 -0.2143  0.0003
12720TIP3    H159575   2.923   0.389   4.952  1.9964  0.3877  0.1363
12720TIP3    H259576   2.855   0.317   5.067 -0.5882 -0.4912 -1.8816
12721TIP3   OH259577   0.466   0.657  13.576 -0.0566  0.0494 -0.1921
12721TIP3    H159578   0.431   0.744  13.597 -0.4261  0.0781 -0.9144
12721TIP3    H259579   0.389   0.605  13.553  0.3732  0.2009 -2.0919
12722TIP3   OH259580   4.914   6.721  14.836  0.1363  0.3399 -0.4208
12722TIP3    H159581   4.942   6.724  14.928  1.5848 -0.0492 -0.8437
12722TIP3    H259582   4.832   6.672  14.838  1.4076 -1.8042  0.3555
12723TIP3   OH259583   5.818   4.558  12.262 -0.1791 -0.3073 -0.5077
12723TIP3    H159584   5.865   4.620  12.317  2.8943 -1.0031 -2.2554
12723TIP3    H259585   5.728   4.558  12.297  0.9847  1.3508  2.6556
12724TIP3   OH259586   1.984   4.003   0.255  0.1650 -0.0758  0.0301
12724TIP3    H159587   1.929   3.957   0.191 -2.2800  1.5075  0.9153
12724TIP3    H259588   2.018   4.079   0.207 -1.1443  0.7555  0.3846
12725TIP3   OH259589   1.946   3.412   0.411 -0.3495  0.0060 -0.0787
12725TIP3    H159590   1.967   3.431   0.320 -0.0945 -0.8024 -0.1873
12725TIP3    H259591   1.859   3.373   0.409  0.8737 -2.8373 -0.2967
12726TIP3   OH259592   1.956   2.379   2.430  0.7502  0.0955 -0.9016
12726TIP3    H159593   1.988   2.465   2.405 -0.6863  0.6873 -0.7392
12726TIP3    H259594   2.030   2.337   2.474  0.0065  3.0539  3.4184
12727TIP3   OH259595   3.339   1.148  16.565  0.0018  0.1453  0.5735
12727TIP3    H159596   3.371   1.085  16.500 -1.2907  0.6606 -0.5939
12727TIP3    H259597   3.355   1.106  16.649 -0.7860 -1.7283 -0.1812
12728TIP3   OH259598   3.585   3.429  13.533 -0.8209 -0.1634  0.2344
12728TIP3    H159599   3.607   3.493  13.465 -0.1950 -0.2438  0.3662
12728TIP3    H259600   3.661   3.428  13.591 -0.9218 -0.8735  0.3526
12729TIP3   OH259601   1.080   4.681   0.425 -0.0440 -0.2547 -0.2427
12729TIP3    H159602   1.132   4.651   0.500 -1.0550 -0.9922  0.1753
12729TIP3    H259603   0.995   4.640   0.437 -0.0860 -0.7493 -2.0312
12730TIP3   OH259604   3.136   3.616   2.399  0.1503  0.6659  0.2468
12730TIP3    H159605   3.150   3.621   2.305  2.0028  1.7793  0.5490
12730TIP3    H259606   3.058   3.668   2.415 -0.0621  0.6261 -0.6559
12731TIP3   OH259607   2.954   5.532  16.677 -0.7609 -0.0846  0.0274
12731TIP3    H159608   3.027   5.532  16.739  0.2215  0.9406 -1.1224
12731TIP3    H259609   2.965   5.450  16.628 -1.9887 -1.2825  1.7019
12732TIP3   OH259610   5.975   6.084   1.525  0.0541 -0.0327 -0.0888
12732TIP3    H159611   6.048   6.146   1.519 -0.4199  0.4733 -0.6814
12732TIP3    H259612   5.996   6.030   1.601  0.5431  0.7676  0.3569
12733TIP3   OH259613   1.276   1.581  14.322  0.7531 -0.3113 -0.0091
12733TIP3    H159614   1.209   1.605  14.258  0.9324 -1.9890 -0.8356
12733TIP3    H259615   1.300   1.664  14.364 -0.7744  0.5088 -0.7404
12734TIP3   OH259616   4.453   2.288   5.663 -0.4646  0.8999 -0.8297
12734TIP3    H159617   4.504   2.266   5.741 -1.5503 -1.7260 -0.7963
12734TIP3    H259618   4.513   2.278   5.590 -0.9882 -2.8135 -0.8554
12735TIP3   OH259619   6.685   2.333  12.100  0.6439 -0.1174  0.2776
12735TIP3    H159620   6.614   2.389  12.068 -0.3414 -1.1295  0.6689
12735TIP3    H259621   6.737   2.392  12.155  0.2521  0.6972 -0.2000
12736TIP3   OH259622   4.506   4.431   0.167 -0.1162 -0.4400  0.2949
12736TIP3    H159623   4.446   4.357   0.157  1.3181 -1.6077  0.2509
12736TIP3    H259624   4.593   4.392   0.170  0.6936  1.2777 -0.1285
12737TIP3   OH259625   1.672   0.032  13.976 -0.5881  0.0563 -0.8117
12737TIP3    H159626   1.661  -0.021  14.055  0.3340 -0.6959 -1.1716
12737TIP3    H259627   1.749   0.087  13.994 -1.9582  1.8038 -0.1708
12738TIP3   OH259628   5.719   4.426   5.909 -0.1746 -0.9124  0.6599
12738TIP3    H159629   5.770   4.424   5.828 -1.3402 -1.1431 -0.0799
12738TIP3    H259630   5.754   4.354   5.962  1.0194 -0.3593  0.6354
12739TIP3   OH259631   2.176   2.040  15.251  0.1197  0.0567 -0.4585
12739TIP3    H159632   2.179   1.949  15.223 -0.4601 -0.4252  1.0101
12739TIP3    H259633   2.165   2.090  15.170  0.7576 -1.1460 -1.3009
12740TIP3   OH259634   5.741   6.755   5.759  0.6421 -0.4336  0.1563
12740TIP3    H159635   5.710   6.759   5.669  2.7642 -0.1613 -0.6033
12740TIP3    H259636   5.764   6.845   5.781  1.2313 -0.6723  0.5453
12741TIP3   OH259637   3.332   0.153   5.804  0.6904  0.3169  0.2011
12741TIP3    H159638   3.391   0.178   5.732  2.7976 -0.1859  1.7085
12741TIP3    H259639   3.349   0.218   5.872 -1.0654  0.6018  0.3820
12742TIP3   OH259640   0.059   2.429  11.550  0.1545  0.2314  0.1616
12742TIP3    H159641   0.097   2.478  11.477  1.6596 -1.3848 -0.1611
12742TIP3    H259642  -0.035   2.434  11.535  0.3691  1.4632 -0.8769
12743TIP3   OH259643   2.210   5.063  11.031  0.0251  0.6673  0.3136
12743TIP3    H159644   2.210   4.992  11.095 -1.1107  0.1691 -0.2285
12743TIP3    H259645   2.148   5.036  10.964  1.1271  1.2335 -0.9672
12744TIP3   OH259646   1.653   3.039   4.883 -0.6349 -0.6162  0.1442
12744TIP3    H159647   1.596   3.020   4.809 -2.2082 -1.0528  1.4461
12744TIP3    H259648   1.601   3.094   4.941 -0.5189 -2.7294  2.3452
12745TIP3   OH259649   2.842   6.072   5.340  0.1277  0.2239 -0.0617
12745TIP3    H159650   2.840   5.986   5.297  1.1879 -0.5328  1.3914
12745TIP3    H259651   2.833   6.134   5.267 -3.8829 -1.1180 -0.8666
12746TIP3   OH259652   3.933   5.568  16.065  0.5519  0.0394 -0.3503
12746TIP3    H159653   3.960   5.514  15.991  1.1398  0.1450 -0.2124
12746TIP3    H259654   3.853   5.526  16.098  0.9482 -0.6831 -0.3030
12747TIP3   OH259655   0.652   3.158  14.786 -0.1091 -0.4231  0.1113
12747TIP3    H159656   0.737   3.159  14.831  0.1676 -2.1141 -0.3251
12747TIP3    H259657   0.630   3.065  14.778 -0.6006 -0.1327 -2.4079
12748TIP3   OH259658   2.376   2.772  10.681  0.3908 -0.2780 -0.2343
12748TIP3    H159659   2.436   2.742  10.750  1.9481  1.2007 -0.9143
12748TIP3    H259660   2.407   2.859  10.659 -0.5110 -0.4640 -2.3475
12749TIP3   OH259661   5.496   5.686   3.541 -0.4188  0.0132 -0.0629
12749TIP3    H159662   5.420   5.632   3.563  1.3308 -3.1042 -1.3373
12749TIP3    H259663   5.486   5.705   3.447 -0.1764  0.5177  0.0101
12750TIP3   OH259664   1.111   2.624   4.186 -0.1439  0.1157  0.1760
12750TIP3    H159665   1.163   2.615   4.106 -0.6955 -0.7722 -0.0904
12750TIP3    H259666   1.075   2.536   4.201 -3.7099  1.2532 -1.1186
12751TIP3   OH259667   0.444   2.733   4.471 -0.4115 -0.0142  0.2092
12751TIP3    H159668   0.493   2.651   4.474  0.1506  0.3678  1.8628
12751TIP3    H259669   0.478   2.778   4.393  1.3705 -0.0781  0.9270
12752TIP3   OH259670   1.071   5.366   2.100  0.0571  0.1595 -0.0582
12752TIP3    H159671   0.992   5.362   2.047 -0.5361  1.5679  0.6901
12752TIP3    H259672   1.058   5.442   2.157  2.0139  0.5213 -0.0488
12753TIP3   OH259673   4.573   2.045  17.033  0.4148 -0.5874  0.0604
12753TIP3    H159674   4.605   2.052  17.123  1.8369 -1.8663 -0.3276
12753TIP3    H259675   4.650   2.023  16.982 -0.7099 -1.6749 -1.2029
12754TIP3   OH259676   3.982   1.526  14.040  0.7206 -0.1274  0.3310
12754TIP3    H159677   3.949   1.607  14.077 -0.7398 -0.9736  0.9129
12754TIP3    H259678   4.061   1.506  14.091  0.8420  0.6936  0.4652
12755TIP3   OH259679   5.768   5.034  13.404 -0.0040 -0.0152 -0.0372
12755TIP3    H159680   5.765   5.067  13.494  0.0310  0.7663 -0.3170
12755TIP3    H259681   5.733   5.106  13.351  1.9032  0.3129 -0.8690
12756TIP3   OH259682   0.825   2.896  10.515 -0.1324 -0.0251 -0.0883
12756TIP3    H159683   0.889   2.844  10.562  1.0706  1.2678 -0.2511
12756TIP3    H259684   0.761   2.833  10.482  0.6793 -1.2479  0.6726
12757TIP3   OH259685   4.853   1.000   3.094 -0.4136  0.1701 -0.0554
12757TIP3    H159686   4.809   1.058   3.031 -0.6317  1.6322  1.3875
12757TIP3    H259687   4.782   0.947   3.130 -0.5060  0.2851 -0.0648
12758TIP3   OH259688   5.151   5.027   1.350  0.8726  0.3917  0.4000
12758TIP3    H159689   5.057   5.014   1.340  0.5844  1.0060  2.0577
12758TIP3    H259690   5.188   5.010   1.263 -0.8931  1.2594 -0.5342
12759TIP3   OH259691   0.118   0.121   5.892 -0.3285  0.2829  0.0250
12759TIP3    H159692   0.099   0.117   5.986  1.1919 -0.9772  0.3076
12759TIP3    H259693   0.083   0.039   5.857  1.4640 -0.4844 -0.0248
12760TIP3   OH259694   6.290   3.445   3.352 -0.2057 -0.3642  0.2404
12760TIP3    H159695   6.199   3.419   3.339 -0.8150  1.4142  0.7853
12760TIP3    H259696   6.341   3.365   3.338 -1.6652 -0.9284 -2.1302
12761TIP3   OH259697   3.117   5.587   1.799 -0.3288 -0.0309 -0.0794
12761TIP3    H159698   3.138   5.659   1.858  2.1203 -0.9554  0.2690
12761TIP3    H259699   3.023   5.595   1.782 -0.2833  2.6111  0.7447
12762TIP3   OH259700   2.953   1.302  15.258  0.5383  0.7331  0.3007
12762TIP3    H159701   2.872   1.270  15.299  0.2017  0.4381 -0.5961
12762TIP3    H259702   2.959   1.255  15.176  1.0956  1.5057 -0.1062
12763TIP3   OH259703   0.159   0.244   2.432  0.3512  0.1094 -0.6349
12763TIP3    H159704   0.129   0.220   2.344 -0.4347 -0.3066 -0.2571
12763TIP3    H259705   0.165   0.339   2.430 -2.1807  0.3127 -0.3658
12764TIP3   OH259706   6.118   2.573   5.506 -0.6232 -0.1243  0.3557
12764TIP3    H159707   6.066   2.493   5.496 -1.8696  0.8094 -0.8621
12764TIP3    H259708   6.209   2.545   5.495 -1.0355 -1.3814  0.1003
12765TIP3   OH259709   4.988   1.345  16.220 -0.2707  0.5286  0.0717
12765TIP3    H159710   5.069   1.395  16.208  0.0366  0.0253  0.0177
12765TIP3    H259711   4.939   1.394  16.286 -0.5911  1.6424 -0.9905
12766TIP3   OH259712   6.164   1.487  15.647 -0.0624  0.2822  0.4491
12766TIP3    H159713   6.258   1.471  15.654  0.0205  0.1669 -0.9316
12766TIP3    H259714   6.145   1.485  15.553 -1.5945 -0.5266  0.7563
12767TIP3   OH259715   6.031   1.093   1.013  0.0470  0.2825  0.0150
12767TIP3    H159716   6.077   1.018   1.049 -0.0986 -0.3561 -1.1049
12767TIP3    H259717   5.939   1.066   1.008  0.2940 -0.2692 -2.3454
12768TIP3   OH259718   6.497   3.872   1.727  0.3001 -0.2551 -0.0816
12768TIP3    H159719   6.465   3.940   1.787  0.8990  1.7043 -1.8886
12768TIP3    H259720   6.573   3.834   1.771  0.0120  0.3191  0.9245
12769TIP3   OH259721   3.889   2.092   0.063 -0.1340 -0.0998  0.0327
12769TIP3    H159722   3.916   2.041   0.140  0.6239 -0.6466 -0.5893
12769TIP3    H259723   3.944   2.059  -0.008 -0.8964  0.3439 -0.7685
12770TIP3   OH259724   6.166   6.742  14.349 -0.1037 -0.7575  0.1804
12770TIP3    H159725   6.135   6.820  14.395  0.6885  1.0381 -2.2277
12770TIP3    H259726   6.261   6.752  14.344  0.0696 -2.1835  0.3732
12771TIP3   OH259727   6.191   4.299   4.565 -0.1174  0.2440  0.3514
12771TIP3    H159728   6.249   4.232   4.603  1.7188  1.0118 -0.9984
12771TIP3    H259729   6.141   4.252   4.498  0.8479  0.1071 -0.2841
12772TIP3   OH259730   3.458   3.532   0.334 -0.2767 -0.0439 -0.0619
12772TIP3    H159731   3.492   3.574   0.255 -2.5590  0.7960 -0.6271
12772TIP3    H259732   3.390   3.473   0.303 -1.0927  0.1687  1.2677
12773TIP3   OH259733   4.569   5.016  13.730  0.1174  0.2036 -0.3839
12773TIP3    H159734   4.571   4.927  13.763  1.6075  0.0278 -0.9238
12773TIP3    H259735   4.497   5.058  13.778  0.4823 -0.8100  1.0649
12774TIP3   OH259736   1.936   2.432  16.272  0.3284  0.8576  0.0451
12774TIP3    H159737   1.869   2.472  16.217 -0.8800 -2.4646 -1.0360
12774TIP3    H259738   1.889   2.369  16.327  2.4317 -1.0536 -0.2460
12775TIP3   OH259739   6.066   3.622  13.413 -0.1053  0.4895 -0.5211
12775TIP3    H159740   6.133   3.634  13.345  1.3286 -1.8037  0.4336
12775TIP3    H259741   6.111   3.643  13.494 -1.0785  0.6290 -0.0111
12776TIP3   OH259742   2.909   6.216   5.105 -0.3570 -0.0528 -0.2094
12776TIP3    H159743   2.885   6.175   5.022  0.0123  0.4882 -0.5827
12776TIP3    H259744   2.861   6.299   5.106  0.2897  0.3273 -0.2670
12777TIP3   OH259745   2.307   5.922   5.122  0.3284 -0.2498  0.5934
12777TIP3    H159746   2.318   6.006   5.077 -1.4069 -0.2107  0.1952
12777TIP3    H259747   2.325   5.941   5.214  0.0963  0.5300  0.4843
12778TIP3   OH259748   2.599   3.550   5.336  0.4972  0.9349 -0.5142
12778TIP3    H159749   2.638   3.592   5.412  0.5626  0.0433 -0.0511
12778TIP3    H259750   2.648   3.468   5.326 -1.2655 -0.2233  0.0943
12779TIP3   OH259751   6.587   4.219   4.141  0.3967 -0.2792  0.4255
12779TIP3    H159752   6.503   4.213   4.096  0.5854  0.2327  0.0050
12779TIP3    H259753   6.564   4.227   4.234 -0.1457  3.0132  0.0795
12780TIP3   OH259754   2.808   5.251  11.459  0.5201 -0.0289  0.2166
12780TIP3    H159755   2.871   5.197  11.509  1.3875 -1.2929 -2.1777
12780TIP3    H259756   2.859   5.286  11.387 -1.5956 -1.4625 -2.0649
12781TIP3   OH259757   1.093   0.592   3.701  0.3450 -0.2828  0.1351
12781TIP3    H159758   1.155   0.525   3.673  0.7933  0.2558 -0.1710
12781TIP3    H259759   1.008   0.550   3.697  0.4940 -0.4452 -1.2531
12782TIP3   OH259760   5.801   2.472   1.904 -0.8428 -0.1206  0.4356
12782TIP3    H159761   5.880   2.512   1.940 -0.1749  1.5006 -2.6799
12782TIP3    H259762   5.734   2.490   1.971  0.2241  3.2741  0.6955
12783TIP3   OH259763   0.010   2.418   6.100  0.1214 -0.0147 -0.1292
12783TIP3    H159764   0.052   2.459   6.176  1.1217 -3.1257  1.0921
12783TIP3    H259765  -0.083   2.438   6.109  0.5052  1.3931  0.7767
12784TIP3   OH259766   5.234   6.251   4.267  0.2837 -0.1039  0.1350
12784TIP3    H159767   5.222   6.156   4.260 -0.4947 -0.1831  2.0266
12784TIP3    H259768   5.191   6.274   4.350  2.4312  1.5495  0.8446
12785TIP3   OH259769   6.339   6.501  12.437 -0.3284  0.6213  0.4456
12785TIP3    H159770   6.290   6.576  12.470  0.2720  0.8381  0.8500
12785TIP3    H259771   6.287   6.468  12.364 -0.4330  1.6334  0.0564
12786TIP3   OH259772   4.906   4.259   1.679  0.4303  0.5613 -0.0781
12786TIP3    H159773   4.930   4.174   1.641  0.9123  0.3845  0.6091
12786TIP3    H259774   4.906   4.243   1.774  2.5857  1.8670  0.1653
12787TIP3   OH259775   6.670   4.331   0.963 -0.6472  0.3208 -0.5867
12787TIP3    H159776   6.665   4.269   1.036  0.8205  0.1270 -0.6314
12787TIP3    H259777   6.635   4.413   0.999 -0.2511  0.1382  0.2318
12788TIP3   OH259778   2.558   2.672   0.912  0.4532  0.1715  0.4517
12788TIP3    H159779   2.639   2.638   0.952  0.2943 -0.8028 -0.0450
12788TIP3    H259780   2.538   2.751   0.962  2.1527  0.8713  0.0799
12789TIP3   OH259781   0.942   4.025  11.512 -0.2893 -0.1143  0.0165
12789TIP3    H159782   1.007   3.990  11.450  1.1893  0.1598  1.3742
12789TIP3    H259783   0.887   4.082  11.459 -0.0922 -1.2020 -1.3832
12790TIP3   OH259784   0.244   2.091  14.899 -0.2940 -0.2374 -0.4196
12790TIP3    H159785   0.308   2.045  14.845  1.2015  1.1463  0.1398
12790TIP3    H259786   0.202   2.153  14.839  0.0068 -0.0543 -0.4452
12791TIP3   OH259787   2.762   6.271  14.625  0.1788  0.0623  0.6776
12791TIP3    H159788   2.676   6.230  14.629  0.5488 -1.0344 -1.7136
12791TIP3    H259789   2.823   6.198  14.622  0.8776  0.6888 -3.1871
12792TIP3   OH259790   0.371   1.496  15.196 -0.4732 -0.6234 -0.2930
12792TIP3    H159791   0.309   1.471  15.264 -4.8150  0.5332 -3.5981
12792TIP3    H259792   0.428   1.419  15.186 -0.1207 -1.0484  4.0476
12793TIP3   OH259793   1.683   3.289  12.286  0.3764 -1.3220  0.2473
12793TIP3    H159794   1.777   3.278  12.272  0.8787  3.1527 -0.6651
12793TIP3    H259795   1.677   3.363  12.346 -2.5803  0.4272 -2.0718
12794TIP3   OH259796   2.810   3.517   1.051 -0.2182  0.3033 -0.1085
12794TIP3    H159797   2.825   3.549   1.140  1.3009 -0.2288 -0.1628
12794TIP3    H259798   2.878   3.450   1.037 -0.8936 -0.1390 -1.4023
12795TIP3   OH259799   5.566   1.867  12.856 -0.6291  0.1090  0.7774
12795TIP3    H159800   5.568   1.798  12.791  2.7858  0.6344  0.1843
12795TIP3    H259801   5.493   1.923  12.831  0.6750  0.3541 -2.7353
12796TIP3   OH259802   2.463   3.003  10.622  0.2295  0.1127  0.4685
12796TIP3    H159803   2.456   3.096  10.647  3.0736  0.1475  1.3321
12796TIP3    H259804   2.477   3.005  10.528  2.2264  0.7227  0.7399
12797TIP3   OH259805   2.042   0.363  15.440  0.0420 -0.0488  0.0344
12797TIP3    H159806   2.062   0.345  15.532  0.4902  1.6399  0.2710
12797TIP3    H259807   2.071   0.284  15.394  4.5867  1.0476  0.7279
12798TIP3   OH259808   5.322   2.662   2.776 -0.0918 -0.0123 -0.0394
12798TIP3    H159809   5.258   2.598   2.808  0.7991 -1.4937 -1.0991
12798TIP3    H259810   5.276   2.745   2.776 -1.4324 -0.7324  0.9597
12799TIP3   OH259811   1.101   5.103   0.035  0.0538  0.3378 -0.3522
12799TIP3    H159812   1.111   5.018   0.078 -1.1191 -0.4675 -1.6338
12799TIP3    H259813   1.073   5.162   0.105  0.3416 -0.4513  0.4397
12800TIP3   OH259814   1.528   5.984   4.200 -0.4222 -0.3883  0.3905
12800TIP3    H159815   1.507   5.993   4.293  3.7731 -1.3264  1.5417
12800TIP3    H259816   1.598   6.047   4.184  0.9306 -2.2400 -1.3686
12801TIP3   OH259817   4.614   3.469   0.161 -0.2044  0.1041  0.2623
12801TIP3    H159818   4.559   3.407   0.114  0.3703  0.2000 -0.5572
12801TIP3    H259819   4.690   3.418   0.190  0.5634  0.5330 -0.9401
12802TIP3   OH259820   6.221   5.151   2.618 -0.1443  0.6232  0.0523
12802TIP3    H159821   6.208   5.186   2.707 -0.0821  1.2891 -0.1989
12802TIP3    H259822   6.286   5.082   2.630 -1.9520 -0.9751  0.9040
12803TIP3   OH259823   2.434   0.188  12.980 -0.3226  0.3971 -0.1818
12803TIP3    H159824   2.394   0.112  12.939  1.6247  0.5291 -2.4524
12803TIP3    H259825   2.527   0.167  12.984  0.4545  3.1270 -2.0957
12804TIP3   OH259826   2.227   0.405  16.613 -0.4014  0.3830 -0.5085
12804TIP3    H159827   2.297   0.454  16.571  0.2308  1.0784  1.2997
12804TIP3    H259828   2.202   0.459  16.689 -1.1113 -1.1021  0.3402
12805TIP3   OH259829   6.170   4.140  13.059  0.2778 -0.1211  0.2337
12805TIP3    H159830   6.142   4.230  13.071  1.1948  0.3603 -1.1746
12805TIP3    H259831   6.247   4.132  13.116  1.4690  0.6231 -1.2380
12806TIP3   OH259832   0.079   1.895   5.030  0.4758  0.1577 -0.1587
12806TIP3    H159833   0.060   1.806   4.999 -1.0331  0.2272  0.5333
12806TIP3    H259834   0.087   1.886   5.125 -2.1452  1.1716  0.1802
12807TIP3   OH259835   1.444   5.856   0.472 -0.1697 -0.4455  0.0332
12807TIP3    H159836   1.479   5.852   0.560 -2.2249  0.4106  0.9300
12807TIP3    H259837   1.350   5.874   0.484 -0.6840 -1.3707 -2.2767
12808TIP3   OH259838   2.822   3.199   1.180 -0.4576 -0.1908  0.4573
12808TIP3    H159839   2.813   3.104   1.170 -0.5737 -0.3897  2.2024
12808TIP3    H259840   2.914   3.211   1.204  0.0024  0.3166 -1.5057
12809TIP3   OH259841   5.060   5.104   0.596  0.0977 -0.2658  0.1749
12809TIP3    H159842   4.989   5.159   0.563  0.4764 -0.9337 -1.8704
12809TIP3    H259843   5.103   5.157   0.663 -0.2525  1.4887 -0.9519
12810TIP3   OH259844   2.973   0.331  12.275  0.6953  0.0942  0.0370
12810TIP3    H159845   3.045   0.284  12.318 -2.3568 -3.9118  1.0197
12810TIP3    H259846   2.967   0.414  12.324  1.1065 -1.8662  3.6159
12811TIP3   OH259847   0.645   3.565  13.734 -0.2758  0.1624 -0.3569
12811TIP3    H159848   0.650   3.661  13.735  2.8051  0.0533 -0.8144
12811TIP3    H259849   0.630   3.543  13.642  0.3919  0.1829 -0.4772
12812TIP3   OH259850   2.267   2.243  16.304 -0.0496  0.2590  0.3554
12812TIP3    H159851   2.230   2.242  16.215 -0.2251  0.3168  0.4267
12812TIP3    H259852   2.232   2.322  16.344  1.3841  1.1243 -0.0845
12813TIP3   OH259853   4.010   0.670   6.206 -0.5828  0.6029 -0.1600
12813TIP3    H159854   3.944   0.721   6.254 -0.8842  0.3841 -0.3431
12813TIP3    H259855   4.090   0.723   6.212 -0.6082  0.5707  0.6086
12814TIP3   OH259856   4.452   3.097   2.636  0.3555  0.0044 -0.5354
12814TIP3    H159857   4.375   3.094   2.579 -1.1114 -0.0265  1.3779
12814TIP3    H259858   4.423   3.053   2.716  1.5695  2.1993  1.1387
12815TIP3   OH259859   4.168   4.247   5.935 -0.1763 -0.0558  0.4242
12815TIP3    H159860   4.227   4.289   5.997  0.9806 -1.3737  0.2439
12815TIP3    H259861   4.155   4.159   5.971 -0.4552 -0.4209 -0.5670
12816TIP3   OH259862   5.294   6.070  13.512  0.1020 -0.2579 -0.2177
12816TIP3    H159863   5.341   6.007  13.458 -1.9181 -1.9201 -0.0829
12816TIP3    H259864   5.210   6.084  13.467 -0.7816 -0.1263  1.4101
12817TIP3   OH259865   1.719   4.663  15.283  0.4680  0.4373  1.0004
12817TIP3    H159866   1.654   4.733  15.292  0.2442  0.2141  1.1154
12817TIP3    H259867   1.699   4.623  15.199  2.0712  2.0258 -0.1779
12818TIP3   OH259868   4.310   1.936  17.000  0.0282  0.3282 -0.4746
12818TIP3    H159869   4.395   1.970  17.027 -0.2996 -0.7850  2.0457
12818TIP3    H259870   4.318   1.841  17.008 -1.5451  0.2299  0.1110
12819TIP3   OH259871   4.965   5.480   0.691 -0.3182  0.6324 -0.5901
12819TIP3    H159872   4.999   5.415   0.752 -0.4010  0.8550 -0.3096
12819TIP3    H259873   4.936   5.428   0.615 -1.6276  0.2136  0.1860
12820TIP3   OH259874   3.829   1.670   2.753  0.2620  0.1909 -0.1725
12820TIP3    H159875   3.863   1.599   2.699  0.0068  1.1431 -1.6038
12820TIP3    H259876   3.771   1.720   2.695  0.3200  1.4828  0.8405
12821TIP3   OH259877   3.679   4.906   3.968 -0.0048 -0.1506 -0.2911
12821TIP3    H159878   3.626   4.832   3.938  0.6139 -1.0373  0.7483
12821TIP3    H259879   3.622   4.954   4.028 -0.6824  0.6901 -1.5870
12822TIP3   OH259880   1.396   5.589   0.926  0.5434  0.1954  0.3562
12822TIP3    H159881   1.352   5.673   0.912  1.2548  0.5579  0.3018
12822TIP3    H259882   1.384   5.571   1.020  1.7630  1.1403  0.7062
12823TIP3   OH259883   0.168   4.806  16.999  0.0216 -0.2325 -0.0908
12823TIP3    H159884   0.163   4.814  16.904  0.7848 -1.8101 -0.2775
12823TIP3    H259885   0.258   4.829  17.020 -0.0113 -0.3612  0.1921
12824TIP3   OH259886   0.935   4.252  17.015  0.4842  0.5828 -0.2244
12824TIP3    H159887   0.937   4.286  17.105  3.4754  0.3898 -0.1603
12824TIP3    H259888   0.913   4.329  16.962  2.2077  1.5364  0.3833
12825TIP3   OH259889   1.192   5.669  17.116  0.0887  0.4455  0.2246
12825TIP3    H159890   1.239   5.690  17.035 -0.6906  0.5629 -0.2133
12825TIP3    H259891   1.122   5.609  17.087 -0.4557  0.8277  0.7368
12826TIP3   OH259892   2.252   3.062  15.383 -0.1675 -0.4070  0.2081
12826TIP3    H159893   2.243   3.128  15.452 -0.8019  0.2495 -0.4882
12826TIP3    H259894   2.176   3.077  15.326  0.7551 -0.4387 -1.0439
12827TIP3   OH259895   1.625   3.236  15.282  0.5964 -0.1986  0.2176
12827TIP3    H159896   1.532   3.247  15.303  1.5822  0.6562  4.7777
12827TIP3    H259897   1.632   3.148  15.246 -1.9862 -0.2781 -0.1601
12828TIP3   OH259898   0.631   1.730   6.157 -0.0288 -0.1115  0.0772
12828TIP3    H159899   0.611   1.641   6.184  1.0475 -0.7088 -1.0180
12828TIP3    H259900   0.561   1.783   6.195 -1.6972 -1.6532 -0.7371
12829TIP3   OH259901   0.103   2.584   0.571  0.0145 -0.4771 -0.3195
12829TIP3    H159902   0.079   2.504   0.525  1.2619 -0.8155 -0.3997
12829TIP3    H259903   0.196   2.574   0.592 -0.7038 -0.7823  3.1456
12830TIP3   OH259904   3.899   3.210  11.546  0.3820 -0.2845  0.4394
12830TIP3    H159905   3.902   3.141  11.480  3.0813  1.3255 -1.2334
12830TIP3    H259906   3.991   3.224  11.570 -0.0583  2.7830  0.5978
12831TIP3   OH259907   3.795   5.013  15.764  0.2078 -0.1988 -0.9163
12831TIP3    H159908   3.714   5.063  15.772  1.2622  1.4717 -0.3991
12831TIP3    H259909   3.792   4.976  15.676 -0.4915  0.9820 -1.4090
12832TIP3   OH259910   3.383   6.101  16.390 -0.1733  0.5680 -0.1761
12832TIP3    H159911   3.457   6.147  16.430  0.1251  0.3362 -0.4524
12832TIP3    H259912   3.379   6.018  16.438  0.1035  0.3436 -0.5331
12833TIP3   OH259913   5.736   3.536  14.364  0.2294 -0.1503  0.0574
12833TIP3    H159914   5.792   3.614  14.363  0.2591 -0.1714  0.0805
12833TIP3    H259915   5.773   3.481  14.433 -0.8349  0.5698  1.2376
12834TIP3   OH259916   3.220   1.718  15.454  0.1448 -0.1888  0.3682
12834TIP3    H159917   3.180   1.643  15.409 -0.6150 -0.5926  1.6957
12834TIP3    H259918   3.203   1.793  15.396  1.2009 -1.0767 -1.1291
12835TIP3   OH259919   5.000   1.651  14.565 -0.2056 -0.2040 -0.0084
12835TIP3    H159920   5.080   1.687  14.527 -0.1817 -0.3669 -0.1130
12835TIP3    H259921   4.986   1.701  14.645  0.1502 -0.3560  0.1488
12836TIP3   OH259922   3.204   2.345  13.555 -0.0760  0.9911 -0.3067
12836TIP3    H159923   3.162   2.429  13.572  1.3372  1.9575 -1.4479
12836TIP3    H259924   3.203   2.300  13.640 -0.3371  2.3911  0.4492
12837TIP3   OH259925   3.418   0.696  12.979 -0.0113 -0.0104 -0.1890
12837TIP3    H159926   3.487   0.759  13.002  2.6482 -1.8823 -2.6581
12837TIP3    H259927   3.429   0.624  13.041  2.0142 -1.4683 -2.1562
12838TIP3   OH259928   3.786   2.621  13.247 -0.7014  0.4604  0.8727
12838TIP3    H159929   3.803   2.711  13.219 -1.6041  0.1700 -0.6220
12838TIP3    H259930   3.742   2.580  13.173 -1.0766 -0.9757  1.8687
12839TIP3   OH259931   2.316   4.070   4.205  0.7818 -0.0041 -0.4529
12839TIP3    H159932   2.367   4.129   4.149 -0.3052  0.6188 -0.7953
12839TIP3    H259933   2.335   3.983   4.171  2.8201  0.0796  0.3895
12840TIP3   OH259934   3.373   6.602   3.198  0.4515  0.0093  0.1271
12840TIP3    H159935   3.404   6.676   3.146  0.8044 -1.8498 -2.4122
12840TIP3    H259936   3.371   6.634   3.288  2.3147  2.5251 -0.6951
12841TIP3   OH259937   2.886   5.330  12.642  0.0725  0.7273 -0.2134
12841TIP3    H159938   2.948   5.285  12.586  0.3652  0.0466  0.6503
12841TIP3    H259939   2.814   5.268  12.654 -0.4966  1.2824 -0.7173
12842TIP3   OH259940   5.447   3.377   0.426 -0.0415  0.3339 -0.1402
12842TIP3    H159941   5.415   3.310   0.366  0.7012 -1.3787  1.3258
12842TIP3    H259942   5.538   3.393   0.399  0.5036 -0.9187  0.9152
12843TIP3   OH259943   5.583   4.819  14.823 -0.4095  0.0809  0.5406
12843TIP3    H159944   5.631   4.748  14.866  1.0220  0.0530 -1.0628
12843TIP3    H259945   5.637   4.843  14.748 -2.5981  0.4676 -0.9694
12844TIP3   OH259946   5.365   4.272  16.590 -0.2943  0.1417 -0.4511
12844TIP3    H159947   5.410   4.329  16.653  0.1449 -1.3369  0.6053
12844TIP3    H259948   5.393   4.304  16.504  1.4145  0.3556  0.1586
12845TIP3   OH259949   4.614   5.021   3.673  0.5009  0.3172 -0.2979
12845TIP3    H159950   4.537   5.027   3.616  0.9017  1.7294 -0.7039
12845TIP3    H259951   4.633   5.111   3.698  1.0631 -0.1731  1.1061
12846TIP3   OH259952   6.626   4.935  17.084  0.5040 -0.7885 -0.4232
12846TIP3    H159953   6.546   4.983  17.104  0.7663 -0.0106 -1.2139
12846TIP3    H259954   6.692   5.003  17.070  1.8231 -1.4292  2.2948
12847TIP3   OH259955   1.615   5.627  13.845 -0.3163 -0.4461  0.1320
12847TIP3    H159956   1.695   5.585  13.874  0.6181 -0.5105 -2.4386
12847TIP3    H259957   1.613   5.711  13.891  1.8592  0.0819 -0.7160
12848TIP3   OH259958   2.236   0.017   0.184  0.4568  0.2097  0.4453
12848TIP3    H159959   2.225   0.109   0.209 -0.8339  0.3375 -0.5105
12848TIP3    H259960   2.293   0.020   0.108 -1.6091  0.4746 -1.1597
12849TIP3   OH259961   2.075   5.416   4.669 -0.0653  0.3191  0.3520
12849TIP3    H159962   2.062   5.337   4.616 -1.4979  1.6605 -1.3667
12849TIP3    H259963   2.016   5.405   4.744  1.1670 -1.0942  1.1379
12850TIP3   OH259964   2.468   5.762  12.327  0.6060 -0.3026 -0.3234
12850TIP3    H159965   2.407   5.837  12.325  2.1270  0.9626 -0.2643
12850TIP3    H259966   2.486   5.748  12.420 -1.3311 -2.1330 -0.2077
12851TIP3   OH259967   0.673   2.946  11.137 -0.1629 -0.1357  0.3984
12851TIP3    H159968   0.631   2.882  11.080  0.6246 -1.3220  1.1269
12851TIP3    H259969   0.754   2.969  11.091 -1.1354  1.4594 -0.5646
12852TIP3   OH259970   4.714   2.144   1.391 -0.6415 -0.5351  0.5459
12852TIP3    H159971   4.779   2.154   1.461  0.5255 -0.2683 -0.5549
12852TIP3    H259972   4.735   2.059   1.352  3.2214  2.2716 -3.9517
12853TIP3   OH259973   6.295   0.811  11.334 -0.1103  0.0991  0.1786
12853TIP3    H159974   6.365   0.792  11.397 -1.4865 -0.2026  1.6526
12853TIP3    H259975   6.311   0.750  11.262  1.8621  0.8739 -0.0962
12854TIP3   OH259976   5.949   4.397  10.717 -0.3901  0.1637  0.3927
12854TIP3    H159977   6.032   4.357  10.745 -1.9645 -2.9821  0.6957
12854TIP3    H259978   5.964   4.421  10.626  1.0052  0.1492  0.5943
12855TIP3   OH259979   2.585   3.794  13.921  0.1509  0.6340 -0.2369
12855TIP3    H159980   2.630   3.814  13.839  0.6518  0.6276  0.0295
12855TIP3    H259981   2.635   3.721  13.958 -0.7984 -0.1612 -0.5069
12856TIP3   OH259982   4.976   1.005  10.845  0.1337  0.4889  0.2952
12856TIP3    H159983   4.938   1.054  10.918  0.2693  0.9761  0.0331
12856TIP3    H259984   4.953   1.054  10.767  0.1460  0.0626  0.0208
12857TIP3   OH259985   4.686   3.299  12.019  0.3543  0.1881 -0.2914
12857TIP3    H159986   4.742   3.308  11.943 -0.8142  1.3257 -1.0345
12857TIP3    H259987   4.629   3.376  12.017 -0.5549 -0.4244  0.9962
12858TIP3   OH259988   1.834   3.271   2.862 -0.7166  0.0171 -0.2772
12858TIP3    H159989   1.806   3.182   2.838  0.1019 -0.7334  1.5040
12858TIP3    H259990   1.801   3.283   2.951  1.2978  0.5841  0.3968
12859TIP3   OH259991   0.225   4.159  14.416 -0.4849  0.2013  0.5436
12859TIP3    H159992   0.231   4.128  14.325  0.1676  0.7593  0.3900
12859TIP3    H259993   0.294   4.225  14.423 -2.6129  2.5072  0.5168
12860TIP3   OH259994   0.593   0.077  13.370  0.0472  0.7629 -0.5201
12860TIP3    H159995   0.499   0.091  13.387  0.3204  1.1103  0.7904
12860TIP3    H259996   0.607  -0.015  13.393  0.3846  1.1916  1.0749
12861TIP3   OH259997   3.477   3.642   3.192 -0.6737  0.3030  0.4559
12861TIP3    H159998   3.399   3.598   3.159 -0.5526 -0.9937  1.8720
12861TIP3    H259999   3.548   3.612   3.135 -0.7985 -0.4292  0.6826
12862TIP3   OH260000   1.759   2.706   5.857 -0.5242 -0.1589  0.0337
12862TIP3    H160001   1.850   2.732   5.843 -0.4112  0.0126  1.0296
12862TIP3    H260002   1.708   2.786   5.840 -0.3679  0.1176  0.8284
12863TIP3   OH260003   1.004   1.251  11.372 -0.5466  0.1195  0.2683
12863TIP3    H160004   0.925   1.297  11.400  0.0240 -0.1613  2.5163
12863TIP3    H260005   0.972   1.175  11.323 -1.5329  1.8823 -1.8913
12864TIP3   OH260006   1.976   2.291   4.022  0.3217 -0.4670  0.0387
12864TIP3    H160007   1.970   2.325   3.933  0.1456 -0.7843 -0.0722
12864TIP3    H260008   2.057   2.329   4.056  0.1392  0.0358 -0.0914
12865TIP3   OH260009   4.439   3.305   4.546  0.2579  0.7643 -0.1198
12865TIP3    H160010   4.346   3.323   4.538  0.4381  1.3635 -0.9390
12865TIP3    H260011   4.448   3.263   4.632 -1.0353 -1.1798 -0.9142
12866TIP3   OH260012   4.835   2.069  12.554  0.2596 -0.0451  0.1054
12866TIP3    H160013   4.927   2.057  12.530 -0.1562 -1.3746 -0.8440
12866TIP3    H260014   4.812   1.990  12.604  0.3453  1.4543  2.6491
12867TIP3   OH260015   3.835   4.454   0.502 -0.2710  0.2279  0.3029
12867TIP3    H160016   3.740   4.466   0.512 -0.1641  0.4267  1.0779
12867TIP3    H260017   3.847   4.442   0.408 -1.3638 -2.3591  0.4582
12868TIP3   OH260018   2.639   3.907   0.041 -0.4107 -0.4752 -0.3151
12868TIP3    H160019   2.606   3.818   0.054 -1.2831 -0.0552  0.3847
12868TIP3    H260020   2.566   3.954   0.001 -0.5141  0.3478  0.8277
12869TIP3   OH260021   5.499   5.136   5.105  0.2581  0.4616 -0.1638
12869TIP3    H160022   5.515   5.045   5.133  0.0541 -0.0630 -1.6949
12869TIP3    H260023   5.420   5.162   5.153 -0.4781 -0.6572 -0.7429
12870TIP3   OH260024   4.590   0.165   3.169  0.2582  0.2513  0.0005
12870TIP3    H160025   4.559   0.076   3.151  0.1417  0.1267  0.8204
12870TIP3    H260026   4.684   0.163   3.151 -0.1171  0.5388 -2.1663
12871TIP3   OH260027   3.806   5.471  16.781 -0.1664  0.5808  0.4216
12871TIP3    H160028   3.826   5.543  16.721  0.8686 -0.0120  0.0414
12871TIP3    H260029   3.718   5.443  16.757  0.3199  0.2167 -0.9517
12872TIP3   OH260030   4.911   1.492  13.179  0.2452  0.0316  0.4871
12872TIP3    H160031   4.879   1.521  13.265  0.5905 -1.2389  1.0588
12872TIP3    H260032   4.927   1.573  13.131 -0.9416  0.7342  1.2559
12873TIP3   OH260033   1.969   0.239  11.160 -0.2440  0.4407 -0.2666
12873TIP3    H160034   1.974   0.227  11.255 -1.3748 -0.9711 -0.3727
12873TIP3    H260035   1.934   0.327  11.149 -3.6349 -0.7129  0.6908
12874TIP3   OH260036   3.743   0.223   4.705 -0.1784  0.2576 -0.5721
12874TIP3    H160037   3.761   0.203   4.797 -1.9297  0.8652 -0.0848
12874TIP3    H260038   3.706   0.142   4.670  2.7447 -0.7933 -1.4197
12875TIP3   OH260039   6.110   3.394  11.932  0.0416 -0.2302  0.0474
12875TIP3    H160040   6.145   3.309  11.958 -0.2624  0.1006  1.5788
12875TIP3    H260041   6.185   3.454  11.937  0.3151 -0.4362 -1.2786
12876TIP3   OH260042   5.882   4.044   5.884 -0.3734  0.8606 -0.2763
12876TIP3    H160043   5.958   3.991   5.910 -0.9204 -0.4186 -1.2268
12876TIP3    H260044   5.882   4.117   5.945  0.9384  0.2464  0.4874
12877TIP3   OH260045   4.906   1.382  13.838 -0.1801  0.4825  0.6448
12877TIP3    H160046   4.969   1.331  13.788 -1.6280 -1.7864  1.0815
12877TIP3    H260047   4.945   1.389  13.925  1.1566  2.2718 -0.0593
12878TIP3   OH260048   5.594   3.720   6.450  0.7665 -0.2174  0.8214
12878TIP3    H160049   5.633   3.807   6.463  0.4696  0.2059 -0.9909
12878TIP3    H260050   5.653   3.675   6.391 -0.5948 -0.1731 -0.6119
12879TIP3   OH260051   1.320   1.475  16.507  0.6652  0.0689  0.6522
12879TIP3    H160052   1.279   1.560  16.491 -0.9520 -1.1562 -2.2192
12879TIP3    H260053   1.253   1.424  16.551  1.1374 -0.1530  1.1149
12880TIP3   OH260054   1.769   5.406  15.070  0.1733 -0.6953 -0.2736
12880TIP3    H160055   1.847   5.374  15.025  1.2711  0.7134  0.5826
12880TIP3    H260056   1.724   5.459  15.004  2.4742  2.4770  0.6133
12881TIP3   OH260057   0.512   1.576  12.251 -0.5524 -0.1694  0.2173
12881TIP3    H160058   0.439   1.580  12.312 -1.4012  0.2531 -0.8106
12881TIP3    H260059   0.485   1.512  12.185 -1.4269  2.3478 -1.9703
12882TIP3   OH260060   2.011   5.211  14.349  0.5265 -0.0407  0.0972
12882TIP3    H160061   1.960   5.145  14.395  0.1006  1.2033  1.4308
12882TIP3    H260062   1.964   5.224  14.266 -1.7804  1.6216  1.6110
12883TIP3   OH260063   0.164   0.480   0.312  0.0902 -0.0578  0.2958
12883TIP3    H160064   0.253   0.461   0.282  0.5796 -2.0898  2.8495
12883TIP3    H260065   0.176   0.525   0.396 -1.2718  1.5084 -0.3341
12884TIP3   OH260066   5.527   0.885   4.709  0.4449  0.1789 -0.3415
12884TIP3    H160067   5.615   0.852   4.726  0.6318  0.4761 -0.7147
12884TIP3    H260068   5.496   0.835   4.634  0.7527  0.8857 -0.9455
12885TIP3   OH260069   5.318   1.886   5.416 -0.6260 -0.3135 -0.2754
12885TIP3    H160070   5.363   1.944   5.355 -0.6408  1.0499  0.9599
12885TIP3    H260071   5.348   1.798   5.394  2.4215  0.5245  0.3033
12886TIP3   OH260072   3.616   0.951  16.628 -0.5332 -0.4339 -0.0340
12886TIP3    H160073   3.561   1.013  16.677 -1.7929 -0.5420 -1.2665
12886TIP3    H260074   3.694   0.939  16.683 -1.7955 -0.3751  1.8409
12887TIP3   OH260075   2.312   6.498  17.130 -0.1449  0.6296 -0.0594
12887TIP3    H160076   2.365   6.427  17.095  0.0469 -0.1105  1.6680
12887TIP3    H260077   2.224   6.461  17.136 -0.3298  1.0026 -0.4888
12888TIP3   OH260078   0.806   6.215   3.651 -0.0881 -0.1431  0.0521
12888TIP3    H160079   0.897   6.222   3.681  0.0069  0.0595 -0.2704
12888TIP3    H260080   0.765   6.154   3.711  0.2623 -0.2257  0.2085
12889TIP3   OH260081   4.265   5.897   0.924 -0.8608 -0.3276 -0.3056
12889TIP3    H160082   4.300   5.857   1.004 -2.3789  0.4670  0.7847
12889TIP3    H260083   4.327   5.967   0.904  0.0453 -1.1315 -0.3818
12890TIP3   OH260084   5.856   2.887  15.528  0.2822 -0.4333  0.2892
12890TIP3    H160085   5.896   2.964  15.488 -0.2464  0.1367  0.8380
12890TIP3    H260086   5.905   2.874  15.609  0.1163 -0.4259  0.3922
12891TIP3   OH260087   4.949   1.055  12.850  0.2414  0.2286 -0.3396
12891TIP3    H160088   4.873   1.012  12.812 -0.8778  0.5538  1.4628
12891TIP3    H260089   5.021   0.992  12.839 -1.1989 -1.8285  1.5313
12892TIP3   OH260090   4.337   2.044  12.477  0.2839 -1.1285 -0.5507
12892TIP3    H160091   4.422   2.089  12.473 -0.2932  0.2711  1.7702
12892TIP3    H260092   4.353   1.967  12.531 -0.0636 -0.4737  0.5024
12893TIP3   OH260093   6.457   1.772   5.897 -0.0679  0.0217  0.1896
12893TIP3    H160094   6.476   1.762   5.991  0.9627 -1.5685 -0.1628
12893TIP3    H260095   6.371   1.733   5.886 -0.4154  0.6840  0.5707
12894TIP3   OH260096   6.650   0.630   3.987 -0.2567 -0.6535 -0.5927
12894TIP3    H160097   6.693   0.669   3.910 -0.9783 -0.4962 -0.9209
12894TIP3    H260098   6.572   0.587   3.951 -0.9217 -0.0623  0.1271
12895TIP3   OH260099   3.535   6.430  11.973  0.1669  0.2239 -0.2624
12895TIP3    H160100   3.612   6.485  11.961  0.0132  0.4320 -0.3006
12895TIP3    H260101   3.461   6.491  11.971 -0.0233 -0.0128 -0.5649
12896TIP3   OH260102   4.110   5.225   4.096  0.0420 -0.2807 -0.0300
12896TIP3    H160103   4.162   5.147   4.115 -1.7835 -1.1557  1.5990
12896TIP3    H260104   4.069   5.208   4.012 -0.4002 -1.1319  0.3520
12897TIP3   OH260105   5.609   5.301   2.176  0.1002 -0.5132  0.2422
12897TIP3    H160106   5.704   5.308   2.161  0.2478 -1.0571  0.9589
12897TIP3    H260107   5.586   5.382   2.222  0.3903 -0.8766  1.0129
12898TIP3   OH260108   4.250   4.174  14.625 -0.0130  0.0817  0.1382
12898TIP3    H160109   4.214   4.093  14.588 -0.6644 -0.0236  0.9844
12898TIP3    H260110   4.266   4.153  14.717  0.3790  0.7373  0.2206
12899TIP3   OH260111   6.635   0.620   5.482 -0.2639  0.8529 -0.2205
12899TIP3    H160112   6.561   0.562   5.500  0.0842  0.6317  0.5220
12899TIP3    H260113   6.708   0.560   5.466  0.2231  1.0762  1.0731
12900TIP3   OH260114   2.186   3.933   3.571 -0.6271  0.2761 -0.0164
12900TIP3    H160115   2.174   4.028   3.572  0.2884  0.4247  3.2256
12900TIP3    H260116   2.264   3.919   3.518  0.2651  1.5109  0.9437
12901TIP3   OH260117   4.642   3.630   4.313  0.1633  0.1364  0.0273
12901TIP3    H160118   4.567   3.629   4.254 -0.6281 -1.2349  1.0197
12901TIP3    H260119   4.631   3.710   4.364 -1.2476 -0.5936  0.9152
12902TIP3   OH260120   6.623   4.505   1.471 -0.1329 -0.3269  0.1534
12902TIP3    H160121   6.656   4.440   1.534  1.4243  0.7284  0.4772
12902TIP3    H260122   6.701   4.554   1.445 -0.6083 -1.2217 -3.2165
12903TIP3   OH260123   6.378   0.299  16.847 -0.4975  0.0509 -0.2705
12903TIP3    H160124   6.314   0.262  16.787  0.5257 -1.1364 -0.6545
12903TIP3    H260125   6.360   0.393  16.847 -2.1002 -0.2444 -0.5165
12904TIP3   OH260126   0.076   1.368   5.127 -0.1858 -0.3514 -0.6103
12904TIP3    H160127   0.009   1.403   5.186 -0.4312 -0.6641 -0.7046
12904TIP3    H260128   0.130   1.444   5.105  0.0710 -0.2858  0.2351
12905TIP3   OH260129   5.297   4.108   5.728  0.2861  0.1250 -0.1613
12905TIP3    H160130   5.333   4.020   5.727  0.6204  0.2574  0.0633
12905TIP3    H260131   5.353   4.157   5.667 -0.4800 -0.0435 -1.0056
12906TIP3   OH260132   4.467   5.986   3.405 -0.2522 -0.1120 -0.1703
12906TIP3    H160133   4.504   6.036   3.478 -1.6614  1.4134 -0.4835
12906TIP3    H260134   4.522   6.010   3.330  0.0836 -0.3016  0.0118
12907TIP3   OH260135   1.395   2.266   3.363  0.5622 -0.3237 -0.4114
12907TIP3    H160136   1.490   2.255   3.376  0.7505  0.2448 -1.2694
12907TIP3    H260137   1.382   2.361   3.368  0.2584 -0.2899 -1.7657
12908TIP3   OH260138   0.093   4.071  11.033  0.5657  0.1683  0.3706
12908TIP3    H160139   0.058   4.124  10.963  1.5331  0.4168  0.0628
12908TIP3    H260140   0.057   3.984  11.019  0.3771  0.3338 -0.1486
12909TIP3   OH260141   1.572   0.500  11.901 -0.9993 -0.2938  0.2075
12909TIP3    H160142   1.579   0.438  11.828 -0.2568 -0.4220  0.3893
12909TIP3    H260143   1.630   0.465  11.969 -0.2587  0.7983  0.1579
12910TIP3   OH260144   2.169   3.775  13.683 -0.6301 -0.0066  0.0313
12910TIP3    H160145   2.233   3.750  13.749 -0.4002  0.8619  0.1437
12910TIP3    H260146   2.204   3.856  13.645 -2.3991  1.3438  1.1697
12911TIP3   OH260147   5.442   4.613   1.854  0.5013 -0.2680 -0.0287
12911TIP3    H160148   5.521   4.632   1.905  0.7399  0.7949 -0.7564
12911TIP3    H260149   5.407   4.700   1.832 -1.0551 -0.7412  0.5691
12912TIP3   OH260150   0.442   1.630  16.017 -0.4101  0.4292  0.4164
12912TIP3    H160151   0.465   1.616  15.925 -0.3826  1.7567  0.2054
12912TIP3    H260152   0.516   1.679  16.053 -0.7133  0.4829  0.9701
12913TIP3   OH260153   4.420   6.736  10.951  0.0252  0.2757  0.4112
12913TIP3    H160154   4.369   6.815  10.938  3.0446  2.0678 -1.0274
12913TIP3    H260155   4.426   6.696  10.864 -2.2702 -2.1192  1.2693
12914TIP3   OH260156   5.070   1.117  17.201  0.0362  0.1330 -0.2717
12914TIP3    H160157   5.066   1.213  17.210 -1.6249 -0.0025  0.6788
12914TIP3    H260158   5.160   1.095  17.227  0.6778  1.5007 -1.2538
12915TIP3   OH260159   5.102   0.446  11.336 -0.2258  0.0050  0.0529
12915TIP3    H160160   5.035   0.456  11.268  0.9598  2.7646 -0.7808
12915TIP3    H260161   5.141   0.360  11.319 -1.1133 -0.0807 -1.6767
12916TIP3   OH260162   6.666   1.605  14.657 -0.0479 -0.1669 -0.2695
12916TIP3    H160163   6.715   1.549  14.597  1.5001  0.2486  0.5767
12916TIP3    H260164   6.678   1.564  14.743  0.5530  1.0854  0.2561
12917TIP3   OH260165   1.512   2.787  16.213 -0.9041 -0.4701  0.2263
12917TIP3    H160166   1.417   2.788  16.199 -0.9661 -1.4479  0.5479
12917TIP3    H260167   1.545   2.730  16.143 -0.7567 -1.7395  1.3243
12918TIP3   OH260168   0.788   2.272   3.507  0.1324  0.4882 -0.0393
12918TIP3    H160169   0.762   2.198   3.562 -0.1387 -0.1079 -0.9476
12918TIP3    H260170   0.710   2.327   3.504  0.7635  1.5102  1.7376
12919TIP3   OH260171   0.098   1.024   2.835  0.1556 -0.2714  0.1825
12919TIP3    H160172   0.166   0.970   2.876  0.8847  2.1002  2.2228
12919TIP3    H260173   0.136   1.053   2.753  2.2940  2.3334  2.0357
12920TIP3   OH260174   3.333   6.452  14.790  0.3892 -0.5853 -0.0975
12920TIP3    H160175   3.334   6.357  14.789 -0.5604 -0.5920 -1.0319
12920TIP3    H260176   3.264   6.476  14.728  1.7107  0.7249 -1.1049
12921TIP3   OH260177   6.776   0.576  16.113 -0.1034 -0.3853  0.3547
12921TIP3    H160178   6.681   0.575  16.097  0.1477  0.9422 -1.3132
12921TIP3    H260179   6.804   0.485  16.100 -1.1523 -0.8278  1.0572
12922TIP3   OH260180   2.134   1.103   2.030  0.0865  0.4501  0.8347
12922TIP3    H160181   2.180   1.026   1.994  0.1443  1.0136 -0.3272
12922TIP3    H260182   2.175   1.119   2.114  1.3571  0.3417  0.2423
12923TIP3   OH260183   1.063   4.270  14.267 -0.3095 -0.0206  0.2104
12923TIP3    H160184   1.024   4.194  14.223 -1.2054  1.3397 -1.3892
12923TIP3    H260185   1.028   4.346  14.221  1.6739  1.3549  0.8837
12924TIP3   OH260186   6.165   2.478  14.794  0.1801  0.4483  0.6666
12924TIP3    H160187   6.105   2.433  14.735  2.4351 -1.7045 -0.0580
12924TIP3    H260188   6.221   2.529  14.736 -0.5070  1.9481  1.2961
12925TIP3   OH260189   5.672   3.739  13.269  0.1759 -0.0254  0.5141
12925TIP3    H160190   5.590   3.693  13.250  0.4379 -1.8575  3.5936
12925TIP3    H260191   5.644   3.824  13.303 -0.4632 -0.8918  2.1667
12926TIP3   OH260192   2.505   0.204   5.179  0.2630 -0.2993 -0.3194
12926TIP3    H160193   2.484   0.283   5.130  0.0967  0.7775  1.4548
12926TIP3    H260194   2.596   0.216   5.206 -0.9296  1.1966  3.3793
12927TIP3   OH260195   2.479   0.335  15.726  0.3187 -0.4781  0.5350
12927TIP3    H160196   2.507   0.260  15.779  0.1178 -0.4852  0.6308
12927TIP3    H260197   2.472   0.407  15.788 -2.2533 -1.0518  0.9504
12928TIP3   OH260198   5.445   3.615   5.664  0.2245 -0.2175  0.1363
12928TIP3    H160199   5.401   3.546   5.714  1.0799 -0.6927  0.2512
12928TIP3    H260200   5.538   3.604   5.685  0.6062 -0.4717 -1.6156
12929TIP3   OH260201   2.215   0.970  12.608  0.5337  0.0321 -0.1095
12929TIP3    H160202   2.120   0.970  12.620  0.3242  0.2476 -1.6837
12929TIP3    H260203   2.243   0.883  12.636 -0.0673  0.1274  0.8024
12930TIP3   OH260204   4.194   5.817  14.772 -0.3736 -0.1706 -0.3566
12930TIP3    H160205   4.197   5.728  14.737  2.2590  0.4559 -1.7933
12930TIP3    H260206   4.138   5.865  14.711  3.1597  0.6021 -3.1531
12931TIP3   OH260207   4.775   0.557   4.725  0.0014  0.5940 -0.0591
12931TIP3    H160208   4.792   0.650   4.744  2.0176  0.1577  0.3371
12931TIP3    H260209   4.763   0.518   4.812 -2.0254  0.6808 -0.2769
12932TIP3   OH260210   5.347   6.112  14.262  0.6582 -0.4056  0.1768
12932TIP3    H160211   5.264   6.066  14.273  0.9171 -0.8323  0.3452
12932TIP3    H260212   5.327   6.203  14.282  0.3725 -0.6141  0.8480
12933TIP3   OH260213   4.396   3.955  11.586 -0.6792 -0.0347  0.9726
12933TIP3    H160214   4.338   4.030  11.597 -1.0776 -0.3201  0.8475
12933TIP3    H260215   4.460   3.983  11.520  0.6702  1.0636  2.7029
12934TIP3   OH260216   2.062   1.260  16.990 -0.5996  0.6631 -0.0730
12934TIP3    H160217   2.139   1.315  16.971 -0.2560 -0.1246 -1.0110
12934TIP3    H260218   2.031   1.291  17.075  1.5264  0.1518  0.9347
12935TIP3   OH260219   5.558   4.912  13.089  0.7902 -0.4065 -0.4227
12935TIP3    H160220   5.488   4.878  13.145  0.8117 -1.4489 -1.0173
12935TIP3    H260221   5.518   4.985  13.042  0.4431 -0.2559  0.1078
12936TIP3   OH260222   2.440   2.682  16.388  0.0783 -0.4201  0.8631
12936TIP3    H160223   2.427   2.712  16.298 -0.3387  0.3545  1.1804
12936TIP3    H260224   2.532   2.656  16.391  0.5267  1.0993  0.6688
12937TIP3   OH260225   1.075   3.785  10.857 -0.0177  0.2317 -0.3441
12937TIP3    H160226   0.989   3.826  10.867 -0.8835 -1.6170  0.0687
12937TIP3    H260227   1.063   3.695  10.888  2.1218 -0.0056 -0.0828
12938TIP3   OH260228   0.029   1.380   3.188 -1.3330 -0.9106  0.1846
12938TIP3    H160229   0.054   1.467   3.157  1.2594 -1.3508  0.9223
12938TIP3    H260230  -0.013   1.339   3.112  1.8860 -0.7638 -1.7597
12939TIP3   OH260231   3.287   2.272  14.568  0.9491  1.0227 -0.0407
12939TIP3    H160232   3.229   2.343  14.595  0.9997  0.3019  2.0539
12939TIP3    H260233   3.229   2.200  14.545  0.9149  1.5472 -1.6397
12940TIP3   OH260234   4.244   4.316   3.796  0.7325  0.3826  0.3458
12940TIP3    H160235   4.290   4.385   3.749  1.2256 -1.0400 -1.3206
12940TIP3    H260236   4.314   4.267   3.841  0.8554 -1.3799 -1.6603
12941TIP3   OH260237   3.076   0.475  12.621  0.1384 -0.0582 -0.1161
12941TIP3    H160238   3.136   0.547  12.604  0.4717 -0.7167 -1.8994
12941TIP3    H260239   3.095   0.411  12.552 -0.3667 -1.7103  1.2327
12942TIP3   OH260240   0.682   0.943   5.979  0.1171 -0.5119  0.3552
12942TIP3    H160241   0.732   0.915   5.903  1.8798  1.5936  0.7203
12942TIP3    H260242   0.744   0.941   6.052 -0.4352  1.5638  0.9278
12943TIP3   OH260243   5.197   6.618  16.675 -0.1718  0.1348  0.1027
12943TIP3    H160244   5.237   6.539  16.712  1.1320  0.6992 -0.0747
12943TIP3    H260245   5.126   6.639  16.735  0.6211 -0.1420  1.1609
12944TIP3   OH260246   2.423   6.384   2.135  0.0397 -0.2744 -0.3090
12944TIP3    H160247   2.512   6.365   2.164  0.0513  0.8018  0.3921
12944TIP3    H260248   2.377   6.411   2.215 -1.0347 -1.2384 -0.5830
12945TIP3   OH260249   3.353   1.022   1.090 -0.3007  0.4810  0.1302
12945TIP3    H160250   3.322   1.100   1.045  0.4601 -0.4026 -2.0116
12945TIP3    H260251   3.412   1.055   1.157 -0.7799  1.8002 -0.0767
12946TIP3   OH260252   6.279   0.989  12.774 -0.3254  0.0980 -0.0444
12946TIP3    H160253   6.233   1.018  12.853 -1.6476 -1.9884 -0.0076
12946TIP3    H260254   6.212   0.990  12.706  0.3012 -0.1441 -0.6679
12947TIP3   OH260255   0.385   0.854  11.754  0.1330  0.5753 -0.2714
12947TIP3    H160256   0.384   0.875  11.661  3.2673  1.0459 -0.2507
12947TIP3    H260257   0.440   0.775  11.760  0.0140  0.5880  1.1692
12948TIP3   OH260258   3.450   3.825   2.328 -0.2105  0.0339 -0.3531
12948TIP3    H160259   3.497   3.891   2.380  1.6390 -2.3992  1.1568
12948TIP3    H260260   3.383   3.791   2.387 -0.5425 -0.1121 -0.8102
12949TIP3   OH260261   6.298   0.096  11.968  0.2664 -0.7674  0.0761
12949TIP3    H160262   6.360   0.167  11.950 -1.4731  0.5338 -0.9567
12949TIP3    H260263   6.308   0.037  11.894 -1.9579  1.0754 -1.7681
12950TIP3   OH260264   2.748   5.961  11.690  0.2960  0.0153  0.2532
12950TIP3    H160265   2.782   5.875  11.710 -0.4346 -0.6825 -1.3822
12950TIP3    H260266   2.758   5.970  11.595 -3.2915  0.0518 -0.2107
12951TIP3   OH260267   3.030   4.287   2.144  0.2467 -0.4339 -0.6034
12951TIP3    H160268   3.083   4.365   2.126  1.8494 -1.2404  0.4148
12951TIP3    H260269   2.940   4.313   2.124  1.1178  0.7285 -3.1554
12952TIP3   OH260270   0.707   5.579  16.161 -0.3219 -0.0514  0.5943
12952TIP3    H160271   0.775   5.521  16.197 -0.1404 -0.3989 -0.2909
12952TIP3    H260272   0.660   5.524  16.099  0.0534  0.8425 -0.4977
12953TIP3   OH260273   3.959   6.179   4.341 -0.7486 -0.0497 -0.0571
12953TIP3    H160274   3.906   6.257   4.356 -1.0373 -0.1404 -0.5963
12953TIP3    H260275   3.949   6.127   4.421 -2.3945 -0.5988 -0.5891
12954TIP3   OH260276   5.343   6.029  17.236  0.1633  0.2470 -0.0922
12954TIP3    H160277   5.343   5.956  17.173  2.2827  0.7157 -0.6656
12954TIP3    H260278   5.284   6.000  17.306 -0.3585 -1.2889 -1.1354
12955TIP3   OH260279   1.266   4.423   4.874 -0.5585  0.4515 -0.0005
12955TIP3    H160280   1.285   4.514   4.897  1.1915  0.0715  0.1667
12955TIP3    H260281   1.267   4.376   4.957  0.8476 -0.0870 -0.3022
12956TIP3   OH260282   4.213   6.360   2.176  0.0137 -0.0853  0.2254
12956TIP3    H160283   4.271   6.301   2.128 -0.1682  0.5571 -0.8014
12956TIP3    H260284   4.125   6.332   2.151 -0.0710  0.6633 -0.3155
12957TIP3   OH260285   6.662   5.572  14.976  0.5856  0.0419  0.1904
12957TIP3    H160286   6.603   5.557  14.901  0.2930 -0.1612  0.4627
12957TIP3    H260287   6.619   5.642  15.026 -0.2446 -1.2292  1.2664
12958TIP3   OH260288   0.380   4.585   2.829 -0.6772 -0.2500  0.0703
12958TIP3    H160289   0.409   4.676   2.830 -1.2793 -0.0515 -0.1689
12958TIP3    H260290   0.354   4.569   2.738  0.4092 -0.9807 -0.1234
12959TIP3   OH260291   6.415   6.684   5.668  0.0068 -0.0855 -0.0331
12959TIP3    H160292   6.482   6.641   5.615 -1.9955 -1.3899 -1.6036
12959TIP3    H260293   6.356   6.723   5.604 -0.9393  0.6947  1.2977
12960TIP3   OH260294   5.964   5.847   4.917 -0.0213  0.0493  0.2546
12960TIP3    H160295   5.994   5.935   4.894  0.6193 -0.4100 -0.6691
12960TIP3    H260296   5.897   5.862   4.984 -1.1313  1.3283 -1.1046
12961TIP3   OH260297   2.806   4.671   1.616  0.2233  0.2944  0.1714
12961TIP3    H160298   2.740   4.730   1.654 -1.0956 -1.0323  0.0087
12961TIP3    H260299   2.792   4.588   1.661  0.8611 -0.3970 -0.8761
12962TIP3   OH260300   3.103   5.820   1.939  0.3730  0.3997 -0.2010
12962TIP3    H160301   3.041   5.834   2.010 -0.1078 -0.5067 -0.4363
12962TIP3    H260302   3.152   5.902   1.933 -0.8950  1.1700 -0.1158
12963TIP3   OH260303   1.069   2.884  11.085  0.2099 -0.2023 -0.1497
12963TIP3    H160304   1.005   2.907  11.018  0.4311 -3.1423 -1.4830
12963TIP3    H260305   1.122   2.963  11.097 -0.6337  0.7592 -2.5574
12964TIP3   OH260306   0.804   1.210  16.630  0.5091 -0.3546 -0.5629
12964TIP3    H160307   0.747   1.287  16.628  0.4385 -0.3854  0.0506
12964TIP3    H260308   0.792   1.168  16.545  0.3839  0.1946 -0.8134
12965TIP3   OH260309   0.405   1.568  15.539  0.6871 -0.0982 -0.1047
12965TIP3    H160310   0.332   1.512  15.511  0.7637  0.1610 -0.8337
12965TIP3    H260311   0.477   1.507  15.557  0.0215 -0.4348  1.5165
12966TIP3   OH260312   3.154   1.700  13.807 -0.7516 -0.8379 -0.0322
12966TIP3    H160313   3.230   1.643  13.801 -2.4370 -3.3367  1.6025
12966TIP3    H260314   3.085   1.655  13.758 -1.3389  1.1906 -1.1676
12967TIP3   OH260315   0.944   6.689  13.391 -0.4269 -0.5758  0.5852
12967TIP3    H160316   0.968   6.597  13.400 -0.2396 -0.6548 -0.5545
12967TIP3    H260317   0.878   6.704  13.458 -0.9777 -1.7288  0.3123
12968TIP3   OH260318   5.335   4.904   3.491  0.0889  0.1420 -0.2608
12968TIP3    H160319   5.375   4.955   3.561  0.8903 -0.5631 -0.1946
12968TIP3    H260320   5.247   4.941   3.481  0.7613  1.7154 -0.4213
12969TIP3   OH260321   0.553   5.803  15.036  0.2683 -0.2219  0.2774
12969TIP3    H160322   0.584   5.811  15.126  0.1847  0.1612  0.2747
12969TIP3    H260323   0.588   5.880  14.991 -0.5375  0.1235  0.2334
12970TIP3   OH260324   3.618   0.567   3.904  0.3994 -0.2034 -0.2033
12970TIP3    H160325   3.609   0.493   3.964  0.7834 -0.6690 -0.7147
12970TIP3    H260326   3.676   0.535   3.835 -1.8649 -0.4415 -2.0653
12971TIP3   OH260327   2.740   2.075  13.992 -0.4690  0.0175  0.0644
12971TIP3    H160328   2.734   2.119  14.077  1.3446 -1.1745  0.8271
12971TIP3    H260329   2.833   2.058  13.980 -0.7822 -0.4755 -1.8434
12972TIP3   OH260330   5.989   1.115  16.035 -0.1175 -0.0138 -0.0360
12972TIP3    H160331   5.899   1.083  16.043 -0.2159  0.7267  2.0147
12972TIP3    H260332   6.039   1.060  16.095  0.6908  0.0500 -0.6415
12973TIP3   OH260333   0.711   6.326   6.258  0.1120  0.4831  0.1115
12973TIP3    H160334   0.728   6.419   6.243 -0.7289  0.5650 -0.3148
12973TIP3    H260335   0.763   6.305   6.336  0.6466  1.2010 -0.0436
12974TIP3   OH260336   3.309   4.482  14.013 -0.6139 -0.2444  0.4983
12974TIP3    H160337   3.359   4.516  14.087  0.6000 -1.1417  0.0985
12974TIP3    H260338   3.375   4.450  13.951 -1.6543 -0.8403 -0.3288
12975TIP3   OH260339   1.095   3.956  13.166  0.0679  0.1140 -0.1236
12975TIP3    H160340   1.052   4.039  13.144  0.6599  0.6021  0.5650
12975TIP3    H260341   1.047   3.923  13.242  0.4739  0.3261  0.2272
12976TIP3   OH260342   6.322   1.162  15.029 -0.1082 -0.4739  0.3382
12976TIP3    H160343   6.401   1.112  15.050  1.6015  2.2249  0.6252
12976TIP3    H260344   6.327   1.177  14.935  0.5158  0.9405  0.5806
12977TIP3   OH260345   1.927   2.541  11.132  0.1971  0.7115  0.1039
12977TIP3    H160346   1.844   2.506  11.165 -0.2578  0.1243 -1.5876
12977TIP3    H260347   1.989   2.526  11.203 -0.5927 -1.1554  0.4406
12978TIP3   OH260348   5.109   4.113  15.111 -0.3003 -0.6998 -0.2356
12978TIP3    H160349   5.091   4.036  15.165 -4.8121  0.6089  0.2776
12978TIP3    H260350   5.150   4.175  15.172  0.5351 -1.5685  0.1002
12979TIP3   OH260351   2.777   4.399   3.720  0.2810 -0.1645  0.3472
12979TIP3    H160352   2.808   4.487   3.741  0.4120 -0.1883  0.2515
12979TIP3    H260353   2.682   4.408   3.712  0.0630 -0.4329  2.4177
12980TIP3   OH260354   4.159   0.842   3.109 -0.1381 -0.2499  0.0057
12980TIP3    H160355   4.194   0.753   3.118  1.7367  0.2572 -1.8728
12980TIP3    H260356   4.072   0.838   3.148  0.6224 -2.4658  1.5545
12981TIP3   OH260357   4.376   5.529  13.664  0.0028  0.3595  0.6126
12981TIP3    H160358   4.331   5.591  13.722 -3.0326  0.7957 -2.0585
12981TIP3    H260359   4.415   5.583  13.596 -0.6291 -0.4879 -0.4363
12982TIP3   OH260360   5.266   1.308  14.260  0.5060 -0.3195 -0.2816
12982TIP3    H160361   5.309   1.224  14.244  0.7478 -0.1084 -0.7328
12982TIP3    H260362   5.328   1.356  14.316  0.2460 -0.5476  0.2045
12983TIP3   OH260363   4.690   3.364  15.783  0.3007 -0.0982 -1.0031
12983TIP3    H160364   4.687   3.275  15.818  3.2738  0.0371 -0.2917
12983TIP3    H260365   4.666   3.420  15.857 -1.3107 -0.2725 -1.3805
12984TIP3   OH260366   2.580   5.683  16.949 -0.3221  0.4488 -0.3281
12984TIP3    H160367   2.593   5.744  16.877 -0.2053  0.7361 -0.0631
12984TIP3    H260368   2.647   5.706  17.013 -0.7937  0.5744  0.1233
12985TIP3   OH260369   0.693   1.301   1.627 -0.4770 -0.5248  0.3582
12985TIP3    H160370   0.679   1.262   1.714 -4.2091 -0.3715 -0.0913
12985TIP3    H260371   0.663   1.392   1.637 -0.2986 -0.3198 -0.9206
12986TIP3   OH260372   3.207   5.191  15.405 -0.1428  0.0146  0.4555
12986TIP3    H160373   3.272   5.190  15.476  0.6401 -0.0328 -0.2564
12986TIP3    H260374   3.259   5.187  15.325 -0.8859  2.6613 -0.2194
12987TIP3   OH260375   6.490   3.033  11.469  0.3285 -0.2590  0.0362
12987TIP3    H160376   6.407   2.988  11.451 -0.4029  0.9468  0.3821
12987TIP3    H260377   6.547   3.005  11.397 -0.8947  0.2140 -1.1526
12988TIP3   OH260378   6.302   0.648   3.868 -0.0444 -1.1353  0.2739
12988TIP3    H160379   6.298   0.616   3.958 -1.2679 -0.1895  0.5715
12988TIP3    H260380   6.314   0.569   3.815  1.5367 -1.6128  1.3131
12989TIP3   OH260381   5.293   2.342   4.909 -0.4570 -0.0871 -0.0909
12989TIP3    H160382   5.209   2.332   4.864  0.1410  0.9432 -1.4994
12989TIP3    H260383   5.335   2.415   4.863  0.1750  1.0041  2.1741
12990TIP3   OH260384   6.223   2.929  11.454  0.1763 -0.5972 -0.4980
12990TIP3    H160385   6.149   2.986  11.435 -0.9805 -1.7048  0.6574
12990TIP3    H260386   6.185   2.841  11.462  1.7866 -1.3852 -1.1962
12991TIP3   OH260387   4.388   3.474  15.841  0.4991  0.4023 -0.3020
12991TIP3    H160388   4.409   3.390  15.880  0.1437 -0.1656 -1.3028
12991TIP3    H260389   4.334   3.452  15.765 -0.7120  1.6118  0.1982
12992TIP3   OH260390   4.582   3.621   2.674  0.7141  0.3183  0.2499
12992TIP3    H160391   4.601   3.589   2.763  0.2347  0.6270  0.4649
12992TIP3    H260392   4.529   3.552   2.634  4.3698 -1.7441 -1.2454
12993TIP3   OH260393   2.656   5.107  12.422 -0.1211 -0.3694  0.3610
12993TIP3    H160394   2.747   5.084  12.405  0.1351  0.9687 -0.1956
12993TIP3    H260395   2.655   5.141  12.511  0.3974  1.8255 -0.4254
12994TIP3   OH260396   1.580   4.657  16.541  0.1616 -0.5183 -0.2310
12994TIP3    H160397   1.608   4.635  16.630  0.3233  0.3105 -0.0747
12994TIP3    H260398   1.559   4.572  16.501  1.6336 -1.0430  0.0750
12995TIP3   OH260399   1.935   6.509  14.092 -0.6596 -0.4752 -0.7626
12995TIP3    H160400   1.963   6.552  14.011 -1.6200  1.2461 -0.1952
12995TIP3    H260401   1.986   6.551  14.160 -2.3401  0.5060 -0.0810
12996TIP3   OH260402   2.841   3.009   3.417 -1.0042  0.5804  0.3375
12996TIP3    H160403   2.748   3.033   3.415 -1.4063 -1.0160 -0.5772
12996TIP3    H260404   2.842   2.919   3.450  0.1360  0.2076 -0.6806
12997TIP3   OH260405   3.620   1.642   2.922 -0.0269  0.2082 -0.0161
12997TIP3    H160406   3.691   1.646   2.858 -1.1945 -0.1767 -1.3416
12997TIP3    H260407   3.660   1.675   3.003  1.3033  1.1995 -1.0507
12998TIP3   OH260408   2.293   5.388   5.313 -0.2668  0.3307  1.0933
12998TIP3    H160409   2.289   5.483   5.306  0.4575  0.3896  1.4569
12998TIP3    H260410   2.373   5.371   5.364  0.5303 -0.5443 -0.4300
12999TIP3   OH260411   0.071   6.678   5.770 -0.1231 -0.2553  0.1746
12999TIP3    H160412   0.158   6.642   5.787  1.3119  2.7175 -0.5678
12999TIP3    H260413   0.054   6.657   5.679  0.4520  0.4019 -0.0896
13000TIP3   OH260414   5.302   2.346  16.882  0.1451 -0.2486 -0.1679
13000TIP3    H160415   5.251   2.293  16.820  0.1641 -0.2468 -0.1845
13000TIP3    H260416   5.280   2.437  16.859 -0.7853 -0.2642  0.6134
13001TIP3   OH260417   3.382   4.540   2.398 -0.3665  0.1921  0.4943
13001TIP3    H160418   3.462   4.489   2.382  0.1255  0.6353  1.4864
13001TIP3    H260419   3.312   4.474   2.401  0.0190 -0.2422  0.0520
13002TIP3   OH260420   0.394   6.210   5.952  0.5074  0.1618 -0.5808
13002TIP3    H160421   0.300   6.202   5.967  0.8421 -1.0828  1.0069
13002TIP3    H260422   0.425   6.269   6.021  0.9498  0.2285 -0.8328
13003TIP3   OH260423   1.477   2.780   1.669 -0.3353  0.4116  0.1157
13003TIP3    H160424   1.397   2.787   1.720 -0.5913 -1.3477 -0.0176
13003TIP3    H260425   1.548   2.781   1.733 -0.6262 -1.2332  0.4561
13004TIP3   OH260426   5.960   0.901  13.870 -0.3526 -0.1098  0.3159
13004TIP3    H160427   5.897   0.875  13.804 -0.3458  2.6704 -0.8667
13004TIP3    H260428   6.042   0.913  13.822 -0.2574  1.5842  0.8609
13005TIP3   OH260429   5.193   0.978  11.642  0.2164 -0.2976 -0.1856
13005TIP3    H160430   5.155   1.066  11.640  1.1020  0.1028  0.2042
13005TIP3    H260431   5.284   0.991  11.614  0.2340 -1.1476 -0.5238
13006TIP3   OH260432   2.327   1.846   2.606 -0.1193  0.0205 -0.5439
13006TIP3    H160433   2.233   1.854   2.618  0.0762  0.7159  0.5731
13006TIP3    H260434   2.355   1.784   2.674  0.4421  1.0093  0.1381
13007TIP3   OH260435   2.416   6.261  14.885  0.3290 -0.1178 -0.4693
13007TIP3    H160436   2.483   6.196  14.902  1.5090  1.5114  1.2611
13007TIP3    H260437   2.452   6.343  14.918 -1.9284  1.0610 -0.7814
13008TIP3   OH260438   4.623   0.777   1.316 -0.5086  0.2506 -0.3799
13008TIP3    H160439   4.713   0.766   1.347  0.8969  1.1471 -3.9733
13008TIP3    H260440   4.590   0.687   1.306  1.1735 -0.1645 -2.3532
13009TIP3   OH260441   0.476   1.852  11.754  0.1355 -0.4876  0.1711
13009TIP3    H160442   0.421   1.804  11.693 -0.3133  1.2568 -0.8317
13009TIP3    H260443   0.444   1.942  11.750 -0.2754 -0.4090  3.3944
13010TIP3   OH260444   6.513   5.337  12.690  0.5574 -0.0151 -0.5039
13010TIP3    H160445   6.569   5.414  12.685 -0.1732  0.5618  0.0164
13010TIP3    H260446   6.570   5.263  12.670  1.5516  0.5314  0.3124
13011TIP3   OH260447   0.834   1.885  14.757 -0.1485  0.4399 -0.0587
13011TIP3    H160448   0.865   1.817  14.698  0.6222  0.3412  0.4454
13011TIP3    H260449   0.785   1.839  14.825 -0.2476  0.4613 -0.1158
13012TIP3   OH260450   1.021   3.944   6.236 -0.0492 -0.2623  0.0003
13012TIP3    H160451   1.039   3.854   6.264  1.0116 -0.3543 -0.9346
13012TIP3    H260452   0.949   3.973   6.293  0.3018 -1.3357  1.0224
13013TIP3   OH260453   6.546   5.504   0.009 -0.2528  0.0927  0.2086
13013TIP3    H160454   6.520   5.537  -0.077 -1.6427  0.8741  0.9168
13013TIP3    H260455   6.641   5.519   0.012 -0.2025  0.1575 -1.1287
13014TIP3   OH260456   1.999   3.637  11.931  0.5728  0.0293  0.5895
13014TIP3    H160457   1.995   3.692  12.009  0.6892  2.6373 -1.1747
13014TIP3    H260458   1.917   3.588  11.932 -0.6815  2.0608  0.9380
13015TIP3   OH260459   6.106   2.537   0.337 -0.4857 -0.1942 -0.2416
13015TIP3    H160460   6.154   2.520   0.256 -0.0950 -0.6970  0.0951
13015TIP3    H260461   6.140   2.622   0.367 -0.2952 -0.2279 -0.3608
13016TIP3   OH260462   3.692   4.244  14.383  0.2841  0.1525 -0.1129
13016TIP3    H160463   3.708   4.336  14.406  1.7718  0.1254 -0.9555
13016TIP3    H260464   3.732   4.234  14.297 -1.7996 -0.7411 -1.0177
13017TIP3   OH260465   6.509   2.500   2.826 -0.0231  0.3506  0.2633
13017TIP3    H160466   6.520   2.441   2.752  0.9755  0.0156  0.6599
13017TIP3    H260467   6.593   2.545   2.834  0.4876 -0.8638  2.2358
13018TIP3   OH260468   1.621   3.282  13.060 -0.4238  0.0715  0.5648
13018TIP3    H160469   1.562   3.280  12.985 -0.1627 -0.7244  0.3740
13018TIP3    H260470   1.684   3.352  13.040  0.0742 -0.6147 -0.2883
13019TIP3   OH260471   6.280   5.050  16.282 -0.3222  0.4277 -0.3935
13019TIP3    H160472   6.282   5.104  16.361 -0.1125 -1.5206  0.9729
13019TIP3    H260473   6.371   5.051  16.251  0.0974 -0.6561  0.7232
13020TIP3   OH260474   4.640   5.960  14.087 -0.0914  0.4115 -0.2517
13020TIP3    H160475   4.637   5.967  13.992 -1.0800  0.6284 -0.2174
13020TIP3    H260476   4.649   6.050  14.118  3.5328  0.0840 -0.2048
13021TIP3   OH260477   0.127   4.509  15.454  0.5634  0.4148  0.3269
13021TIP3    H160478   0.076   4.520  15.534  0.0778  0.8237 -0.0354
13021TIP3    H260479   0.081   4.440  15.405  0.4795  0.6319  0.0982
13022TIP3   OH260480   4.358   0.435  16.022 -0.4521  0.2083 -0.1593
13022TIP3    H160481   4.435   0.466  16.069  0.8494 -0.5386 -1.7365
13022TIP3    H260482   4.319   0.514  15.984 -0.2758  0.5385  0.3434
13023TIP3   OH260483   6.051   3.119  12.095  0.0295 -0.4003 -0.3312
13023TIP3    H160484   6.101   3.038  12.084  0.2920 -0.3214  0.2329
13023TIP3    H260485   6.031   3.122  12.189 -1.0096 -0.4092 -0.5491
13024TIP3   OH260486   4.137   2.567   5.037 -0.6713  0.2507  0.4901
13024TIP3    H160487   4.046   2.551   5.064 -0.4953  0.3887  1.1868
13024TIP3    H260488   4.130   2.598   4.947 -1.2997  0.0531  0.4638
13025TIP3   OH260489   3.794   2.616  11.031  0.2304 -0.3088 -0.4151
13025TIP3    H160490   3.785   2.576  11.118  1.5784 -1.5019 -0.7913
13025TIP3    H260491   3.877   2.663  11.035 -0.8934  1.6877 -0.2923
13026TIP3   OH260492   6.108   5.222   2.877  0.0692  0.1384  0.4321
13026TIP3    H160493   6.034   5.169   2.906 -0.5927  0.8077  0.0116
13026TIP3    H260494   6.186   5.176   2.909 -0.4244 -1.8025 -1.1203
13027TIP3   OH260495   3.164   2.379   2.648  0.2141  0.3255 -0.2145
13027TIP3    H160496   3.238   2.318   2.650  0.1150  0.0410 -3.2801
13027TIP3    H260497   3.094   2.331   2.692  1.5802  0.3072  2.0437
13028TIP3   OH260498   3.990   1.824   4.884 -0.8116 -0.1772  0.5154
13028TIP3    H160499   3.965   1.765   4.813 -1.6637  0.1218  0.5588
13028TIP3    H260500   4.046   1.889   4.843 -0.5082 -0.5684  0.3092
13029TIP3   OH260501   4.644   6.784   0.486  0.2098  0.0554  0.1146
13029TIP3    H160502   4.597   6.850   0.434 -0.1900  0.0452  0.4585
13029TIP3    H260503   4.574   6.736   0.531  0.4990 -0.6190 -0.1571
13030TIP3   OH260504   6.201   2.159  13.195 -0.6882  0.0003  0.3673
13030TIP3    H160505   6.237   2.225  13.136 -0.0482 -0.8836 -0.2468
13030TIP3    H260506   6.159   2.210  13.264 -2.0663  1.0600 -1.2082
13031TIP3   OH260507   3.989   1.984  15.370  0.3493  0.1787  0.0602
13031TIP3    H160508   3.968   1.939  15.289 -1.7453 -0.5332  0.9789
13031TIP3    H260509   3.968   2.076  15.353 -1.8715 -0.2565  0.3934
13032TIP3   OH260510   0.319   5.179  16.462 -0.1227  0.5543  0.6467
13032TIP3    H160511   0.402   5.171  16.416 -0.2655  1.9656  0.1193
13032TIP3    H260512   0.260   5.219  16.398 -0.7990  0.9163  1.4884
13033TIP3   OH260513   2.090   2.823   5.166  0.2065  0.0894  0.4904
13033TIP3    H160514   2.146   2.866   5.102  0.6418 -0.0826  0.7560
13033TIP3    H260515   2.025   2.776   5.114  0.8008 -0.3829  0.1674
13034TIP3   OH260516   2.450   2.497  13.264 -0.5863  0.8525 -0.1855
13034TIP3    H160517   2.415   2.488  13.353  1.2720  0.1559  0.4901
13034TIP3    H260518   2.454   2.592  13.249 -0.1833  0.9830  0.7541
13035TIP3   OH260519   5.671   0.045   1.089  0.2498 -0.1949 -0.2206
13035TIP3    H160520   5.579   0.022   1.096 -0.3078  2.0037 -0.1702
13035TIP3    H260521   5.710   0.013   1.170 -0.9686  1.1826  0.9213
13036TIP3   OH260522   4.955   3.849  11.355 -0.1296 -0.0317  0.4198
13036TIP3    H160523   4.980   3.934  11.321  0.8098 -0.0347  1.0798
13036TIP3    H260524   4.927   3.799  11.278 -0.2993  0.7363 -0.0153
13037TIP3   OH260525   1.789   5.877  11.486 -0.0778 -0.6735 -0.3982
13037TIP3    H160526   1.879   5.857  11.513  1.2780  0.6926 -3.6119
13037TIP3    H260527   1.739   5.798  11.507  1.9384 -1.6244  1.0292
13038TIP3   OH260528   6.148   1.927  10.714 -0.1908  0.6832  0.2344
13038TIP3    H160529   6.155   1.934  10.619 -0.6632  2.1319  0.2931
13038TIP3    H260530   6.202   1.999  10.747 -0.8856  0.8472  1.0224
13039TIP3   OH260531   3.226   0.389  16.929 -0.2571 -0.5042  0.1424
13039TIP3    H160532   3.311   0.424  16.902  1.8652 -3.8373  2.0644
13039TIP3    H260533   3.216   0.418  17.019 -0.7682 -0.7783  0.1747
13040TIP3   OH260534   2.999   1.923   5.328 -0.4161 -0.6612  0.2633
13040TIP3    H160535   2.915   1.947   5.289 -1.3494 -2.0792  1.3570
13040TIP3    H260536   3.028   1.846   5.278 -0.7711 -1.4161  1.1960
13041TIP3   OH260537   2.248   6.341  15.556 -0.0910  0.8637  0.5928
13041TIP3    H160538   2.189   6.310  15.624 -0.9776  0.3827 -0.3850
13041TIP3    H260539   2.233   6.436  15.552  1.0732  1.1333  2.1041
13042TIP3   OH260540   6.496   1.500  12.516  0.1319  0.1151 -0.0542
13042TIP3    H160541   6.545   1.554  12.577 -0.1401 -0.9274  1.1067
13042TIP3    H260542   6.556   1.429  12.493  0.3017  0.6007 -1.1591
13043TIP3   OH260543   1.110   1.144   3.070  0.7118 -0.0229 -0.8139
13043TIP3    H160544   1.113   1.178   3.159  1.8317 -1.5807 -0.2412
13043TIP3    H260545   1.171   1.200   3.021  0.4313  0.5446 -0.5233
13044TIP3   OH260546   6.787   4.425  10.861  0.4446 -0.5155 -0.0626
13044TIP3    H160547   6.826   4.466  10.783  0.6320  0.9051  0.7640
13044TIP3    H260548   6.774   4.333  10.835 -0.4440  0.1520 -2.1233
13045TIP3   OH260549   0.710   2.606   0.413  0.0807  0.2792  0.5414
13045TIP3    H160550   0.702   2.642   0.502 -0.0026  2.5138 -0.3474
13045TIP3    H260551   0.802   2.582   0.405  0.4462  1.6116  0.6715
13046TIP3   OH260552   1.520   4.509  13.928 -0.4166  0.2589 -0.8280
13046TIP3    H160553   1.474   4.535  13.848  1.4660  2.3861 -1.2926
13046TIP3    H260554   1.560   4.424  13.907  0.9821  1.3167 -2.5739
13047TIP3   OH260555   4.109   4.993  13.675  0.2727 -0.6095 -0.2893
13047TIP3    H160556   4.188   4.939  13.678 -0.4377 -1.6564 -0.2664
13047TIP3    H260557   4.141   5.082  13.665  1.4506 -1.0592 -0.5388
13048TIP3   OH260558   0.945   6.170  12.674  0.0368 -0.1386 -0.0285
13048TIP3    H160559   0.932   6.255  12.632 -1.3969  0.0733  0.8038
13048TIP3    H260560   0.862   6.152  12.718  1.2416 -0.7184  2.0531
13049TIP3   OH260561   2.388   3.270  13.032 -0.0903  0.1422  0.2102
13049TIP3    H160562   2.394   3.338  12.965 -0.4263 -0.2419 -0.2142
13049TIP3    H260563   2.363   3.191  12.984  0.1705 -0.2519  0.7213
13050TIP3   OH260564   6.209   3.603   4.271 -0.0057 -0.6075  0.3409
13050TIP3    H160565   6.190   3.580   4.362 -1.7664 -0.3972  0.0349
13050TIP3    H260566   6.168   3.688   4.258 -0.7317 -1.1438 -0.9745
13051TIP3   OH260567   2.947   3.135   1.516 -0.0614 -0.1896 -0.2747
13051TIP3    H160568   2.971   3.044   1.532  0.3062 -0.1903 -0.8285
13051TIP3    H260569   2.856   3.131   1.486 -0.3286 -0.2968  0.5233
13052TIP3   OH260570   6.231   2.557   3.709  0.1545 -0.0888 -0.1698
13052TIP3    H160571   6.191   2.515   3.633 -1.5407  1.3922 -0.1127
13052TIP3    H260572   6.308   2.503   3.727 -0.0566 -1.1464 -2.2081
13053TIP3   OH260573   0.127   6.199   2.825  0.4381  0.0189 -0.6546
13053TIP3    H160574   0.187   6.133   2.789 -0.0746 -0.7462 -0.1292
13053TIP3    H260575   0.124   6.178   2.919 -1.2858 -0.4570 -0.8112
13054TIP3   OH260576   5.904   3.624  16.778  0.2871 -0.0035  0.2427
13054TIP3    H160577   5.912   3.658  16.689  0.5738 -0.1191  0.2233
13054TIP3    H260578   5.832   3.675  16.816  1.3397  1.3130  0.5235
13055TIP3   OH260579   3.522   1.530  13.591  0.2656  0.4021 -0.5357
13055TIP3    H160580   3.526   1.453  13.533 -0.1143  1.0144 -1.3949
13055TIP3    H260581   3.433   1.529  13.626  1.1768 -1.2414  1.8414
13056TIP3   OH260582   1.720   1.523  14.012  0.2062  0.5463 -0.7940
13056TIP3    H160583   1.670   1.548  14.089 -0.9642  2.5896 -2.1878
13056TIP3    H260584   1.697   1.431  13.997 -2.2764  1.1349 -0.7464
13057TIP3   OH260585   6.462   5.871   1.077  0.1681 -0.0323 -0.1700
13057TIP3    H160586   6.472   5.791   1.026 -0.3758  0.0638 -0.4251
13057TIP3    H260587   6.429   5.842   1.162  0.8591 -0.1691  0.0567
13058TIP3   OH260588   1.295   2.582  13.520  0.2229 -0.7823 -0.8980
13058TIP3    H160589   1.298   2.596  13.615 -1.7174  2.4369 -1.2300
13058TIP3    H260590   1.380   2.543  13.499  1.6616  0.6878  1.8512
13059TIP3   OH260591   1.835   0.307   5.665  0.1513  0.4454  0.3692
13059TIP3    H160592   1.838   0.287   5.758 -1.5177  0.2229  0.3835
13059TIP3    H260593   1.921   0.343   5.646  1.1427 -1.2009  1.5993
13060TIP3   OH260594   3.907   4.775  11.696 -0.3608  0.2182 -0.4116
13060TIP3    H160595   3.938   4.754  11.608  0.1549 -2.1841  0.3016
13060TIP3    H260596   3.812   4.761  11.692 -0.7921  3.2054 -1.4023
13061TIP3   OH260597   1.672   1.862   2.950  0.1135  0.4794  0.2927
13061TIP3    H160598   1.766   1.843   2.944  0.4215  1.7660  0.8674
13061TIP3    H260599   1.662   1.902   3.037 -1.3674 -1.8455  1.2294
13062TIP3   OH260600   2.531   3.387  14.327 -0.1836  0.2060 -0.1199
13062TIP3    H160601   2.462   3.449  14.348  0.3687  0.0543  2.2937
13062TIP3    H260602   2.486   3.312  14.288 -1.1869  0.7917 -0.0897
13063TIP3   OH260603   3.672   4.477  13.969  0.1706  0.0778 -0.8828
13063TIP3    H160604   3.674   4.572  13.959  1.1016  0.0044 -1.4171
13063TIP3    H260605   3.609   4.447  13.903 -1.0630  0.4102  0.1088
13064TIP3   OH260606   2.995   6.249   6.263  0.2540 -0.1633  0.3520
13064TIP3    H160607   2.919   6.212   6.309  0.8035 -1.7299  0.0274
13064TIP3    H260608   2.962   6.266   6.174  0.3430 -1.1110  0.1278
13065TIP3   OH260609   5.984   1.913  16.007 -0.3376  1.2840  0.5904
13065TIP3    H160610   6.000   1.919  16.101  1.4318 -0.6277  0.4541
13065TIP3    H260611   6.059   1.864  15.972 -2.1138 -0.1329 -1.4455
13066TIP3   OH260612   0.021   1.096  14.075 -0.5191  0.1938 -0.3861
13066TIP3    H160613   0.018   1.111  14.169 -1.3411  0.3807 -0.4400
13066TIP3    H260614  -0.033   1.019  14.061 -1.2588  0.7880 -0.8267
13067TIP3   OH260615   1.561   0.405   2.524  0.0394  0.3316 -0.3984
13067TIP3    H160616   1.473   0.367   2.517  0.0777  0.1817 -0.1163
13067TIP3    H260617   1.550   0.497   2.503 -0.2364  0.3724 -0.0752
13068TIP3   OH260618   0.569   2.680   1.964  0.5007  0.5909 -0.6188
13068TIP3    H160619   0.505   2.626   1.918  0.8793 -2.2325  2.0102
13068TIP3    H260620   0.527   2.701   2.048  3.0018 -1.4834  1.2373
13069TIP3   OH260621   2.216   4.427   1.301  0.0619  0.6427  0.4147
13069TIP3    H160622   2.285   4.494   1.297 -0.1477  0.8039 -0.6503
13069TIP3    H260623   2.138   4.472   1.269  0.0580 -0.2709 -0.8911
13070TIP3   OH260624   2.481   0.729   1.634  0.3547 -0.2324  0.2289
13070TIP3    H160625   2.466   0.701   1.725 -0.4906 -1.7742 -0.3741
13070TIP3    H260626   2.401   0.777   1.611  0.2475 -0.4902  0.0596
13071TIP3   OH260627   0.642   1.258   2.612 -1.0660 -0.5328 -0.1804
13071TIP3    H160628   0.622   1.281   2.703 -0.6535  0.3768 -0.3186
13071TIP3    H260629   0.565   1.285   2.562 -1.1673 -0.7560 -0.1460
13072TIP3   OH260630   6.249   3.777  16.529  0.2474 -0.2881  0.7819
13072TIP3    H160631   6.253   3.691  16.572 -1.5049 -1.7522 -1.8189
13072TIP3    H260632   6.287   3.762  16.442 -0.0826  1.5828  0.2987
13073TIP3   OH260633   5.325   5.747   0.662 -0.7745 -0.2153 -0.7088
13073TIP3    H160634   5.318   5.687   0.588  0.6373 -0.6844 -0.4809
13073TIP3    H260635   5.271   5.822   0.638 -1.1973 -0.8416 -1.7291
13074TIP3   OH260636   0.993   0.925  11.632  0.0890  0.0596  0.6380
13074TIP3    H160637   0.981   1.014  11.667 -0.5609  0.2210  0.0207
13074TIP3    H260638   0.938   0.923  11.554  0.9181 -0.5528  0.0621
13075TIP3   OH260639   3.203   2.733   1.097  0.0572  0.0315  0.3563
13075TIP3    H160640   3.263   2.773   1.160 -0.0646 -0.2890  0.6795
13075TIP3    H260641   3.148   2.806   1.067  0.1090  0.1867  0.6306
13076TIP3   OH260642   0.498   3.082   2.133 -0.1265  0.2283  0.0550
13076TIP3    H160643   0.561   3.096   2.062 -1.3563 -0.2424 -1.1427
13076TIP3    H260644   0.417   3.122   2.102 -0.5492  0.4385  1.3996
13077TIP3   OH260645   6.630   3.254   1.370 -0.9949 -0.0149  0.3847
13077TIP3    H160646   6.632   3.164   1.338 -1.1905  0.4852 -1.1097
13077TIP3    H260647   6.665   3.249   1.459 -2.4665 -1.7749  0.8977
13078TIP3   OH260648   6.339   0.685   4.280 -0.2835 -0.3225 -0.0960
13078TIP3    H160649   6.346   0.751   4.211  0.4697  0.0244  0.3093
13078TIP3    H260650   6.356   0.732   4.361  1.0490 -1.1439  0.1252
13079TIP3   OH260651   6.313   3.394   5.881  0.4317  0.2859  0.8654
13079TIP3    H160652   6.347   3.480   5.909  1.3520  0.0892  0.3634
13079TIP3    H260653   6.388   3.351   5.840 -0.3604 -0.2688 -0.0094
13080TIP3   OH260654   2.480   4.326  13.640 -0.1089 -0.3893  0.8503
13080TIP3    H160655   2.409   4.307  13.701  1.4135  1.1517  3.1616
13080TIP3    H260656   2.512   4.240  13.613 -3.3809 -1.1366 -0.9553
13081TIP3   OH260657   1.327   4.083  11.440 -0.3157  0.7969  0.3127
13081TIP3    H160658   1.401   4.056  11.495  0.3882 -0.7042 -1.3232
13081TIP3    H260659   1.254   4.092  11.501  0.4871 -0.6734  1.5245
13082TIP3   OH260660   4.409   3.789   6.687  0.1385  0.0155 -0.8894
13082TIP3    H160661   4.485   3.842   6.707 -0.2547  0.4628 -0.5632
13082TIP3    H260662   4.445   3.707   6.653  0.7948 -0.1236  0.1080
13083TIP3   OH260663   3.459   5.424  16.886  0.2358 -0.1154 -0.1112
13083TIP3    H160664   3.514   5.349  16.862 -0.0817  0.2366 -1.9578
13083TIP3    H260665   3.370   5.391  16.883  0.1081  0.2679 -0.7358
13084TIP3   OH260666   2.247   6.717  11.981  0.0709 -0.3578  0.3504
13084TIP3    H160667   2.296   6.767  11.916  2.0950  0.1980  2.2505
13084TIP3    H260668   2.201   6.783  12.033 -0.0519 -0.6679  0.6411
13085TIP3   OH260669   3.946   3.942  15.367  0.2765 -0.2528 -0.2495
13085TIP3    H160670   3.973   3.881  15.297  0.8036  0.7799 -0.9547
13085TIP3    H260671   3.888   4.004  15.323 -0.5659 -0.4563  0.5556
13086TIP3   OH260672   3.750   2.031   3.597  0.4683 -0.4218  0.6277
13086TIP3    H160673   3.840   2.016   3.626  0.7519  0.1224  0.0492
13086TIP3    H260674   3.712   2.088   3.664  0.3890 -1.0959  1.1528
13087TIP3   OH260675   0.780   3.671  11.569 -0.3597  0.1210  0.1790
13087TIP3    H160676   0.752   3.625  11.490  2.0947  1.8198 -1.7296
13087TIP3    H260677   0.795   3.762  11.541  1.5755  0.5261  2.3246
13088TIP3   OH260678   5.162   1.330  13.667 -0.2591  0.0664  0.1521
13088TIP3    H160679   5.245   1.301  13.630 -0.8797 -0.8247 -0.5585
13088TIP3    H260680   5.111   1.360  13.592 -0.2549  1.4441  0.6891
13089TIP3   OH260681   3.652   3.219   3.866 -0.2163 -0.0175 -0.4659
13089TIP3    H160682   3.664   3.229   3.771  0.5463  0.6369 -0.3049
13089TIP3    H260683   3.671   3.126   3.882 -1.2932 -0.3579 -1.0845
13090TIP3   OH260684   1.643   6.009   3.896  0.3727  0.3220  0.0776
13090TIP3    H160685   1.615   6.042   3.982  0.9865  0.0374  0.3826
13090TIP3    H260686   1.652   5.915   3.907  0.2492  0.2562 -0.3597
13091TIP3   OH260687   6.015   0.584  14.689  0.5321 -0.1623  0.6718
13091TIP3    H160688   6.062   0.617  14.766  0.4198 -0.5757  0.9234
13091TIP3    H260689   6.079   0.529  14.644 -0.2758 -2.3722  2.1030
13092TIP3   OH260690   4.910   4.391  12.462  0.3790  0.0520 -0.0896
13092TIP3    H160691   4.893   4.457  12.529  0.7217 -0.7662  0.8149
13092TIP3    H260692   4.995   4.354  12.486  0.7715  0.1518 -1.3034
13093TIP3   OH260693   4.052   2.017  14.182  1.0576 -0.1378 -0.3563
13093TIP3    H160694   4.133   1.974  14.152  0.0250 -1.7590 -0.9011
13093TIP3    H260695   4.049   2.099  14.132  2.8824  0.4402  0.4336
13094TIP3   OH260696   0.819   5.533  12.167 -0.6607  0.6767  0.3085
13094TIP3    H160697   0.864   5.614  12.143  0.4306  0.3104  1.1047
13094TIP3    H260698   0.731   5.543  12.132  0.5122  0.6888 -2.7805
13095TIP3   OH260699   4.165   1.931   2.668 -0.2448 -0.1565 -1.1802
13095TIP3    H160700   4.243   1.975   2.633  1.2735 -2.6317 -1.0391
13095TIP3    H260701   4.188   1.912   2.759 -0.0202 -3.0411 -1.7975
13096TIP3   OH260702   4.025   4.895   3.257  0.7999  0.5629  0.3128
13096TIP3    H160703   3.944   4.876   3.303  0.4117 -0.2976 -0.7197
13096TIP3    H260704   4.075   4.813   3.260  0.0267 -0.0616 -2.2965
13097TIP3   OH260705   3.738   5.287  12.511 -0.6797  0.8230  0.3563
13097TIP3    H160706   3.649   5.272  12.544 -0.5391  2.3115  1.4720
13097TIP3    H260707   3.735   5.376  12.477  0.2481  0.6734 -0.1135
13098TIP3   OH260708   6.538   0.553   0.303 -0.4473 -0.2620  0.1389
13098TIP3    H160709   6.512   0.550   0.211 -2.3930  1.9710  0.5690
13098TIP3    H260710   6.460   0.526   0.351 -0.5727  1.9321  1.2507
13099TIP3   OH260711   0.136   2.207  14.441  0.3696 -0.2626 -0.0478
13099TIP3    H160712   0.152   2.216  14.535  1.0330 -2.6028  0.1152
13099TIP3    H260713   0.206   2.258  14.399  0.1455  0.6755  0.7292
13100TIP3   OH260714   3.361   6.128   0.973  0.7280 -0.2863  0.5681
13100TIP3    H160715   3.387   6.185   0.900 -1.0867 -0.5856 -0.3444
13100TIP3    H260716   3.361   6.186   1.049 -0.5836  0.8195 -0.2560
13101TIP3   OH260717   5.176   4.169  12.720  0.2079 -0.3513  0.0441
13101TIP3    H160718   5.080   4.171  12.724  0.2367 -1.7991  2.2703
13101TIP3    H260719   5.204   4.205  12.804  1.6358 -0.1316 -0.5105
13102TIP3   OH260720   4.545   2.076  16.473  0.0102  0.0228  0.4242
13102TIP3    H160721   4.497   2.147  16.430  0.3878  0.6461  1.0131
13102TIP3    H260722   4.480   2.031  16.526  0.0534  0.8499  1.2032
13103TIP3   OH260723   6.751   0.051   2.914 -0.2536  0.0152 -0.2646
13103TIP3    H160724   6.689   0.056   2.987  0.1953  0.7421  0.0737
13103TIP3    H260725   6.792  -0.034   2.923  0.5871  0.5404  0.9833
13104TIP3   OH260726   1.544   1.128   0.906  0.4803 -0.3850 -0.0293
13104TIP3    H160727   1.555   1.117   1.001 -0.9110  0.9451  0.3079
13104TIP3    H260728   1.477   1.196   0.898  0.1363 -0.9368 -1.9705
13105TIP3   OH260729   4.174   4.218   2.489 -0.4384 -0.3684 -0.1164
13105TIP3    H160730   4.121   4.262   2.555  0.0384  1.1230 -0.7234
13105TIP3    H260731   4.111   4.190   2.422 -0.4806  1.3364 -0.7993
13106TIP3   OH260732   0.458   4.592   5.033 -0.5294  0.1093  0.0985
13106TIP3    H160733   0.470   4.671   4.981 -1.0893  1.0007  1.2951
13106TIP3    H260734   0.532   4.536   5.010  0.8496  1.7100  0.5314
13107TIP3   OH260735   6.512   4.711   5.558 -0.0643  0.1470 -0.4065
13107TIP3    H160736   6.470   4.710   5.472 -0.9229 -0.4073  0.0122
13107TIP3    H260737   6.519   4.804   5.580 -0.7888  0.2556 -0.6175
13108TIP3   OH260738   0.511   2.787   0.853 -0.1630 -0.1010 -0.4180
13108TIP3    H160739   0.498   2.856   0.789 -0.8563 -2.0666 -2.4916
13108TIP3    H260740   0.443   2.722   0.833  2.0548 -2.5796 -0.2889
13109TIP3   OH260741   6.404   1.392  15.330  0.5567 -0.1787  0.0632
13109TIP3    H160742   6.421   1.305  15.366 -0.1991 -0.8424 -1.1442
13109TIP3    H260743   6.316   1.386  15.293  1.3312  0.4320 -1.9559
13110TIP3   OH260744   3.186   5.456   6.291  0.2782 -0.5608  0.0067
13110TIP3    H160745   3.185   5.475   6.384  2.4376  2.5677 -0.5415
13110TIP3    H260746   3.237   5.375   6.284 -0.8110 -1.4111  1.5825
13111TIP3   OH260747   2.797   5.595   2.385  0.0582  0.1559  0.1107
13111TIP3    H160748   2.886   5.563   2.369  0.4780  1.5444 -0.3646
13111TIP3    H260749   2.761   5.608   2.297 -1.1815 -1.8701  0.2620
13112TIP3   OH260750   4.120   1.194   5.885 -0.6795  0.0517 -0.2266
13112TIP3    H160751   4.115   1.219   5.793  1.5219  0.1996 -0.3264
13112TIP3    H260752   4.187   1.251   5.922  0.7474 -2.1917  0.7267
13113TIP3   OH260753   1.303   4.864  14.641 -0.1586  0.2656 -0.5324
13113TIP3    H160754   1.320   4.775  14.612  0.2524  0.0097  0.4535
13113TIP3    H260755   1.345   4.919  14.575 -0.1093 -0.2738 -0.9545
13114TIP3   OH260756   6.186   3.106   2.722 -0.2395  0.0802  0.0110
13114TIP3    H160757   6.128   3.107   2.646 -2.2056  1.2801  1.4631
13114TIP3    H260758   6.137   3.154   2.790  1.6412 -0.5745  1.8878
13115TIP3   OH260759   6.030   5.032  15.615 -0.3247  0.4572 -0.1654
13115TIP3    H160760   6.055   5.069  15.700  0.7869 -1.4731  0.3850
13115TIP3    H260761   5.935   5.023  15.619 -0.4085  1.5702  0.3761
13116TIP3   OH260762   1.818   1.335  13.663 -0.2811 -0.3599 -0.2143
13116TIP3    H160763   1.774   1.289  13.592 -0.3119 -0.0336 -0.4082
13116TIP3    H260764   1.781   1.298  13.743 -2.2871  1.2342 -0.3773
13117TIP3   OH260765   4.216   3.347  14.860 -0.6618  0.6816 -0.4016
13117TIP3    H160766   4.200   3.434  14.897  1.6826  0.7226  0.6239
13117TIP3    H260767   4.255   3.297  14.932  0.7306 -0.3180 -1.8186
13118TIP3   OH260768   3.945   6.709   5.632 -0.2404 -0.1749  0.0052
13118TIP3    H160769   3.875   6.772   5.615  0.2285  0.2358 -0.4139
13118TIP3    H260770   4.025   6.761   5.626  0.0766 -0.5563  0.9111
13119TIP3   OH260771   5.267   2.622  17.201 -0.1957  0.2205  0.1099
13119TIP3    H160772   5.237   2.540  17.241  0.6698  0.1003  0.5105
13119TIP3    H260773   5.359   2.606  17.181 -0.4323  0.5526 -1.2345
13120TIP3   OH260774   2.217   0.249   1.532 -0.5281  0.5346 -0.1713
13120TIP3    H160775   2.205   0.210   1.446  1.8366  1.0508 -0.7745
13120TIP3    H260776   2.255   0.180   1.585  0.5907  1.0195 -0.3251
13121TIP3   OH260777   3.286   5.449  11.995  0.1475  0.7321 -0.3302
13121TIP3    H160778   3.288   5.438  12.090  1.9832 -2.4670 -0.6578
13121TIP3    H260779   3.193   5.445  11.972 -0.2789  1.0275  1.2748
13122TIP3   OH260780   1.758   0.878  11.469 -0.4800 -0.2609 -0.7692
13122TIP3    H160781   1.851   0.896  11.460 -0.7630  1.3593 -0.5555
13122TIP3    H260782   1.718   0.963  11.489 -1.7567 -1.2381  1.0236
13123TIP3   OH260783   6.575   2.733   5.663  0.1763 -0.4298 -0.0959
13123TIP3    H160784   6.612   2.718   5.576 -2.4792  0.6229 -1.4573
13123TIP3    H260785   6.571   2.646   5.703  0.4089 -1.0734 -1.4478
13124TIP3   OH260786   1.310   2.201  12.052  0.0649 -0.1057  0.0230
13124TIP3    H160787   1.316   2.193  11.957 -1.4142 -0.5109 -0.0614
13124TIP3    H260788   1.303   2.295  12.069 -3.7173 -0.2066 -0.5958
13125TIP3   OH260789   2.894   6.235  12.702  0.0079  0.3153 -0.5032
13125TIP3    H160790   2.959   6.177  12.742  1.0354 -0.8427 -3.7647
13125TIP3    H260791   2.929   6.255  12.616 -3.0102  1.3474 -1.5416
13126TIP3   OH260792   1.565   4.671   4.345 -0.4490  0.0785 -0.4411
13126TIP3    H160793   1.485   4.645   4.388 -0.2591 -0.9056 -0.6704
13126TIP3    H260794   1.539   4.742   4.286 -0.3433  2.8942  2.7728
13127TIP3   OH260795   6.398   3.650  15.011 -0.2712  0.1017  0.2191
13127TIP3    H160796   6.412   3.734  14.968 -0.7085  0.2992  0.4645
13127TIP3    H260797   6.418   3.585  14.944 -1.7136  0.4054 -0.5198
13128TIP3   OH260798   6.228   4.352  10.792  0.0711  0.0033 -0.1222
13128TIP3    H160799   6.283   4.405  10.850 -2.6214  0.4319  2.1870
13128TIP3    H260800   6.279   4.274  10.775  2.9846  2.1008 -1.2907
13129TIP3   OH260801   2.568   3.990   5.329 -0.5007  0.0018 -0.2441
13129TIP3    H160802   2.498   3.926   5.343 -1.3414  1.0380  0.4265
13129TIP3    H260803   2.609   3.964   5.247  0.2459 -2.3592  0.8590
13130TIP3   OH260804   2.885   3.663  12.447  0.1627 -0.0861 -0.4539
13130TIP3    H160805   2.925   3.633  12.365  1.3845  0.9602 -0.2506
13130TIP3    H260806   2.855   3.751  12.428  0.8123  0.3111  0.3340
13131TIP3   OH260807   6.354   5.037   0.556 -0.4186  0.2067 -0.0337
13131TIP3    H160808   6.444   5.056   0.533 -0.0664 -1.1716  0.1515
13131TIP3    H260809   6.322   4.981   0.486 -0.7390 -0.3232  0.5224
13132TIP3   OH260810   1.820   6.491  14.817 -0.3386  0.4883 -0.8822
13132TIP3    H160811   1.833   6.578  14.853 -2.0398  0.0758  0.8011
13132TIP3    H260812   1.730   6.492  14.783 -0.9147 -1.0296  0.5089
13133TIP3   OH260813   0.734   0.258  11.431  0.0761 -0.1207 -0.3764
13133TIP3    H160814   0.731   0.199  11.355 -1.8158 -0.5434 -0.0018
13133TIP3    H260815   0.825   0.257  11.459  0.4399 -1.3706 -1.5549
13134TIP3   OH260816   6.068   2.498  13.615 -0.0139  0.1737 -0.0977
13134TIP3    H160817   5.997   2.446  13.652 -0.2001  1.4824  1.4411
13134TIP3    H260818   6.119   2.526  13.691  0.6588  1.3930 -0.9768
13135TIP3   OH260819   2.108   4.386  15.871 -0.0065 -0.7162 -0.3617
13135TIP3    H160820   2.110   4.292  15.853  1.4416 -0.7651 -0.0016
13135TIP3    H260821   2.145   4.426  15.793 -0.2218 -0.4694 -0.3385
13136TIP3   OH260822   1.415   6.004   3.658 -0.7756 -0.9015 -0.0581
13136TIP3    H160823   1.342   6.063   3.646 -0.1708  0.0176  0.7094
13136TIP3    H260824   1.375   5.917   3.666 -1.8793 -0.2448  1.7170
13137TIP3   OH260825   1.320   2.257  13.873 -0.3632 -0.2296 -0.1453
13137TIP3    H160826   1.388   2.205  13.830 -0.3351 -1.6989  1.6248
13137TIP3    H260827   1.239   2.235  13.827 -0.0425 -0.3739 -0.6400
13138TIP3   OH260828   3.465   4.243   5.781  0.0391  0.2968 -1.2512
13138TIP3    H160829   3.545   4.192   5.784  0.9593  1.6141 -2.8400
13138TIP3    H260830   3.493   4.332   5.760 -1.8792  0.6261 -2.6272
13139TIP3   OH260831   5.194   0.557  15.306 -0.3556 -0.1440 -0.0831
13139TIP3    H160832   5.248   0.488  15.267  0.2648  0.5296 -0.4361
13139TIP3    H260833   5.175   0.616  15.233 -0.2280  0.4649  0.3745
13140TIP3   OH260834   0.152   5.471   4.879 -0.0510  0.5872 -0.0647
13140TIP3    H160835   0.203   5.470   4.798  0.3826 -0.7418  0.2095
13140TIP3    H260836   0.194   5.539   4.933 -0.3768  1.5094 -0.9571
13141TIP3   OH260837   6.471   2.529  16.122  0.5062  0.2982 -0.1424
13141TIP3    H160838   6.392   2.577  16.097  1.1064  2.3591  1.7041
13141TIP3    H260839   6.440   2.464  16.186  0.1095  0.1227 -0.5087
13142TIP3   OH260840   4.829   0.315  11.507 -0.1681  0.7661 -0.5738
13142TIP3    H160841   4.853   0.406  11.517 -1.9429  1.1768  0.2624
13142TIP3    H260842   4.770   0.297  11.581 -1.1665 -0.5742 -1.6533
13143TIP3   OH260843   1.136   0.606   3.389 -0.2946 -0.3361 -0.5670
13143TIP3    H160844   1.068   0.564   3.337  0.2007 -0.5969 -1.0120
13143TIP3    H260845   1.182   0.534   3.432  0.3442 -0.2475 -1.0720
13144TIP3   OH260846   6.546   6.497   5.299 -0.2875  0.0370  0.6504
13144TIP3    H160847   6.568   6.407   5.325 -0.6612 -0.3602 -0.3895
13144TIP3    H260848   6.512   6.537   5.379 -0.5603 -0.8882  1.0122
13145TIP3   OH260849   6.770   5.406  13.254 -0.1487 -0.1093  0.6598
13145TIP3    H160850   6.688   5.446  13.222  0.1283  1.2137  1.5560
13145TIP3    H260851   6.838   5.468  13.227  0.2892  0.0447  2.0711
13146TIP3   OH260852   2.031   4.208  16.950  0.2718  0.4102 -0.0368
13146TIP3    H160853   1.942   4.192  16.982  0.2792 -1.4928 -0.9036
13146TIP3    H260854   2.018   4.264  16.873  0.0419  2.4346  1.4483
13147TIP3   OH260855   2.315   0.105   1.269  0.6587  0.3164 -0.4436
13147TIP3    H160856   2.370   0.032   1.298 -1.6120 -1.5048 -0.5480
13147TIP3    H260857   2.299   0.088   1.177  1.2844  1.7609 -0.8332
13148TIP3   OH260858   0.416   0.967  14.651  0.8310  0.2504 -0.0395
13148TIP3    H160859   0.372   0.989  14.569 -0.0193  0.7212  0.5381
13148TIP3    H260860   0.367   0.893  14.686 -1.1470  2.3574  1.8659
13149TIP3   OH260861   0.301   3.071  12.603 -0.6245 -0.5445  0.3046
13149TIP3    H160862   0.207   3.070  12.618 -0.9061 -2.6973 -1.2381
13149TIP3    H260863   0.334   2.996  12.652 -0.3569 -2.3414 -2.4546
13150TIP3   OH260864   5.092   4.350  16.594 -0.1248  0.4568  0.1296
13150TIP3    H160865   5.186   4.359  16.608 -0.2692 -0.0273  1.3860
13150TIP3    H260866   5.084   4.278  16.532  0.2912  0.1139  0.4776
13151TIP3   OH260867   4.928   5.232   3.591  0.2311 -0.1359  0.4401
13151TIP3    H160868   4.979   5.166   3.545  0.2400  1.0825 -1.3560
13151TIP3    H260869   4.985   5.262   3.662  1.0285 -0.5814 -0.0106
13152TIP3   OH260870   4.268   2.333  13.678  0.4045  0.3528  0.2677
13152TIP3    H160871   4.249   2.353  13.770 -0.5704 -1.0202  0.3829
13152TIP3    H260872   4.186   2.298  13.644  0.7592  0.8761 -1.1416
13153TIP3   OH260873   2.407   5.670  12.937 -0.8851  0.1600 -0.0241
13153TIP3    H160874   2.356   5.749  12.954  0.1808  0.3520  2.5053
13153TIP3    H260875   2.492   5.687  12.979  0.0440 -1.5616 -1.1230
13154TIP3   OH260876   0.511   4.193  11.715  0.0991  0.4200 -0.3986
13154TIP3    H160877   0.421   4.222  11.731 -0.2490 -0.2792 -1.0276
13154TIP3    H260878   0.563   4.237  11.782 -0.8881 -0.1531  0.7700
13155TIP3   OH260879   1.487   0.467  16.287 -0.1153  0.6103 -0.2048
13155TIP3    H160880   1.438   0.416  16.351 -0.9592 -0.4384 -1.6634
13155TIP3    H260881   1.576   0.472  16.323 -0.2383 -1.1406  0.3664
13156TIP3   OH260882   4.171   0.279   0.988 -0.3346 -0.2562 -0.4908
13156TIP3    H160883   4.179   0.251   1.080 -1.0105 -0.6753 -0.5551
13156TIP3    H260884   4.254   0.254   0.948 -0.3390 -0.7868 -0.1732
13157TIP3   OH260885   1.362   4.609   3.135 -0.1954  1.0746 -0.4469
13157TIP3    H160886   1.290   4.671   3.138 -0.2169  1.0666 -0.7799
13157TIP3    H260887   1.367   4.582   3.043 -1.2924 -0.7058 -0.0152
13158TIP3   OH260888   1.421   0.033  14.714 -0.3380  0.8744 -0.2820
13158TIP3    H160889   1.476   0.112  14.707 -0.0628  0.8902  1.8430
13158TIP3    H260890   1.337   0.065  14.747 -0.1628  0.2570  0.7762
13159TIP3   OH260891   6.019   1.283  15.826 -0.0018  0.2571  0.0649
13159TIP3    H160892   6.109   1.258  15.803 -1.2400 -2.8126 -1.6955
13159TIP3    H260893   6.000   1.233  15.905 -0.9452 -0.8755 -0.8718
13160TIP3   OH260894   5.662   6.700   0.415 -0.3133 -0.2427  0.2219
13160TIP3    H160895   5.597   6.650   0.465  1.3923  0.0785  2.8349
13160TIP3    H260896   5.623   6.787   0.407 -1.0552 -0.5800  0.0915
13161TIP3   OH260897   5.692   5.793   3.201  0.0100  0.2496  0.3344
13161TIP3    H160898   5.745   5.804   3.122 -0.1759  3.5907  0.5844
13161TIP3    H260899   5.752   5.757   3.266  1.6885  2.6517  0.2067
13162TIP3   OH260900   4.516   6.011   5.555 -0.1863 -0.5836 -0.0227
13162TIP3    H160901   4.606   5.987   5.533 -0.7039  0.1170 -3.0724
13162TIP3    H260902   4.525   6.089   5.610  1.0817 -1.0042  0.3959
13163TIP3   OH260903   4.446   4.757   0.714 -0.4633  0.2616  0.0188
13163TIP3    H160904   4.445   4.759   0.618  0.3214  2.2133  0.0346
13163TIP3    H260905   4.529   4.715   0.736 -1.4482 -1.8613 -0.1308
13164TIP3   OH260906   3.769   0.305  13.575  0.4793 -0.2234 -0.0723
13164TIP3    H160907   3.726   0.276  13.655  1.7424 -1.1870  0.2700
13164TIP3    H260908   3.858   0.270  13.581  0.6102 -0.2592 -1.8688
13165TIP3   OH260909   1.922   1.027   1.838  0.0214 -0.2430  0.2613
13165TIP3    H160910   1.915   0.939   1.873 -0.6067 -0.0406  0.6534
13165TIP3    H260911   2.004   1.061   1.874  0.4331 -0.7772 -0.1566
13166TIP3   OH260912   1.913   0.646  13.451  0.0945  0.8923  0.2049
13166TIP3    H160913   1.839   0.606  13.406  1.2055 -1.9800  0.8341
13166TIP3    H260914   1.943   0.579  13.513  2.7727  2.2609  0.4525
13167TIP3   OH260915   6.348   2.685   2.586 -0.2293  0.2229  0.0993
13167TIP3    H160916   6.418   2.620   2.579 -0.3024  0.1020  0.5189
13167TIP3    H260917   6.373   2.739   2.661  0.3164  1.2595 -0.8112
13168TIP3   OH260918   4.137   4.346   2.760 -0.0353 -0.1199  0.2055
13168TIP3    H160919   4.201   4.413   2.781 -0.4732  0.2469  0.3941
13168TIP3    H260920   4.188   4.267   2.741  0.5876  0.7639 -1.8952
13169TIP3   OH260921   5.830   0.169   2.979 -0.1329  0.1383 -0.4627
13169TIP3    H160922   5.807   0.260   2.995 -0.3924  0.2998 -1.6958
13169TIP3    H260923   5.919   0.172   2.945 -0.0201 -0.0933 -0.1912
13170TIP3   OH260924   1.105   5.373   6.472 -0.2527 -0.3123 -0.2942
13170TIP3    H160925   1.178   5.312   6.482 -0.8616 -0.8330  1.1020
13170TIP3    H260926   1.145   5.460   6.474  0.0032 -0.3759  4.7305
13171TIP3   OH260927   1.563   2.471  13.041  0.2350 -0.5505  0.1534
13171TIP3    H160928   1.614   2.487  13.120 -0.9307 -0.6767  0.9367
13171TIP3    H260929   1.491   2.533  13.045 -0.1864 -0.9837 -0.4949
13172TIP3   OH260930   6.201   6.076   0.663  0.1084  0.2865  0.1873
13172TIP3    H160931   6.118   6.121   0.677 -0.5248 -0.8632  0.2104
13172TIP3    H260932   6.262   6.145   0.639 -1.1805  0.9750 -1.2086
13173TIP3   OH260933   0.518   0.226  14.007 -0.0972 -0.1040  0.8560
13173TIP3    H160934   0.457   0.294  13.978 -1.2562 -1.6508 -0.4455
13173TIP3    H260935   0.461   0.155  14.037  0.9704 -2.3553 -2.1854
13174TIP3   OH260936   3.992   5.307  12.682  0.2782 -0.2033  0.3319
13174TIP3    H160937   3.965   5.343  12.767 -1.2295 -1.7967  0.5440
13174TIP3    H260938   3.913   5.268  12.646  1.4391 -1.5853 -0.7736
13175TIP3   OH260939   1.487   6.269  11.715  0.7052  0.4169  0.3942
13175TIP3    H160940   1.428   6.203  11.753  0.6484 -0.5646 -1.3307
13175TIP3    H260941   1.470   6.348  11.765 -0.6695 -0.3638  1.2041
13176TIP3   OH260942   0.729   4.227  12.462 -0.3842  0.1999 -0.5844
13176TIP3    H160943   0.746   4.260  12.373 -0.3117 -1.1913 -1.0993
13176TIP3    H260944   0.754   4.135  12.458 -3.4778 -0.7200 -0.0494
13177TIP3   OH260945   5.727   6.172  12.703 -0.2540  0.2672 -0.2364
13177TIP3    H160946   5.658   6.196  12.764  1.4062  1.6726  1.1348
13177TIP3    H260947   5.763   6.091  12.738 -1.6248 -0.8316 -1.3240
13178TIP3   OH260948   4.252   5.472   4.844 -0.3495 -0.3215  0.6950
13178TIP3    H160949   4.331   5.508   4.886 -0.8650 -0.1267  1.5035
13178TIP3    H260950   4.234   5.391   4.891 -1.0407 -0.0075  0.9658
13179TIP3   OH260951   0.322   2.890  13.973  0.4706  0.3461  0.5443
13179TIP3    H160952   0.301   2.925  14.059  0.4092 -0.4986  0.8763
13179TIP3    H260953   0.363   2.963  13.926 -0.2816  1.0545  0.9927
13180TIP3   OH260954   1.167   6.124   3.607 -0.0294  0.2735  0.0133
13180TIP3    H160955   1.097   6.063   3.582  0.0980 -0.1292  0.6402
13180TIP3    H260956   1.180   6.178   3.529 -1.2464  0.5422 -0.0152
13181TIP3   OH260957   0.299   4.006   0.554 -0.3296  0.5747 -0.0051
13181TIP3    H160958   0.350   3.969   0.625 -1.8587 -0.3156  0.6670
13181TIP3    H260959   0.248   4.076   0.595 -1.6111 -0.2887 -0.0760
13182TIP3   OH260960   1.121   5.163  16.426 -0.2189 -0.1986  0.1210
13182TIP3    H160961   1.081   5.199  16.506 -4.1969 -1.7543 -1.0710
13182TIP3    H260962   1.149   5.076  16.451  2.5635  0.8876  0.9539
13183TIP3   OH260963   0.705   1.136   3.586  0.0335 -0.2778 -0.1484
13183TIP3    H160964   0.665   1.052   3.561  0.1365 -0.2310 -0.4761
13183TIP3    H260965   0.638   1.201   3.563  0.1410 -0.2321 -0.3326
13184TIP3   OH260966   6.693   0.044   0.331  0.6217 -0.5750 -0.5166
13184TIP3    H160967   6.686   0.058   0.426  0.6431  0.2665 -0.6352
13184TIP3    H260968   6.772   0.091   0.306  0.5422 -0.6871 -0.9765
13185TIP3   OH260969   6.447   2.415   4.108 -0.4811 -0.4947  0.3245
13185TIP3    H160970   6.520   2.447   4.162 -0.9707  2.5135 -0.6679
13185TIP3    H260971   6.389   2.372   4.169  1.4227 -1.6335  1.3718
13186TIP3   OH260972   1.549   3.387   2.743  0.3689  0.2989  0.5273
13186TIP3    H160973   1.538   3.293   2.758 -2.9133  0.3694 -0.9470
13186TIP3    H260974   1.628   3.395   2.690 -1.1406 -1.9586 -2.1623
13187TIP3   OH260975   2.982   2.112  11.804  0.3520 -1.0754 -0.1988
13187TIP3    H160976   3.076   2.124  11.817  0.9073 -2.3733 -2.7706
13187TIP3    H260977   2.954   2.191  11.757 -0.2310  0.1077  2.0216
13188TIP3   OH260978   1.898   4.869   5.551 -0.1939  0.1505 -0.1497
13188TIP3    H160979   1.885   4.779   5.521  1.6705 -0.2059  0.0390
13188TIP3    H260980   1.970   4.902   5.497 -1.2285  1.7353 -0.6202
13189TIP3   OH260981   6.270   1.503  13.221  0.0090  0.0629 -0.2874
13189TIP3    H160982   6.236   1.414  13.226  0.9027 -0.2268  0.6509
13189TIP3    H260983   6.191   1.558  13.219 -0.5645 -0.7577 -1.6649
13190TIP3   OH260984   6.028   3.299   5.969  0.0197  0.0894 -0.1298
13190TIP3    H160985   5.967   3.289   5.896 -2.2377 -0.7791  1.7798
13190TIP3    H260986   6.114   3.296   5.929 -1.1480 -0.9682 -2.6936
13191TIP3   OH260987   2.725   2.327  14.903  0.3069 -0.9467 -0.1884
13191TIP3    H160988   2.704   2.327  14.997 -0.3138 -0.9263 -0.3232
13191TIP3    H260989   2.641   2.308  14.860  0.4528 -0.2986 -0.7719
13192TIP3   OH260990   4.870   5.305  11.731  0.2741  0.2297 -0.3690
13192TIP3    H160991   4.833   5.223  11.763  2.9484 -0.6475  0.6598
13192TIP3    H260992   4.842   5.310  11.639  0.3310 -2.0110 -0.5403
13193TIP3   OH260993   4.241   5.335   6.542  0.1069 -0.3978 -0.2354
13193TIP3    H160994   4.242   5.399   6.613  1.4940  1.2226 -1.6894
13193TIP3    H260995   4.328   5.296   6.544  0.7957  0.9652 -2.1784
13194TIP3   OH260996   4.394   0.090   0.962  0.1637 -0.2951 -1.1420
13194TIP3    H160997   4.328   0.023   0.950  0.5614 -0.8451 -0.2983
13194TIP3    H260998   4.463   0.068   0.899  0.6641 -1.1557 -0.3030
13195TIP3   OH260999   2.769   1.964  11.734 -0.0839  0.5895 -0.1163
13195TIP3    H161000   2.828   2.032  11.767  1.4281 -0.2141 -1.0796
13195TIP3    H261001   2.736   1.921  11.813  1.2497  0.5538  0.4464
13196TIP3   OH261002   0.361   3.837  11.309 -0.7054 -0.2593  0.2218
13196TIP3    H161003   0.454   3.820  11.292 -0.8029 -2.3649  1.5165
13196TIP3    H261004   0.315   3.787  11.242 -0.9158 -0.5116  0.5514
13197TIP3   OH261005   2.380   6.704  11.342  0.6144  0.5061 -0.3020
13197TIP3    H161006   2.373   6.697  11.437 -0.5196 -0.5552 -0.4583
13197TIP3    H261007   2.462   6.752  11.328  1.2067 -0.0506  1.1823
13198TIP3   OH261008   3.901   3.987   2.526  0.5770  0.3263  0.3949
13198TIP3    H161009   3.837   3.918   2.508  2.6022 -1.7393  0.8233
13198TIP3    H261010   3.952   3.993   2.445  0.4552  1.2875  0.3842
13199TIP3   OH261011   5.379   2.444   1.771  0.5396  0.2963  0.0788
13199TIP3    H161012   5.318   2.402   1.832 -0.4614  2.8303  0.8808
13199TIP3    H261013   5.459   2.391   1.777 -1.3949 -2.8431 -0.6906
13200TIP3   OH261014   0.730   2.268   4.660  0.0927 -0.4711  0.1377
13200TIP3    H161015   0.812   2.237   4.699 -0.9365 -2.6881  0.6091
13200TIP3    H261016   0.664   2.206   4.691 -1.7201  1.1319 -0.4754
13201TIP3   OH261017   4.945   1.639   0.082 -0.3959  0.3220  0.1806
13201TIP3    H161018   4.875   1.699   0.105 -0.2491  0.6253 -0.1709
13201TIP3    H261019   4.999   1.633   0.161 -1.1285 -0.3490  0.6395
13202TIP3   OH261020   3.724   2.975   4.113  0.5921 -0.0934  0.0937
13202TIP3    H161021   3.808   3.010   4.142  0.3765  0.5760 -0.0787
13202TIP3    H261022   3.659   3.024   4.163  0.3276 -1.2840  0.9530
13203TIP3   OH261023   2.863   1.100  13.601  0.3291 -0.1407  0.0688
13203TIP3    H161024   2.797   1.088  13.670  0.0550  0.6534 -0.0510
13203TIP3    H261025   2.913   1.019  13.602  0.4664 -0.0650  1.3662
13204TIP3   OH261026   0.133   1.158  16.694 -0.2402  0.2687  0.0686
13204TIP3    H161027   0.037   1.161  16.696 -0.2960 -1.8326  2.2741
13204TIP3    H261028   0.157   1.111  16.773  2.7284  2.2010  0.3832
13205TIP3   OH261029   3.408   3.680   1.446  0.2247 -0.6565  0.2377
13205TIP3    H161030   3.428   3.589   1.471  0.0021 -1.0946 -1.1445
13205TIP3    H261031   3.343   3.672   1.376 -1.3168  0.6323  1.4808
13206TIP3   OH261032   1.187   2.367   2.681  0.4950 -0.5609  0.2688
13206TIP3    H161033   1.249   2.438   2.692 -1.9591  2.2784 -3.3189
13206TIP3    H261034   1.224   2.313   2.611 -0.4175  0.3831 -0.9448
13207TIP3   OH261035   0.725   6.721  11.461  0.4743 -0.6085  0.2827
13207TIP3    H161036   0.820   6.735  11.466  0.5395 -1.0125  0.2349
13207TIP3    H261037   0.698   6.767  11.382  0.4640  0.3848  0.8587
13208TIP3   OH261038   1.534   0.057  13.240  0.4599 -0.3195  0.1452
13208TIP3    H161039   1.565   0.015  13.321 -0.9008 -0.3642  0.6545
13208TIP3    H261040   1.454   0.009  13.217  0.8102 -0.2717 -1.2004
13209TIP3   OH261041   5.952   0.199   3.489  0.3537 -0.2210 -0.2219
13209TIP3    H161042   6.024   0.136   3.485  0.7340  0.2005 -0.0449
13209TIP3    H261043   5.991   0.282   3.462 -0.3375 -0.2242 -1.2815
13210TIP3   OH261044   4.132   1.612  16.421  0.0374 -0.3851 -0.2207
13210TIP3    H161045   4.081   1.692  16.432  1.9539  0.9584 -0.6781
13210TIP3    H261046   4.221   1.644  16.403  1.0709 -2.6345  0.7466
13211TIP3   OH261047   0.428   1.957  16.419 -0.6507 -0.3248 -0.2617
13211TIP3    H161048   0.348   2.007  16.405 -0.1788  0.1939 -1.0871
13211TIP3    H261049   0.442   1.911  16.337  0.2004  0.0056 -0.2971
13212TIP3   OH261050   0.887   5.113   2.263 -0.1065  0.3952  0.1632
13212TIP3    H161051   0.801   5.125   2.304 -0.7348 -1.1438 -0.6660
13212TIP3    H261052   0.949   5.113   2.335 -1.2104 -2.4736  1.1821
13213TIP3   OH261053   5.175   1.357   3.940 -0.8781  0.4409  0.2002
13213TIP3    H161054   5.097   1.304   3.929 -0.3604 -0.0869 -1.0323
13213TIP3    H261055   5.211   1.365   3.851 -0.0130  1.3964  0.6291
13214TIP3   OH261056   5.462   0.003  12.263 -0.3747 -0.2325  0.1390
13214TIP3    H161057   5.537   0.028  12.317  1.5240 -2.6873 -1.2193
13214TIP3    H261058   5.434   0.084  12.221  1.6011  0.7292  0.6049
13215TIP3   OH261059   0.221   6.065  17.238  0.0140 -0.1699  0.1116
13215TIP3    H161060   0.228   6.158  17.259  0.3987 -0.4499  1.2381
13215TIP3    H261061   0.269   6.056  17.155  0.5444  0.5191  0.3358
13216TIP3   OH261062   5.517   2.923  12.984 -0.4580 -0.5433  0.0002
13216TIP3    H161063   5.529   2.855  13.050  1.0622 -0.3239 -0.0429
13216TIP3    H261064   5.540   3.005  13.030 -3.5431  0.1384  0.4564
13217TIP3   OH261065   1.700   4.581  14.504 -0.1634  0.8524 -0.2127
13217TIP3    H161066   1.781   4.611  14.464 -0.7374  1.2937 -1.0584
13217TIP3    H261067   1.691   4.490  14.476 -0.5277  1.1374 -1.0495
13218TIP3   OH261068   0.658   0.306  16.540 -0.1870  0.0535 -0.1540
13218TIP3    H161069   0.725   0.289  16.605 -0.5902 -0.8032  0.0460
13218TIP3    H261070   0.676   0.395  16.509  1.8047 -0.6001 -1.0079
13219TIP3   OH261071   3.152   0.611   0.577 -0.0191 -0.2426 -0.4946
13219TIP3    H161072   3.089   0.677   0.548  1.0677  1.1363  0.2075
13219TIP3    H261073   3.213   0.602   0.504 -1.3390 -2.0001 -1.4012
13220TIP3   OH261074   5.324   0.652  11.667 -0.0442 -0.4132  0.1225
13220TIP3    H161075   5.246   0.657  11.723 -1.2328 -0.2143 -1.5192
13220TIP3    H261076   5.391   0.699  11.716 -0.9658 -0.5137  1.5360
13221TIP3   OH261077   3.441   4.715   6.516  0.2456  0.5468 -0.0501
13221TIP3    H161078   3.428   4.636   6.569  0.6781  1.7950  1.9728
13221TIP3    H261079   3.535   4.732   6.521  0.0586  1.5395  0.0279
13222TIP3   OH261080   5.924   2.386   4.935 -0.2873  0.4315 -0.0997
13222TIP3    H161081   5.870   2.307   4.935 -0.8159  0.7926 -1.0479
13222TIP3    H261082   5.952   2.395   5.026  1.5586 -2.0578 -0.3666
13223TIP3   OH261083   3.097   3.190   6.139  0.4223  0.5572 -0.0143
13223TIP3    H161084   3.189   3.212   6.126  0.6956 -1.2562 -1.3899
13223TIP3    H261085   3.049   3.263   6.100  1.2807  0.9721 -0.2971
13224TIP3   OH261086   0.314   4.984  14.657  0.4285  0.0336  0.0267
13224TIP3    H161087   0.283   5.069  14.626 -0.7017 -0.3020  0.2365
13224TIP3    H261088   0.387   4.962  14.599  1.9761  2.0469  1.1619
13225TIP3   OH261089   6.580   2.541   5.133 -0.3555 -0.4322  0.0670
13225TIP3    H161090   6.555   2.628   5.163  0.6716 -0.2154  0.3285
13225TIP3    H261091   6.552   2.537   5.042  0.6989  0.6349 -0.3109
13226TIP3   OH261092   1.081   6.399  15.959  0.8211  0.0522 -0.3736
13226TIP3    H161093   1.175   6.392  15.974  0.5394 -2.3221  0.3401
13226TIP3    H261094   1.046   6.313  15.980 -1.7681  1.3931  1.0286
13227TIP3   OH261095   0.462   0.185   1.311 -0.3551 -0.3562  0.2023
13227TIP3    H161096   0.475   0.132   1.389  1.3263  0.3334  0.4040
13227TIP3    H261097   0.368   0.206   1.312 -0.2093  0.3320  2.4923
13228TIP3   OH261098   6.200   5.905  11.813 -0.2649 -0.3892 -0.5455
13228TIP3    H161099   6.212   5.993  11.849 -0.2072  0.0392 -1.5823
13228TIP3    H261100   6.229   5.846  11.882 -0.2606  0.4127  0.1433
13229TIP3   OH261101   2.152   5.226  12.548  0.3561 -0.3116 -0.0050
13229TIP3    H161102   2.225   5.190  12.498  1.4337 -1.2005  2.1675
13229TIP3    H261103   2.099   5.150  12.572 -0.7498  0.2216 -0.6874
13230TIP3   OH261104   0.470   2.415  13.271  0.0306  0.8297 -0.0326
13230TIP3    H161105   0.513   2.421  13.356 -2.0439 -0.9613  1.2181
13230TIP3    H261106   0.408   2.343  13.281  0.9866 -0.6109 -3.6487
13231TIP3   OH261107   3.053   5.063   3.057  1.0396 -0.3394 -0.2012
13231TIP3    H161108   3.053   4.989   2.996  2.6646 -1.0847  0.6812
13231TIP3    H261109   2.978   5.046   3.115 -0.0513 -0.0192 -1.4875
13232TIP3   OH261110   1.887   3.676   5.375 -0.1045  0.2936  0.8944
13232TIP3    H161111   1.969   3.655   5.330 -0.9558 -0.6814 -0.2345
13232TIP3    H261112   1.861   3.594   5.417 -0.5622  0.5754  1.1686
13233TIP3   OH261113   1.292   4.518   5.335  0.0899 -0.6695 -1.4471
13233TIP3    H161114   1.264   4.570   5.410  0.2139  0.1052 -1.9272
13233TIP3    H261115   1.216   4.516   5.277 -0.0658 -1.4205 -1.2201
13234TIP3   OH261116   4.089   5.337  11.232 -0.4254  0.1868 -0.2954
13234TIP3    H161117   4.154   5.403  11.212 -2.7520  2.2588 -1.2617
13234TIP3    H261118   4.090   5.278  11.157  1.7717 -1.0701  0.6503
13235TIP3   OH261119   1.912   0.980  14.430 -0.0495  0.2952  0.3168
13235TIP3    H161120   1.832   0.950  14.472  0.0691 -0.4375  0.0276
13235TIP3    H261121   1.935   0.910  14.369  2.3660 -0.7926  2.4165
13236TIP3   OH261122   5.588   3.754  11.891 -0.4442 -0.3870  0.3993
13236TIP3    H161123   5.643   3.778  11.965 -0.3813  2.0935 -0.3960
13236TIP3    H261124   5.503   3.793  11.910 -0.5791 -0.1867 -0.5694
13237TIP3   OH261125   5.905   4.871  15.026  0.3079 -0.2733  0.7580
13237TIP3    H161126   5.885   4.796  15.081 -0.2206 -2.2631 -2.0045
13237TIP3    H261127   5.998   4.861  15.005  0.4973  0.4472  1.2301
13238TIP3   OH261128   6.711   1.378  14.482 -0.0678  0.3952 -0.1962
13238TIP3    H161129   6.737   1.425  14.403  0.5739  0.2733 -0.0606
13238TIP3    H261130   6.658   1.304  14.451 -2.9398  2.4096 -0.2916
13239TIP3   OH261131   1.985   3.029  16.845  0.0456  0.2521 -0.5493
13239TIP3    H161132   2.010   2.950  16.799  1.1464 -0.4691  1.2404
13239TIP3    H261133   1.981   3.003  16.937 -2.7530  1.4826 -0.2723
13240TIP3   OH261134   4.251   5.692   2.416  0.2668 -0.2138 -0.7566
13240TIP3    H161135   4.258   5.766   2.477  1.0550 -1.9023  1.2701
13240TIP3    H261136   4.158   5.683   2.400 -0.3427 -1.8930  3.0314
13241TIP3   OH261137   1.567   2.693  16.470 -0.3274  0.0072  0.5000
13241TIP3    H161138   1.555   2.735  16.385 -1.0820  1.2432  1.2070
13241TIP3    H261139   1.478   2.686  16.506 -0.0821 -1.1131  0.9099
13242TIP3   OH261140   4.314   5.985   4.813 -0.3033  0.0557  0.5524
13242TIP3    H161141   4.311   6.080   4.824  0.1875 -0.0861  1.9778
13242TIP3    H261142   4.329   5.950   4.901  0.9623 -1.2754 -0.1545
13243TIP3   OH261143   0.331   1.913   0.958 -0.4253  0.5652  0.1626
13243TIP3    H161144   0.262   1.903   0.893  0.6308 -1.3700 -0.7294
13243TIP3    H261145   0.289   1.895   1.042 -1.3502  1.0023 -0.2066
13244TIP3   OH261146   2.544   2.442  16.111 -0.3311 -0.0407  0.1348
13244TIP3    H161147   2.479   2.510  16.094 -0.1496  0.0364 -0.2616
13244TIP3    H261148   2.592   2.472  16.188 -0.7990 -0.1242  0.4606
13245TIP3   OH261149   0.735   5.461  13.059 -0.1720 -0.2389 -0.1203
13245TIP3    H161150   0.809   5.502  13.104 -1.3214  0.5465  1.0994
13245TIP3    H261151   0.663   5.467  13.122 -1.6870  0.4108 -1.8802
13246TIP3   OH261152   5.748   4.328  15.573 -0.0347 -0.3066  0.5011
13246TIP3    H161153   5.750   4.342  15.667  1.3255  0.5710  0.3569
13246TIP3    H261154   5.777   4.411  15.535  0.5141 -1.0019 -0.6400
13247TIP3   OH261155   2.589   4.037   5.923  0.3070  0.0158 -0.7482
13247TIP3    H161156   2.659   4.022   5.987  0.6261 -2.5458 -1.6451
13247TIP3    H261157   2.625   4.003   5.840 -1.5438 -0.2273 -1.4666
13248TIP3   OH261158   0.347   2.499   3.399  0.1064 -0.3431 -0.0115
13248TIP3    H161159   0.273   2.469   3.452  0.5940 -0.6253  0.5168
13248TIP3    H261160   0.341   2.446   3.319 -1.0648  0.6050 -0.5694
13249TIP3   OH261161   3.314   0.070   0.615  0.1916  0.2889 -0.1943
13249TIP3    H161162   3.352   0.113   0.692  0.7926 -0.7627  0.0970
13249TIP3    H261163   3.242   0.128   0.589 -0.1627  0.5358  1.2939
13250TIP3   OH261164   4.922   2.577  15.714  0.1086 -0.1066  0.1794
13250TIP3    H161165   4.928   2.487  15.683  2.5648  0.0467  0.0651
13250TIP3    H261166   4.989   2.624  15.663 -0.7856  1.6617  0.5997
13251TIP3   OH261167   5.522   4.723  16.134 -0.6754  0.7034 -0.4294
13251TIP3    H161168   5.559   4.791  16.077  0.1429  0.2438 -0.4498
13251TIP3    H261169   5.539   4.755  16.222  1.5519 -0.4374 -0.4157
13252TIP3   OH261170   2.059   6.005  12.141  0.7909  0.6666  0.3612
13252TIP3    H161171   2.037   6.015  12.234 -1.5781  1.5460 -0.2542
13252TIP3    H261172   1.988   5.953  12.105  2.8183 -1.5305 -0.5501
13253TIP3   OH261173   3.706   1.738  15.234 -0.4958  0.3162  0.1336
13253TIP3    H161174   3.769   1.685  15.284  0.1508  1.7948  0.9446
13253TIP3    H261175   3.620   1.707  15.264 -0.1207  1.3290  2.3882
13254TIP3   OH261176   4.537   2.137  13.081  0.1260 -0.3731 -0.0294
13254TIP3    H161177   4.485   2.152  13.160 -0.5876  1.0647 -0.7550
13254TIP3    H261178   4.476   2.097  13.019  0.4289 -0.5985 -0.1824
13255TIP3   OH261179   4.339   5.086   0.817 -0.5225 -0.3144 -0.3689
13255TIP3    H161180   4.358   4.992   0.811 -0.8758 -0.4343  0.4211
13255TIP3    H261181   4.266   5.092   0.879  0.2996  0.5847  0.5249
13256TIP3   OH261182   2.976   5.058   5.330  1.3654  0.0331 -0.3711
13256TIP3    H161183   2.968   5.013   5.414  0.9918  1.9351  0.6267
13256TIP3    H261184   3.023   4.996   5.274  0.7214 -1.6546  0.9237
13257TIP3   OH261185   2.338   5.174  16.122 -0.2514 -0.4236  0.2585
13257TIP3    H161186   2.255   5.199  16.083 -0.5405 -1.8156 -0.0329
13257TIP3    H261187   2.341   5.222  16.205 -1.6758 -0.9172  0.6073
13258TIP3   OH261188   4.137   6.249  11.742 -0.3116 -0.0209  0.1534
13258TIP3    H161189   4.219   6.279  11.702 -0.8467 -0.8180 -1.6066
13258TIP3    H261190   4.101   6.186  11.679 -0.3690 -2.6422  2.6632
13259TIP3   OH261191   0.239   1.338  14.235 -0.2887  0.4149  0.2939
13259TIP3    H161192   0.294   1.284  14.292  0.7892  0.6650 -0.4751
13259TIP3    H261193   0.268   1.315  14.146 -1.8598  0.1108 -0.1497
13260TIP3   OH261194   4.434   5.777  10.802  0.1387 -0.6221 -0.1581
13260TIP3    H161195   4.419   5.838  10.730  0.8926 -0.7639 -0.4397
13260TIP3    H261196   4.348   5.738  10.818  0.0840 -1.0542 -1.4070
13261TIP3   OH261197   6.329   0.080  15.104 -0.1902  0.3609  0.0063
13261TIP3    H161198   6.253   0.125  15.141  2.0018  2.8829  1.6526
13261TIP3    H261199   6.353   0.132  15.027 -0.2812 -0.5855 -0.6703
13262TIP3   OH261200   2.162   2.538   5.465  0.1139  0.4831  0.5664
13262TIP3    H161201   2.238   2.589   5.491  1.0917 -0.3020 -0.6929
13262TIP3    H261202   2.095   2.603   5.443  0.8193  1.1909  0.5326
13263TIP3   OH261203   0.538   6.041  11.510 -0.3447 -0.3600  0.3435
13263TIP3    H161204   0.629   6.069  11.495 -0.1984 -1.5443 -1.1195
13263TIP3    H261205   0.494   6.119  11.541  0.2351  1.3431 -2.8853
13264TIP3   OH261206   3.294   4.883  15.789  0.1008 -0.1440  0.5030
13264TIP3    H161207   3.370   4.843  15.832 -0.6029 -0.5082  1.4310
13264TIP3    H261208   3.275   4.825  15.716  0.5427 -0.2153  0.4444
13265TIP3   OH261209   6.133   1.330  16.099  0.7755 -0.0052  0.4175
13265TIP3    H161210   6.089   1.272  16.037  0.1711 -0.0959  0.9281
13265TIP3    H261211   6.061   1.369  16.149  0.9984  2.7836 -1.3087
13266TIP3   OH261212   1.346   4.614  11.517  0.0440  0.4106 -0.2892
13266TIP3    H161213   1.352   4.543  11.581  0.1456  1.1928  0.5771
13266TIP3    H261214   1.407   4.681  11.550  0.1218  0.8076 -1.2176
13267TIP3   OH261215   6.263   5.783  15.364  0.0886 -0.8480 -0.0637
13267TIP3    H161216   6.269   5.691  15.340  1.1300 -1.0049  0.7831
13267TIP3    H261217   6.169   5.798  15.377  0.1649 -2.6960  3.2307
13268TIP3   OH261218   4.195   2.998   3.008  0.3957 -0.0671 -0.5290
13268TIP3    H161219   4.166   3.077   3.054 -0.9062 -0.2201 -1.0709
13268TIP3    H261220   4.166   2.926   3.064  1.1734 -0.1742 -0.2654
13269TIP3   OH261221   6.175   4.128   0.647  0.6612 -0.3408 -0.2450
13269TIP3    H161222   6.249   4.121   0.707  1.9014 -0.9127 -1.7890
13269TIP3    H261223   6.122   4.050   0.665  2.3366 -1.8442 -1.5600
13270TIP3   OH261224   6.492   4.797   6.065  0.0634  0.0725 -0.1417
13270TIP3    H161225   6.449   4.801   5.979 -2.5547  0.7792  1.1507
13270TIP3    H261226   6.438   4.736   6.116  1.3984 -0.0792  1.1148
13271TIP3   OH261227   2.216   4.744  13.392  0.4028 -0.4411  0.3043
13271TIP3    H161228   2.215   4.767  13.299  0.1567 -0.1720  0.3718
13271TIP3    H261229   2.229   4.828  13.437  2.4162 -0.7995  0.4377
13272TIP3   OH261230   2.019   5.146  14.682  0.0882  0.2034 -0.1902
13272TIP3    H161231   1.972   5.114  14.605  0.5212 -1.3899  0.1999
13272TIP3    H261232   1.984   5.096  14.755  0.5135  0.8887  0.4932
13273TIP3   OH261233   5.488   2.150   5.035  0.5764 -0.7586 -0.4085
13273TIP3    H161234   5.423   2.220   5.024  2.1254  0.9275  0.7252
13273TIP3    H261235   5.437   2.069   5.037 -1.2429  0.2955 -2.0735
13274TIP3   OH261236   0.250   1.299  13.685  0.4678 -0.3016 -0.5396
13274TIP3    H161237   0.226   1.239  13.756  1.0200 -0.0733 -0.1617
13274TIP3    H261238   0.204   1.264  13.609 -0.1656 -0.5229 -0.0617
13275TIP3   OH261239   1.022   5.955   4.882 -0.0724  0.3045  0.8720
13275TIP3    H161240   1.064   5.870   4.892  0.2549  0.4260  0.5531
13275TIP3    H261241   1.089   6.018   4.908 -0.3381  0.4639  1.1806
13276TIP3   OH261242   1.941   3.180   3.437  0.4184  0.1960  0.0739
13276TIP3    H161243   1.991   3.204   3.359  0.7630  0.6111  0.4219
13276TIP3    H261244   1.911   3.263   3.473  0.1278 -0.0054  0.2927
13277TIP3   OH261245   4.016   2.412  11.764 -0.1401  0.4402 -0.5586
13277TIP3    H161246   4.057   2.370  11.689  2.6124  3.0775 -0.6304
13277TIP3    H261247   4.089   2.436  11.821 -2.0120  0.5018  1.9081
13278TIP3   OH261248   1.027   1.594  13.543  0.3706  0.4343 -0.4210
13278TIP3    H161249   1.097   1.636  13.494  1.6723 -1.7304 -0.5073
13278TIP3    H261250   1.007   1.514  13.493 -0.4955 -0.1872  0.8672
13279TIP3   OH261251   1.875   6.747  11.518 -0.0997 -0.1107  0.4682
13279TIP3    H161252   1.836   6.659  11.523 -0.4543  0.1754  4.4585
13279TIP3    H261253   1.961   6.733  11.478 -0.4343 -2.1624  0.3863
13280TIP3   OH261254   3.634   2.345   2.935  0.1333  0.1556  0.4788
13280TIP3    H161255   3.695   2.326   3.006 -2.7771  2.7533  3.8537
13280TIP3    H261256   3.685   2.401   2.876  2.1258 -0.7196  1.2941
13281TIP3   OH261257   0.149   6.665  15.341 -0.0215 -0.3059 -0.3574
13281TIP3    H161258   0.231   6.651  15.294  0.3300  0.5077  0.0142
13281TIP3    H261259   0.101   6.729  15.287  0.1626  0.2381  0.1256
13282TIP3   OH261260   0.833   0.891   3.972 -0.4014  0.1893 -0.2537
13282TIP3    H161261   0.751   0.863   3.931  0.7643 -1.3908 -1.5556
13282TIP3    H261262   0.806   0.958   4.035 -2.6741 -0.2157 -0.7421
13283TIP3   OH261263   1.893   3.170   1.287  0.1922 -0.1074 -0.1649
13283TIP3    H161264   1.840   3.176   1.208 -1.9416  0.5374  1.2622
13283TIP3    H261265   1.977   3.210   1.263  0.1601 -1.3924 -2.5346
13284TIP3   OH261266   0.067   2.545  11.265  0.5310  0.1301  0.3240
13284TIP3    H161267   0.003   2.615  11.265  0.2628 -0.0985  1.7642
13284TIP3    H261268   0.075   2.519  11.173 -0.1609  1.3069 -0.0705
13285TIP3   OH261269   3.320   0.976  14.889  0.4348 -0.2154  0.6769
13285TIP3    H161270   3.374   0.958  14.966  0.2771  0.3810  0.9312
13285TIP3    H261271   3.241   1.016  14.924 -0.5492 -1.8533  0.3754
13286TIP3   OH261272   5.451   0.714   4.508  0.9045  0.3707  0.2215
13286TIP3    H161273   5.377   0.663   4.541  0.8559  1.0277  1.1264
13286TIP3    H261274   5.520   0.648   4.493  1.0180  0.0922  1.8942
13287TIP3   OH261275   2.852   0.080  12.233 -0.3046  0.0351 -0.2577
13287TIP3    H161276   2.824   0.044  12.317 -0.0289 -1.5703 -0.8235
13287TIP3    H261277   2.902   0.158  12.255 -0.8571  0.0317  1.0327
13288TIP3   OH261278   5.004   4.231   0.048  0.2227  0.0066 -0.2664
13288TIP3    H161279   5.000   4.287  -0.030 -1.7875  1.6898  0.9929
13288TIP3    H261280   5.082   4.261   0.095  1.0356 -0.5306 -1.2384
13289TIP3   OH261281   2.272   3.592  15.402  0.1770  0.2413 -0.1085
13289TIP3    H161282   2.313   3.619  15.320 -0.5917 -0.3059 -0.6736
13289TIP3    H261283   2.203   3.532  15.376 -1.0789  1.2613  0.8350
13290TIP3   OH261284   4.419   5.272   3.865  0.1601  0.6224 -0.2569
13290TIP3    H161285   4.402   5.259   3.772 -0.6207  1.6435 -0.2687
13290TIP3    H261286   4.416   5.184   3.902 -1.1910  0.3649 -0.9414
13291TIP3   OH261287   1.157   0.308  14.137 -0.2661 -0.6843 -0.3072
13291TIP3    H161288   1.095   0.328  14.207  0.8420  0.6173  0.3439
13291TIP3    H261289   1.187   0.219  14.156 -0.6152 -0.6598  0.3797
13292TIP3   OH261290   3.652   5.797  15.916 -0.0307 -0.8155  0.3170
13292TIP3    H161291   3.649   5.847  15.998 -1.8587 -0.6572  0.1801
13292TIP3    H261292   3.611   5.854  15.852 -0.0657 -1.5880 -0.3501
13293TIP3   OH261293   6.110   4.797  13.721  0.1761 -0.5041 -0.1484
13293TIP3    H161294   6.130   4.735  13.651 -0.1683  0.1661 -0.8412
13293TIP3    H261295   6.019   4.823  13.705  0.8550  1.4987 -0.8694
13294TIP3   OH261296   3.868   0.953   1.955 -0.3516  0.2764 -0.8825
13294TIP3    H161297   3.918   1.028   1.986 -1.3580  1.2157 -1.4553
13294TIP3    H261298   3.835   0.911   2.034 -1.1808  1.4420 -0.5853
13295TIP3   OH261299   5.313   5.395  15.478 -0.3404 -0.0931  0.2756
13295TIP3    H161300   5.275   5.375  15.393  0.1227 -0.4845  0.1588
13295TIP3    H261301   5.316   5.312  15.525  1.1764 -0.2428 -0.0490
13296TIP3   OH261302   3.167   0.126  16.839  0.8737  0.5016 -0.5932
13296TIP3    H161303   3.085   0.108  16.792  1.7360 -0.6679 -1.6714
13296TIP3    H261304   3.162   0.219  16.860 -0.3650  0.6316 -1.3660
13297TIP3   OH261305   0.683   6.433   3.117  0.2921  0.5229 -0.2733
13297TIP3    H161306   0.667   6.434   3.023  0.9155  1.2745 -0.3720
13297TIP3    H261307   0.674   6.341   3.141 -0.5383  0.4220 -0.9506
13298TIP3   OH261308   0.543   6.729   5.571 -0.2657 -0.1828 -0.4780
13298TIP3    H161309   0.505   6.674   5.639 -0.5677  0.4139 -0.1668
13298TIP3    H261310   0.491   6.710   5.493 -1.1285  0.5238 -0.0888
13299TIP3   OH261311   1.314   1.992  16.709 -0.2523 -0.2092  0.3667
13299TIP3    H161312   1.314   2.077  16.753  2.2439 -0.7278  1.4538
13299TIP3    H261313   1.390   1.996  16.650 -1.3247 -0.9304 -1.0720
13300TIP3   OH261314   3.214   5.410  12.927  0.1024  0.1812  0.3403
13300TIP3    H161315   3.154   5.372  12.991 -2.7879  2.4886 -0.8893
13300TIP3    H261316   3.186   5.372  12.843  1.4657 -0.0129 -0.0382
13301TIP3   OH261317   5.795   4.064   3.659  0.5933  0.3667  0.5844
13301TIP3    H161318   5.876   4.017   3.637 -0.0578 -0.3146 -0.4149
13301TIP3    H261319   5.813   4.155   3.634  0.2521 -0.1976 -1.9302
13302TIP3   OH261320   4.621   4.470   0.571  0.0196  0.5387 -0.3623
13302TIP3    H161321   4.646   4.492   0.481  1.4060  0.0466 -0.1076
13302TIP3    H261322   4.633   4.376   0.577  1.4916  0.7920  0.8170
13303TIP3   OH261323   5.561   3.239  11.904 -0.1687 -0.3431  0.3431
13303TIP3    H161324   5.603   3.320  11.933 -0.4454 -0.1952  0.3379
13303TIP3    H261325   5.629   3.173  11.910 -0.8551 -0.8522  3.8492
13304TIP3   OH261326   5.064   0.094  17.159  0.4444  0.0085  0.6719
13304TIP3    H161327   4.971   0.115  17.166 -0.1749 -1.8110 -1.5366
13304TIP3    H261328   5.068  -0.002  17.166  1.7341 -0.2704 -2.8345
13305TIP3   OH261329   5.737   6.349  12.507 -0.4133  0.2231 -0.3779
13305TIP3    H161330   5.694   6.415  12.561 -1.8164  0.7427 -2.1113
13305TIP3    H261331   5.723   6.267  12.555 -1.1702  0.7517  0.3200
13306TIP3   OH261332   4.619   0.897  11.491  0.0546 -0.1043  0.8999
13306TIP3    H161333   4.638   0.920  11.400 -0.4992 -0.0491  0.7923
13306TIP3    H261334   4.704   0.887  11.532  0.3122 -1.1488  0.1248
13307TIP3   OH261335   2.734   4.221   1.329 -0.4814  0.1975 -0.6042
13307TIP3    H161336   2.726   4.133   1.365  0.2815  0.4893  0.2907
13307TIP3    H261337   2.647   4.260   1.344 -1.1607 -0.7426 -1.9683
13308TIP3   OH261338   3.194   4.720   5.660 -0.5079  0.1551  0.3918
13308TIP3    H161339   3.277   4.754   5.627 -0.3571  1.2402  1.8513
13308TIP3    H261340   3.148   4.689   5.582  1.0400  0.0446 -0.4805
13309TIP3   OH261341   5.322   0.537  13.754  0.3618  0.1211  0.4335
13309TIP3    H161342   5.247   0.486  13.726  0.4998 -0.5078  1.1706
13309TIP3    H261343   5.289   0.627  13.762  0.1757  0.1982 -1.0917
13310TIP3   OH261344   2.484   4.159  11.170 -0.0758  0.0177 -0.1933
13310TIP3    H161345   2.484   4.090  11.103  0.0663  1.7068 -1.9671
13310TIP3    H261346   2.394   4.192  11.169 -0.5016 -1.0248  1.6188
13311TIP3   OH261347   1.948   1.369  14.666 -0.5485  0.3546  0.0189
13311TIP3    H161348   1.940   1.452  14.619  0.8934  0.7580  0.4531
13311TIP3    H261349   1.911   1.304  14.606  1.0325  0.8944 -1.5958
13312TIP3   OH261350   6.555   1.037  13.437 -0.1959  0.8467  0.3181
13312TIP3    H161351   6.537   0.956  13.389 -0.1821  0.5173  0.8636
13312TIP3    H261352   6.645   1.029  13.466 -0.2145  1.0263  0.4313
13313TIP3   OH261353   1.955   2.671  13.681  0.1947 -0.1439 -0.6085
13313TIP3    H161354   1.998   2.618  13.748  0.9796 -0.0849 -1.0683
13313TIP3    H261355   1.940   2.756  13.723 -1.5286 -0.8574  0.3090
13314TIP3   OH261356   4.778   5.102   1.154  0.0246  0.2572 -0.3783
13314TIP3    H161357   4.839   5.031   1.173  0.9990  1.2222  0.1744
13314TIP3    H261358   4.772   5.104   1.059  0.6264 -0.0242 -0.4240
13315TIP3   OH261359   0.462   6.633  11.254  0.1791 -0.4592  0.3227
13315TIP3    H161360   0.438   6.713  11.301  1.6865  0.3650 -0.2892
13315TIP3    H261361   0.407   6.634  11.176 -0.3660 -0.4398  0.6987
13316TIP3   OH261362   4.256   0.321   0.129  0.3745  0.6972  0.0861
13316TIP3    H161363   4.263   0.409   0.092 -1.3710  0.5624 -0.5552
13316TIP3    H261364   4.235   0.265   0.055  0.9317 -0.1925  0.5941
13317TIP3   OH261365   5.542   6.708  16.364 -0.3445 -0.3207 -0.1384
13317TIP3    H161366   5.637   6.718  16.361 -0.2800 -0.4859  1.1904
13317TIP3    H261367   5.510   6.769  16.298  0.7476 -1.2960 -1.6323
13318TIP3   OH261368   3.803   1.329  11.974  0.6291 -0.4641  0.3535
13318TIP3    H161369   3.735   1.346  12.039 -1.6080 -0.4919 -1.9519
13318TIP3    H261370   3.823   1.415  11.937  2.4773 -0.3292  1.5399
13319TIP3   OH261371   0.711   4.162  14.568 -0.1722 -0.0837  0.1466
13319TIP3    H161372   0.693   4.250  14.536 -1.8903 -0.8728 -1.1740
13319TIP3    H261373   0.744   4.115  14.492 -1.7390 -1.2737  0.1885
13320TIP3   OH261374   6.080   5.359   0.960 -0.3743 -1.0398 -0.2794
13320TIP3    H161375   5.997   5.369   1.005  1.0012  2.4897  1.6127
13320TIP3    H261376   6.125   5.289   1.008 -0.8320 -0.5358  0.8975
13321TIP3   OH261377   5.065   0.900  13.178  0.4021  0.3027 -0.0342
13321TIP3    H161378   5.124   0.899  13.103 -0.9850 -0.3643 -1.1548
13321TIP3    H261379   5.000   0.967  13.156 -1.7179 -1.9496 -0.8211
13322TIP3   OH261380   4.640   2.350   0.914  0.3677 -0.0185 -0.2167
13322TIP3    H161381   4.659   2.387   1.000  1.9641 -0.5661 -0.3198
13322TIP3    H261382   4.586   2.273   0.932  1.4686 -0.6675  0.3704
13323TIP3   OH261383   2.011   6.164   6.193 -0.4528 -0.4965 -0.6113
13323TIP3    H161384   1.968   6.202   6.270 -0.9449 -0.1814 -1.0328
13323TIP3    H261385   2.094   6.129   6.226  0.7163  2.2725 -0.4640
13324TIP3   OH261386   6.589   1.728  16.417 -0.4402  0.0008 -0.6790
13324TIP3    H161387   6.533   1.662  16.457 -0.9782  0.1401 -1.2032
13324TIP3    H261388   6.660   1.741  16.480 -1.8154  0.9866  0.7119
13325TIP3   OH261389   0.335   6.220  16.791 -0.0495 -0.7455 -0.2031
13325TIP3    H161390   0.259   6.280  16.792 -0.0898 -0.8026  0.4486
13325TIP3    H261391   0.368   6.225  16.702  0.2129  0.6011 -0.0474
13326TIP3   OH261392   3.243   4.777   0.522  0.4068  0.6939 -0.9613
13326TIP3    H161393   3.262   4.741   0.609 -3.8656  2.1743  0.7099
13326TIP3    H261394   3.286   4.862   0.522  0.2717  0.7716 -0.1926
13327TIP3   OH261395   1.342   3.960   3.094 -1.2304 -0.0740  0.2538
13327TIP3    H161396   1.293   4.030   3.050  0.6625  1.2471  0.1490
13327TIP3    H261397   1.433   3.975   3.068 -0.4367 -0.9976  2.3583
13328TIP3   OH261398   1.984   2.250  16.651  0.5248  0.1197 -0.3913
13328TIP3    H161399   1.907   2.198  16.628  0.9090 -0.6535  0.0099
13328TIP3    H261400   2.018   2.207  16.730  0.8447  1.0035 -0.0462
13329TIP3   OH261401   0.050   3.322  13.789  1.0264  0.6285  0.1788
13329TIP3    H161402   0.109   3.247  13.803  0.6320  0.6318  1.9210
13329TIP3    H261403  -0.027   3.284  13.748  1.7026  0.4318 -0.9519
13330TIP3   OH261404   2.193   3.102  13.390 -0.0552 -0.0541 -0.1859
13330TIP3    H161405   2.152   3.148  13.463  1.0192  1.7368 -0.6807
13330TIP3    H261406   2.193   3.010  13.416  1.3691  0.6909  2.5947
13331TIP3   OH261407   3.583   4.939   2.884 -0.2233 -0.0228  0.4791
13331TIP3    H161408   3.664   4.978   2.852  0.0163 -1.0959 -0.2260
13331TIP3    H261409   3.514   4.991   2.843  0.0921  1.0819  1.3170
13332TIP3   OH261410   1.153   4.989  15.266  0.1704 -0.2800 -0.0602
13332TIP3    H161411   1.240   4.996  15.226  0.5536 -0.3589  0.7418
13332TIP3    H261412   1.157   4.907  15.316  0.3561  0.7760  1.6928
13333TIP3   OH261413   3.200   0.455  13.908 -0.0901  0.0749 -0.6509
13333TIP3    H161414   3.161   0.404  13.837  0.6136 -2.2872  0.6141
13333TIP3    H261415   3.125   0.487  13.958 -0.5088 -2.5215  0.4449
13334TIP3   OH261416   4.780   4.119   5.120  0.0079  0.1635 -0.0213
13334TIP3    H161417   4.768   4.139   5.213 -2.8559 -0.2965 -0.2593
13334TIP3    H261418   4.748   4.197   5.074  1.4021  0.3871 -0.6384
13335TIP3   OH261419   5.239   5.142  12.721  0.7362  0.9207 -0.2009
13335TIP3    H161420   5.236   5.107  12.633 -0.2903 -1.6634  0.8131
13335TIP3    H261421   5.151   5.176  12.737 -0.0709 -1.6173  0.9627
13336TIP3   OH261422   3.750   4.793   0.915 -0.3844 -0.2628  0.1191
13336TIP3    H161423   3.829   4.827   0.957 -0.8159  1.2322 -0.2439
13336TIP3    H261424   3.756   4.698   0.925  0.2606 -0.0244  2.2496
13337TIP3   OH261425   0.344   5.440  13.094  0.1386 -0.0464 -0.1113
13337TIP3    H161426   0.426   5.422  13.047 -0.6109  0.8013 -1.8151
13337TIP3    H261427   0.371   5.457  13.184  1.6452 -1.5409 -0.2577
13338TIP3   OH261428   2.035   0.043  14.706  0.2159  0.6484 -0.1836
13338TIP3    H161429   2.040  -0.052  14.709 -0.5692  0.6153  0.2137
13338TIP3    H261430   2.125   0.072  14.695  0.6018 -0.1004  0.9050
13339TIP3   OH261431   5.505   6.166   1.658 -0.1084 -0.1043 -0.4829
13339TIP3    H161432   5.498   6.071   1.646  1.4099 -0.4489  1.1219
13339TIP3    H261433   5.594   6.188   1.630  0.1461  0.5516  0.7845
13340TIP3   OH261434   1.080   4.148  16.398 -0.8901 -0.2401  0.4701
13340TIP3    H161435   1.021   4.087  16.354  1.0984 -1.9601  0.1650
13340TIP3    H261436   1.166   4.130  16.360 -0.1975  2.4922  0.6542
13341TIP3   OH261437   6.490   0.557   2.466  0.2259  0.3497  0.1919
13341TIP3    H161438   6.499   0.627   2.402  0.3630  0.4132  0.2804
13341TIP3    H261439   6.426   0.591   2.529 -1.4171 -0.5013 -0.9740
13342TIP3   OH261440   1.656   0.850  14.324  0.6610  0.1428 -0.5741
13342TIP3    H161441   1.659   0.868  14.418 -0.9815  0.3350 -0.5446
13342TIP3    H261442   1.605   0.769  14.317 -0.0654  0.6683 -1.3737
13343TIP3   OH261443   3.404   0.309   4.202  0.5626  0.2104 -0.6577
13343TIP3    H161444   3.342   0.356   4.145  0.3182 -0.3065 -0.8227
13343TIP3    H261445   3.481   0.295   4.147 -0.2087 -1.5337 -1.3269
13344TIP3   OH261446   5.093   5.036  15.665  0.3566 -0.2127  0.4294
13344TIP3    H161447   5.042   5.107  15.627  1.2415  0.5829  0.7314
13344TIP3    H261448   5.066   5.033  15.756  0.2710 -0.3202  0.4022
13345TIP3   OH261449   2.679   2.382   6.326  0.2102 -0.1939 -0.1909
13345TIP3    H161450   2.762   2.339   6.345  0.4321 -0.1182 -0.9883
13345TIP3    H261451   2.702   2.473   6.312  0.0538 -0.2555 -0.8575
13346TIP3   OH261452   1.034   6.774  16.586  0.0009  0.0390 -0.4630
13346TIP3    H161453   0.949   6.731  16.585 -0.3069  0.5686  1.1009
13346TIP3    H261454   1.098   6.703  16.582 -0.5108 -0.5130  0.9245
13347TIP3   OH261455   4.123   5.745   1.684  0.6318  0.3842  0.3756
13347TIP3    H161456   4.155   5.677   1.744 -0.5433 -0.7587 -0.2459
13347TIP3    H261457   4.179   5.738   1.607 -1.1495 -1.7391 -0.7880
13348TIP3   OH261458   6.433   6.233   0.597  0.9141  0.1420  0.6273
13348TIP3    H161459   6.521   6.272   0.596  0.7584  0.4878 -2.1591
13348TIP3    H261460   6.420   6.200   0.508 -2.0565  0.6984  0.8113
13349TIP3   OH261461   6.103   3.582  10.983  0.1479 -0.2074 -0.3704
13349TIP3    H161462   6.068   3.653  11.037  1.1653  0.5701 -0.7225
13349TIP3    H261463   6.184   3.617  10.946  2.1518 -2.5292  1.6868
13350TIP3   OH261464   0.319   0.380  12.795 -0.4236  0.1516  0.2205
13350TIP3    H161465   0.396   0.326  12.815 -0.6001 -0.7187 -1.4083
13350TIP3    H261466   0.244   0.326  12.820 -0.5420  0.6051  0.8597
13351TIP3   OH261467   2.589   2.091   4.945 -0.5139 -0.1122  0.4204
13351TIP3    H161468   2.501   2.104   4.981 -0.6543  0.0700  0.0188
13351TIP3    H261469   2.590   2.145   4.866 -0.3720 -0.8620 -0.1028
13352TIP3   OH261470   2.583   5.465   3.640 -0.1814  0.4114 -0.9540
13352TIP3    H161471   2.644   5.394   3.621 -0.6817  0.5298 -3.0486
13352TIP3    H261472   2.555   5.497   3.555 -3.1017  0.4516 -0.0266
13353TIP3   OH261473   1.098   1.872   0.264 -0.1320 -0.9661  0.2649
13353TIP3    H161474   1.074   1.783   0.288 -1.6995 -0.2333  1.6125
13353TIP3    H261475   1.027   1.901   0.207  1.4654 -1.2844 -1.9084
13354TIP3   OH261476   4.254   6.553  15.862  0.3071  0.1768 -0.0723
13354TIP3    H161477   4.221   6.466  15.838  0.2040  1.1451 -3.8440
13354TIP3    H261478   4.175   6.605  15.880  0.0729  0.6458 -2.2874
13355TIP3   OH261479   1.873   3.486   1.244 -0.6396 -0.3452 -0.2228
13355TIP3    H161480   1.877   3.459   1.153 -0.2588 -1.4102  0.1020
13355TIP3    H261481   1.960   3.465   1.279  0.1616  2.5517 -0.2849
13356TIP3   OH261482   6.777   5.149  16.021 -0.4139  0.1448 -0.0074
13356TIP3    H161483   6.861   5.104  16.018 -0.5271 -0.0478 -0.4384
13356TIP3    H261484   6.766   5.184  15.932 -1.2247 -0.6442 -0.2300
13357TIP3   OH261485   3.971   1.700  17.192  0.3908 -0.2224  0.2711
13357TIP3    H161486   3.956   1.722  17.100 -1.9921 -1.1848  0.3898
13357TIP3    H261487   3.900   1.744  17.238 -0.0306 -2.0069  1.3390
13358TIP3   OH261488   5.757   4.728   6.085 -0.2525  0.1013 -0.0712
13358TIP3    H161489   5.751   4.679   6.168 -0.7735  0.7218  0.2599
13358TIP3    H261490   5.822   4.679   6.034  0.8836  0.3149  1.1167
13359TIP3   OH261491   3.861   2.912   2.087  0.2322 -0.0274  0.6785
13359TIP3    H161492   3.822   2.952   2.009  0.8937  1.2152  0.9709
13359TIP3    H261493   3.933   2.859   2.053 -0.1718 -0.3752  0.3541
13360TIP3   OH261494   4.960   0.746  16.410 -0.2543 -0.4676 -0.5148
13360TIP3    H161495   4.885   0.779  16.459 -1.7122 -2.0261 -1.6769
13360TIP3    H261496   4.963   0.800  16.331 -0.1500 -0.4200 -0.4773
13361TIP3   OH261497   5.684   5.102  11.065 -0.1094 -0.5588  0.4568
13361TIP3    H161498   5.639   5.025  11.030  0.6791 -0.5371 -0.6287
13361TIP3    H261499   5.666   5.100  11.159 -0.9686 -1.4789  0.2811
13362TIP3   OH261500   6.583   4.156   3.055  0.1122  0.3937 -0.6943
13362TIP3    H161501   6.490   4.156   3.076  0.3438 -0.8128  0.4094
13362TIP3    H261502   6.625   4.195   3.131  0.6399 -0.6116 -0.4522
13363TIP3   OH261503   0.713   6.123  12.816 -0.1990 -0.4112  0.1195
13363TIP3    H161504   0.743   6.033  12.819 -1.2955 -0.8031 -0.2936
13363TIP3    H261505   0.756   6.166  12.890 -0.4634 -1.5206  0.9200
13364TIP3   OH261506   6.208   0.266   0.193  0.4274 -0.3284  0.3481
13364TIP3    H161507   6.304   0.263   0.201  0.3254 -1.0461  1.4348
13364TIP3    H261508   6.187   0.202   0.125  0.8115  0.8045 -0.8538
13365TIP3   OH261509   1.303   0.363   2.739 -0.1121  0.3520  0.0211
13365TIP3    H161510   1.287   0.457   2.754 -0.4924 -0.0004  2.0455
13365TIP3    H261511   1.305   0.354   2.644  1.9249  2.7499 -0.2220
13366TIP3   OH261512   2.052   3.523  16.818  1.0589 -0.0652 -0.9385
13366TIP3    H161513   2.141   3.517  16.855  1.7079  1.3745 -2.2222
13366TIP3    H261514   2.011   3.595  16.866 -0.0861 -1.9236  0.9518
13367TIP3   OH261515   4.256   4.603   0.451  0.1857 -0.0988  0.1234
13367TIP3    H161516   4.201   4.655   0.392 -0.8768  0.0306  1.2216
13367TIP3    H261517   4.224   4.624   0.539  3.7990  2.1356  1.0010
13368TIP3   OH261518   5.567   1.705  12.638 -0.1804  0.0973  0.7497
13368TIP3    H161519   5.643   1.735  12.587 -0.5008  0.0965  0.2660
13368TIP3    H261520   5.492   1.746  12.594 -0.4800 -0.1261  1.0594
13369TIP3   OH261521   4.967   5.570   3.403 -0.4116  0.1977 -0.4730
13369TIP3    H161522   4.905   5.637   3.374 -0.4100  0.1906 -0.4930
13369TIP3    H261523   4.930   5.488   3.369  0.3335  0.3464 -1.7040
13370TIP3   OH261524   4.040   3.836  16.429 -0.0454 -0.1615  0.5022
13370TIP3    H161525   4.091   3.823  16.349 -0.1388  1.1900  0.2204
13370TIP3    H261526   4.100   3.881  16.489 -0.2106 -0.5272  0.9513
13371TIP3   OH261527   2.291   6.458  16.805 -0.3938 -0.0200  0.3126
13371TIP3    H161528   2.276   6.546  16.839 -0.6897  0.4494 -0.9663
13371TIP3    H261529   2.203   6.419  16.800 -0.6681  0.8113 -2.1854
13372TIP3   OH261530   1.392   0.791   3.845 -0.5278 -0.3150 -0.0564
13372TIP3    H161531   1.373   0.884   3.842  1.0917  0.0227 -0.0363
13372TIP3    H261532   1.378   0.766   3.936  1.4760  0.4317  0.4543
13373TIP3   OH261533   1.087   5.036   1.501  0.2437 -0.0277 -0.0680
13373TIP3    H161534   1.130   4.988   1.572 -0.8977 -0.2671  0.4628
13373TIP3    H261535   1.120   4.995   1.421  1.6664  0.3529  0.3061
13374TIP3   OH261536   2.384   5.207  12.741  0.2076 -0.5482 -0.0366
13374TIP3    H161537   2.315   5.145  12.762 -0.0956 -0.6183 -1.1771
13374TIP3    H261538   2.363   5.285  12.792  0.0005 -1.0178  0.5934
13375TIP3   OH261539   6.227   1.747   2.306  0.0749 -0.1823 -0.2123
13375TIP3    H161540   6.267   1.732   2.391 -1.5583  1.1081  0.8072
13375TIP3    H261541   6.202   1.839   2.306 -0.8084 -0.3950 -1.7085
13376TIP3   OH261542   1.050   2.261   3.946  0.2521 -0.1297  0.2923
13376TIP3    H161543   1.116   2.198   3.917 -2.1217 -1.8690 -1.6466
13376TIP3    H261544   1.025   2.231   4.033  0.1524 -1.0612 -0.0454
13377TIP3   OH261545   1.822   6.524   0.374 -0.0002  0.2489  0.5658
13377TIP3    H161546   1.901   6.560   0.334  0.0421  0.1684  0.5774
13377TIP3    H261547   1.850   6.498   0.462  0.4717 -1.6703 -0.1173
13378TIP3   OH261548   3.935   4.344  13.962 -0.3202  0.4897 -0.7140
13378TIP3    H161549   3.865   4.382  13.907 -0.2804  1.6171 -0.0145
13378TIP3    H261550   3.966   4.268  13.913 -2.4875 -0.4153 -0.7390
13379TIP3   OH261551   0.458   5.441  11.395  0.1702  0.2319 -0.4121
13379TIP3    H161552   0.434   5.451  11.487  1.2409  1.5102 -0.2687
13379TIP3    H261553   0.465   5.346  11.383 -2.6436 -0.1116  0.1120
13380TIP3   OH261554   4.001   4.474  15.533 -0.3928  0.2330  0.1627
13380TIP3    H161555   4.026   4.521  15.453  0.5234  0.4623  0.5807
13380TIP3    H261556   3.953   4.397  15.501  2.4615 -1.2171 -0.7589
13381TIP3   OH261557   5.890   4.567  10.484 -0.4877  0.2411  0.4299
13381TIP3    H161558   5.805   4.523  10.485 -0.5061  0.1916 -1.3163
13381TIP3    H261559   5.938   4.525  10.412  0.7756  0.7085  0.9873
13382TIP3   OH261560   2.477   3.306  16.323 -0.0470 -0.0497  0.3097
13382TIP3    H161561   2.544   3.321  16.257 -0.0937 -0.3535  0.1952
13382TIP3    H261562   2.399   3.352  16.290  0.0670  0.2073  0.3896
13383TIP3   OH261563   2.196   6.155   3.102 -0.3219 -0.4908  0.5392
13383TIP3    H161564   2.140   6.174   3.177  0.4120  0.3336  0.8917
13383TIP3    H261565   2.243   6.076   3.126  1.2679  0.7934  1.7398
13384TIP3   OH261566   6.580   0.958  12.168 -0.3322 -0.2682 -0.0534
13384TIP3    H161567   6.524   0.994  12.099 -0.5823 -0.6111 -0.0301
13384TIP3    H261568   6.530   0.884  12.203  0.6896 -1.3775 -0.8940
13385TIP3   OH261569   0.185   3.779   2.436 -0.1911 -0.0303 -0.0487
13385TIP3    H161570   0.171   3.872   2.454 -0.3883 -0.1083  0.2103
13385TIP3    H261571   0.234   3.747   2.512 -3.4837 -0.9857  1.7407
13386TIP3   OH261572   5.788   3.713   1.909 -0.2777 -0.3896  0.1811
13386TIP3    H161573   5.745   3.706   1.994 -0.3695  1.3942  0.2919
13386TIP3    H261574   5.812   3.623   1.887 -1.8492 -1.0930  1.2565
13387TIP3   OH261575   3.838   0.933  13.170 -0.2723 -0.2204 -0.2862
13387TIP3    H161576   3.917   0.985  13.178 -0.3932 -0.3263  1.7600
13387TIP3    H261577   3.866   0.852  13.127  0.5052  0.1798 -0.5407
13388TIP3   OH261578   0.369   0.320  16.483 -0.3404 -0.0071  0.0107
13388TIP3    H161579   0.444   0.349  16.535 -0.6924  0.7313  0.1234
13388TIP3    H261580   0.406   0.267  16.413  0.1368 -1.0518  1.0340
13389TIP3   OH261581   0.071   1.727   4.181 -0.0657 -0.2959 -0.3318
13389TIP3    H161582   0.076   1.695   4.091 -1.1265  1.1781 -0.9480
13389TIP3    H261583   0.083   1.822   4.174 -2.2896  0.1290  0.8075
13390TIP3   OH261584   2.930   0.794   1.355  0.7018 -0.1325  0.0395
13390TIP3    H161585   2.982   0.871   1.332 -1.3368  0.6582 -2.1172
13390TIP3    H261586   2.855   0.829   1.402 -0.5781 -0.7095 -1.5379
13391TIP3   OH261587   0.258   5.909   3.960  0.1830 -0.1499 -0.6086
13391TIP3    H161588   0.163   5.919   3.956  0.1276 -0.8489 -1.0575
13391TIP3    H261589   0.272   5.837   4.021  0.4166 -0.2469 -0.7753
13392TIP3   OH261590   3.083   2.891   2.508 -0.1549 -0.3363 -0.7374
13392TIP3    H161591   3.048   2.803   2.520 -1.8383  0.3533 -0.3955
13392TIP3    H261592   3.116   2.916   2.594  0.7122 -0.7866 -0.9345
13393TIP3   OH261593   4.994   0.051   6.232 -0.4680 -0.1847  0.3022
13393TIP3    H161594   5.005   0.146   6.230 -0.2530 -0.1878  1.0492
13393TIP3    H261595   5.084   0.017   6.226 -0.7120 -0.3908 -2.4341
13394TIP3   OH261596   2.037   5.437   1.761  0.4832 -0.2083  0.1399
13394TIP3    H161597   2.052   5.494   1.837  0.2884 -0.5840  0.4643
13394TIP3    H261598   2.083   5.480   1.689  0.2077  0.4376  0.3457
13395TIP3   OH261599   1.725   0.613   3.354  0.0919 -1.0975 -0.0932
13395TIP3    H161600   1.704   0.640   3.443 -1.6315  0.4034 -0.9130
13395TIP3    H261601   1.661   0.544   3.334  0.5566 -1.5199 -0.1196
13396TIP3   OH261602   6.122   0.436   4.759  0.7058 -0.2321 -0.4211
13396TIP3    H161603   6.117   0.424   4.854 -3.3108  0.8328 -0.3965
13396TIP3    H261604   6.166   0.358   4.727  0.8343 -1.2880  2.1981
13397TIP3   OH261605   5.264   0.748  14.216 -0.1071 -0.0676 -0.4155
13397TIP3    H161606   5.253   0.684  14.286 -1.3983  0.3003 -0.2856
13397TIP3    H261607   5.282   0.830  14.261  2.0201 -0.3933 -0.5899
13398TIP3   OH261608   0.621   3.491   5.275 -0.9566  0.1617  0.1323
13398TIP3    H161609   0.540   3.456   5.239 -2.2547  3.0216  0.1471
13398TIP3    H261610   0.612   3.481   5.370 -1.3484  0.5664  0.1386
13399TIP3   OH261611   5.433   2.102  13.155  0.0427 -0.0986 -0.1018
13399TIP3    H161612   5.524   2.073  13.158 -0.6711 -2.5164 -0.5143
13399TIP3    H261613   5.399   2.065  13.074 -1.2563  0.9841 -0.0691
13400TIP3   OH261614   2.713   3.989  14.434 -0.6746  0.1362 -1.0403
13400TIP3    H161615   2.707   4.064  14.493  1.5101  0.2989 -0.9780
13400TIP3    H261616   2.748   4.025  14.353  0.6242 -0.8352 -0.9305
13401TIP3   OH261617   5.663   5.942  16.035 -0.2144 -0.3469  0.5115
13401TIP3    H161618   5.722   5.933  16.110  0.0641  0.7115  0.4247
13401TIP3    H261619   5.594   5.878  16.051  0.5368 -1.0425  1.0125
13402TIP3   OH261620   1.015   4.945  11.205 -0.1545  0.5309  0.6568
13402TIP3    H161621   1.085   4.913  11.262  1.5174  0.1755 -1.5360
13402TIP3    H261622   0.940   4.888  11.224  0.6912 -0.2395  1.7336
13403TIP3   OH261623   3.716   0.080   1.515  0.2728 -0.0426 -0.2617
13403TIP3    H161624   3.743  -0.007   1.545 -2.6261 -0.7001  0.6125
13403TIP3    H261625   3.649   0.062   1.449 -0.1705  1.5301 -0.2493
13404TIP3   OH261626   6.365   1.564   0.506 -0.5639 -0.0617 -0.1396
13404TIP3    H161627   6.437   1.616   0.542 -0.5170  0.6308 -1.1839
13404TIP3    H261628   6.340   1.505   0.576  1.9533 -1.2723 -0.2012
13405TIP3   OH261629   1.405   2.836   5.902 -0.1457 -0.6405 -0.0221
13405TIP3    H161630   1.417   2.797   5.816  0.5325 -0.3200 -0.0782
13405TIP3    H261631   1.361   2.768   5.954 -1.2433 -0.5546 -0.8363
13406TIP3   OH261632   3.696   3.843  10.660 -0.3829  0.8272  0.3758
13406TIP3    H161633   3.694   3.763  10.712 -1.4745 -0.0224 -0.9056
13406TIP3    H261634   3.633   3.901  10.703 -0.7281  0.4129  0.4340
13407TIP3   OH261635   0.497   2.172  14.184  0.5452 -0.3301  0.0416
13407TIP3    H161636   0.459   2.091  14.150 -2.5394  0.5866  1.0576
13407TIP3    H261637   0.586   2.149  14.208 -0.1549 -3.3363 -0.0315
13408TIP3   OH261638   4.637   2.379   0.348 -0.0904  0.1621  0.5167
13408TIP3    H161639   4.677   2.376   0.262 -0.4864 -2.2316  0.3790
13408TIP3    H261640   4.620   2.288   0.370 -2.5140  0.9043  1.9430
13409TIP3   OH261641   3.362   1.533  16.374 -0.1894 -0.1587  0.5984
13409TIP3    H161642   3.302   1.545  16.300  0.2716  0.1537  0.2738
13409TIP3    H261643   3.414   1.457  16.350  0.0558  0.0276  0.5373
13410TIP3   OH261644   2.371   0.440   3.356 -0.2007  0.4002  0.0701
13410TIP3    H161645   2.278   0.451   3.335 -0.4362  0.7779  1.2892
13410TIP3    H261646   2.376   0.354   3.397  0.2071 -0.1885 -1.1812
13411TIP3   OH261647   5.670   5.881  14.415 -0.1400 -0.5063 -0.4417
13411TIP3    H161648   5.635   5.910  14.499 -1.6789 -0.4081 -1.0956
13411TIP3    H261649   5.643   5.789  14.408 -2.9285  0.3446 -2.2419
13412TIP3   OH261650   3.572   5.473   5.407 -0.2205  0.5075  0.1036
13412TIP3    H161651   3.565   5.397   5.465  0.5081  1.1377  1.0373
13412TIP3    H261652   3.666   5.490   5.401 -0.3379  0.9278 -0.6340
13413TIP3   OH261653   4.910   4.772   2.252 -0.0600  0.0694 -0.0020
13413TIP3    H161654   4.931   4.865   2.260  1.3240 -0.2652  0.4349
13413TIP3    H261655   4.814   4.768   2.256 -0.2221  1.6237 -1.7169
13414TIP3   OH261656   0.166   0.072   5.092  0.0351 -0.2300 -0.0352
13414TIP3    H161657   0.258   0.052   5.076  0.0851 -1.4114  1.6392
13414TIP3    H261658   0.118  -0.000   5.051 -0.1521  0.2565 -0.6903
13415TIP3   OH261659   6.535   4.861   6.581 -0.4585  0.4954 -0.0653
13415TIP3    H161660   6.530   4.953   6.606 -0.5226  0.7353 -0.9470
13415TIP3    H261661   6.448   4.825   6.602 -0.7418  0.8635 -0.6174
13416TIP3   OH261662   3.480   2.899  10.646  0.0488  0.1834 -0.3082
13416TIP3    H161663   3.473   2.931  10.736  0.5645  0.4327 -0.3585
13416TIP3    H261664   3.565   2.855  10.643  0.2001  0.5041 -0.7795
13417TIP3   OH261665   4.580   5.405  16.166 -0.3863  0.2338 -0.6250
13417TIP3    H161666   4.576   5.496  16.136  0.6177 -0.4351 -2.9482
13417TIP3    H261667   4.518   5.359  16.110 -0.0718 -0.6938 -0.2195
13418TIP3   OH261668   4.228   3.904   4.195  0.5939 -0.5498 -0.2099
13418TIP3    H161669   4.232   3.969   4.125 -0.5434 -0.3717 -0.1155
13418TIP3    H261670   4.216   3.955   4.275  1.8681 -0.7538  0.1201
13419TIP3   OH261671   2.803   3.393  14.711  0.0222 -0.7874 -0.2478
13419TIP3    H161672   2.776   3.484  14.728 -1.4620 -1.1156 -0.7562
13419TIP3    H261673   2.893   3.400  14.680  0.3176  0.4164  0.8289
13420TIP3   OH261674   3.406   4.586   0.133  0.0252 -0.6136  0.2265
13420TIP3    H161675   3.322   4.546   0.156 -0.8116  1.3632  0.7221
13420TIP3    H261676   3.436   4.627   0.214  0.7872 -0.1240 -0.2989
13421TIP3   OH261677   1.715   6.661  11.260 -0.0474 -0.1369  0.2968
13421TIP3    H161678   1.781   6.595  11.283  0.1128  0.0868  0.4830
13421TIP3    H261679   1.641   6.610  11.226  0.3049 -0.3767 -0.1142
13422TIP3   OH261680   3.673   4.926  13.927  0.2216 -0.0752  0.2710
13422TIP3    H161681   3.729   4.917  14.005  0.6870 -2.5995 -0.3174
13422TIP3    H261682   3.730   4.965  13.861  0.3430  0.3655  0.6279
13423TIP3   OH261683   0.724   3.606  15.432  0.4081  0.1028 -0.0743
13423TIP3    H161684   0.642   3.634  15.391  0.9721  1.6620 -0.1937
13423TIP3    H261685   0.792   3.649  15.379  1.2104  0.5347  1.2999
13424TIP3   OH261686   0.187   0.260  14.570  0.4005 -0.3309 -0.1285
13424TIP3    H161687   0.187   0.356  14.579  1.3898 -0.5296  2.1993
13424TIP3    H261688   0.273   0.233  14.602  0.4163 -1.9540 -1.4962
13425TIP3   OH261689   4.104   3.022  14.528 -0.1981  0.0943 -1.0275
13425TIP3    H161690   4.059   2.950  14.573  0.5887 -0.4387 -1.0799
13425TIP3    H261691   4.034   3.068  14.482 -0.7262 -0.5832 -0.9226
13426TIP3   OH261692   2.638   1.970   2.952 -0.0840 -0.3525  0.0002
13426TIP3    H161693   2.619   1.963   3.045  0.5034 -1.3627  0.0514
13426TIP3    H261694   2.733   1.965   2.946 -0.0862  0.2080 -0.6196
13427TIP3   OH261695   4.871   3.752   5.389  0.1471 -0.0001  0.3996
13427TIP3    H161696   4.834   3.776   5.304  1.0390 -1.1497 -0.3341
13427TIP3    H261697   4.876   3.656   5.387  1.6819  0.0420  1.0925
13428TIP3   OH261698   2.479   6.282   3.629  0.2693 -0.4040 -0.4888
13428TIP3    H161699   2.556   6.330   3.597 -0.1058 -0.2797 -1.2348
13428TIP3    H261700   2.434   6.255   3.549  0.4318 -1.9386 -0.0689
13429TIP3   OH261701   6.371   3.575  11.161  0.3434 -0.3611 -0.1897
13429TIP3    H161702   6.464   3.597  11.172  0.0944 -0.3479  2.3617
13429TIP3    H261703   6.369   3.514  11.088  2.2534  0.3460 -0.8652
13430TIP3   OH261704   0.813   5.360   4.284 -0.4459  0.1314  0.6110
13430TIP3    H161705   0.871   5.424   4.243 -0.8489 -0.0972 -0.3331
13430TIP3    H261706   0.739   5.411   4.316 -0.6603  0.1728  0.0587
13431TIP3   OH261707   1.299   5.723   3.538 -0.1933  0.2572 -0.0833
13431TIP3    H161708   1.261   5.689   3.619 -1.8180  0.1572 -0.8609
13431TIP3    H261709   1.323   5.645   3.488 -0.2712  0.3019 -0.1908
13432TIP3   OH261710   6.236   1.554   1.616 -0.3562  0.1196  0.0104
13432TIP3    H161711   6.221   1.512   1.701  0.3488 -1.1651 -0.4840
13432TIP3    H261712   6.329   1.540   1.598 -0.2409  1.3919 -0.4489
13433TIP3   OH261713   3.489   2.091   2.545 -0.3070  0.3020 -0.3787
13433TIP3    H161714   3.478   2.167   2.603  0.5200  0.1301  0.0110
13433TIP3    H261715   3.419   2.032   2.570 -0.2245  0.4215  0.1538
13434TIP3   OH261716   4.451   2.275  14.810 -0.3229  0.2472  0.0183
13434TIP3    H161717   4.411   2.216  14.745  1.2646  0.0441 -0.7998
13434TIP3    H261718   4.489   2.216  14.875  2.5250  0.2505 -1.5463
13435TIP3   OH261719   1.580   3.726   3.039 -0.4667  0.1032 -0.2464
13435TIP3    H161720   1.511   3.681   2.989 -0.4267  1.1468 -1.2599
13435TIP3    H261721   1.635   3.766   2.973  0.3135  0.4581  0.6129
13436TIP3   OH261722   2.767   4.291   2.167 -0.0972  0.4524  0.0923
13436TIP3    H161723   2.697   4.238   2.204  0.5704 -0.4620  0.0497
13436TIP3    H261724   2.764   4.373   2.217  1.7031 -1.2771  3.1479
13437TIP3   OH261725   0.296   0.387  15.008 -0.5018  0.0221  0.0340
13437TIP3    H161726   0.308   0.377  14.913 -1.1777  4.0294 -0.5737
13437TIP3    H261727   0.210   0.429  15.016 -0.8598 -1.1224  2.4882
13438TIP3   OH261728   2.367   5.615   1.348  0.1189 -0.5005 -0.0223
13438TIP3    H161729   2.402   5.536   1.391 -0.8778 -1.4217 -0.8592
13438TIP3    H261730   2.374   5.595   1.254 -1.0441  0.0139 -0.2173
13439TIP3   OH261731   3.290   4.246   6.015 -0.1209 -0.6134  0.4813
13439TIP3    H161732   3.358   4.215   5.956  0.9489 -1.5493  2.1888
13439TIP3    H261733   3.236   4.169   6.033 -2.2970  0.3325 -1.6757
13440TIP3   OH261734   2.799   5.901  16.793 -0.0107 -0.0611  0.0036
13440TIP3    H161735   2.855   5.907  16.871  1.7735 -1.4349 -1.1189
13440TIP3    H261736   2.860   5.880  16.722 -2.2135 -3.8366 -0.9087
13441TIP3   OH261737   5.320   6.085   5.143  0.2931  0.2628 -0.1850
13441TIP3    H161738   5.378   6.012   5.122 -0.1189 -0.2994  0.6168
13441TIP3    H261739   5.241   6.068   5.091 -0.4368 -0.7332  1.2400
13442TIP3   OH261740   1.066   5.879   4.620  0.4374  0.0040 -0.0566
13442TIP3    H161741   0.980   5.866   4.581  0.5016 -0.0853 -0.1670
13442TIP3    H261742   1.048   5.924   4.703  0.4138  1.5752 -0.8954
13443TIP3   OH261743   6.541   1.542  15.549 -0.0413 -0.4477 -0.1276
13443TIP3    H161744   6.633   1.569  15.537 -0.7635  2.5647  0.5559
13443TIP3    H261745   6.512   1.518  15.461  0.7571  0.8720 -0.7757
13444TIP3   OH261746   2.534   0.596  15.568  0.0312 -0.2024  0.4922
13444TIP3    H161747   2.572   0.679  15.597  3.1130  0.1643 -4.1110
13444TIP3    H261748   2.454   0.622  15.522 -0.9505 -0.1986  2.1225
13445TIP3   OH261749   2.806   6.785  15.785 -0.1141 -0.1744 -0.1413
13445TIP3    H161750   2.762   6.701  15.798  1.5920 -0.9093  1.0477
13445TIP3    H261751   2.877   6.766  15.724 -0.6645  0.7340 -1.0656
13446TIP3   OH261752   3.010   5.574  12.662 -0.5918  0.2037  0.1480
13446TIP3    H161753   3.023   5.629  12.739 -0.6558  0.5279 -0.0723
13446TIP3    H261754   2.957   5.501  12.693 -1.0207  0.5768  0.3115
13447TIP3   OH261755   6.471   0.366   5.465  0.2068 -0.0667 -0.1976
13447TIP3    H161756   6.396   0.308   5.451  0.6061 -0.5488 -0.3512
13447TIP3    H261757   6.545   0.307   5.478  0.8730  0.4092 -1.6917
13448TIP3   OH261758   5.028   3.569  14.933  0.2588  0.6940  0.3277
13448TIP3    H161759   4.953   3.624  14.955  0.5040  1.2036 -0.1014
13448TIP3    H261760   4.989   3.490  14.896 -0.0671  1.0155 -0.0259
13449TIP3   OH261761   3.875   5.724  11.625  0.4428  0.3928  0.1385
13449TIP3    H161762   3.970   5.727  11.612  0.2824  0.3490 -1.1132
13449TIP3    H261763   3.838   5.757  11.543 -0.6412 -0.7481  0.1450
13450TIP3   OH261764   0.254   4.157   4.468  0.0708 -0.0530  0.4226
13450TIP3    H161765   0.277   4.230   4.410 -1.3830 -0.2446 -0.4105
13450TIP3    H261766   0.162   4.141   4.451  0.0477 -1.2172  1.5908
13451TIP3   OH261767   0.964   5.209   0.298 -0.1667  1.0240  0.5112
13451TIP3    H161768   0.954   5.176   0.387 -3.5773  1.5386  0.3672
13451TIP3    H261769   0.875   5.212   0.263  0.9736  2.1349 -2.4595
13452TIP3   OH261770   6.639   3.427  15.159 -0.2696  0.3123 -0.0628
13452TIP3    H161771   6.673   3.393  15.241 -0.6409  1.9080  0.7624
13452TIP3    H261772   6.545   3.409  15.162 -0.2380  0.0909 -0.2957
13453TIP3   OH261773   1.819   0.869  10.888 -0.0032 -0.4046  0.5890
13453TIP3    H161774   1.832   0.909  10.802 -2.7103 -0.2890  0.1913
13453TIP3    H261775   1.860   0.930  10.949 -0.4193  0.8796 -0.3918
13454TIP3   OH261776   5.648   5.333  14.297 -0.9663 -0.5220 -0.1634
13454TIP3    H161777   5.738   5.299  14.299  0.1159  2.1293 -1.1055
13454TIP3    H261778   5.599   5.276  14.356  1.1716 -2.4962 -0.2490
13455TIP3   OH261779   4.518   2.832   4.187 -0.0017 -0.1551  0.0720
13455TIP3    H161780   4.546   2.882   4.264  1.3871 -0.2872 -0.3307
13455TIP3    H261781   4.564   2.748   4.195 -0.5719 -0.5175 -0.4161
13456TIP3   OH261782   3.658   1.082  13.332  0.0234 -0.1449  0.8617
13456TIP3    H161783   3.713   1.035  13.269  0.6481  1.5150  0.1348
13456TIP3    H261784   3.619   1.013  13.386  0.3591 -1.5367 -0.6228
13457TIP3   OH261785   2.288   1.945   3.016 -0.8372 -0.1375 -0.3537
13457TIP3    H161786   2.375   1.984   3.018 -0.1277 -1.6741 -0.5988
13457TIP3    H261787   2.263   1.937   3.108 -0.9225  0.7213 -0.2952
13458TIP3   OH261788   4.004   4.593  13.641 -0.2001 -0.2649  0.0442
13458TIP3    H161789   4.081   4.538  13.657  0.4520 -0.0669 -2.2043
13458TIP3    H261790   3.978   4.625  13.727  2.1665 -0.4394  0.8400
13459TIP3   OH261791   4.546   0.287  13.223  0.3463 -0.1682 -0.7481
13459TIP3    H161792   4.639   0.266  13.215 -0.3460 -3.0851 -1.6446
13459TIP3    H261793   4.529   0.349  13.153  1.0632 -1.6979 -2.3113
13460TIP3   OH261794   6.239   5.479   5.002  0.3416  0.1294  0.3612
13460TIP3    H161795   6.163   5.536   4.990 -0.5327 -0.6625  2.0874
13460TIP3    H261796   6.204   5.390   4.997  1.4868 -0.2778 -0.8980
13461TIP3   OH261797   5.550   2.216  14.213  0.3841 -0.0633 -0.0120
13461TIP3    H161798   5.490   2.235  14.141 -0.6443 -0.0949  0.8331
13461TIP3    H261799   5.504   2.151  14.266  1.2573 -0.2481  0.5256
13462TIP3   OH261800   3.712   0.299   1.329  0.1760 -0.0497  0.1735
13462TIP3    H161801   3.806   0.318   1.333  0.0760  0.5625 -0.2665
13462TIP3    H261802   3.691   0.265   1.416  1.0231 -1.2305 -0.0719
13463TIP3   OH261803   5.803   4.325  14.412 -0.1629 -0.0073  0.4183
13463TIP3    H161804   5.853   4.274  14.477 -1.3071 -0.0217  1.3061
13463TIP3    H261805   5.847   4.308  14.329 -0.0735 -1.8501  0.8292
13464TIP3   OH261806   1.836   5.320  15.782  0.1120 -0.0590  0.8678
13464TIP3    H161807   1.779   5.341  15.856 -2.1104 -1.7698 -0.3063
13464TIP3    H261808   1.793   5.359  15.706  0.9290 -0.6668  0.0777
13465TIP3   OH261809   1.899   5.766   1.435 -0.4187 -0.7081 -0.1029
13465TIP3    H161810   1.933   5.678   1.416 -0.6453 -1.6287  3.3273
13465TIP3    H261811   1.944   5.791   1.516 -0.9852  2.0200 -0.5996
13466TIP3   OH261812   1.258   1.292   4.474  0.4316 -0.0566 -0.1062
13466TIP3    H161813   1.189   1.337   4.522  2.7478  0.3319  3.0117
13466TIP3    H261814   1.300   1.361   4.422  0.0519  0.1617 -0.1269
13467TIP3   OH261815   2.857   0.610   3.323 -0.1623  0.0408 -0.2830
13467TIP3    H161816   2.825   0.564   3.245 -0.7854 -0.2926  0.1686
13467TIP3    H261817   2.792   0.590   3.391 -0.3453  1.4282 -0.0360
13468TIP3   OH261818   6.561   6.376   4.760  0.5484  0.5014  0.0967
13468TIP3    H161819   6.489   6.313   4.760  0.9408  0.0415  0.7799
13468TIP3    H261820   6.592   6.377   4.851  1.5379  0.5314 -0.2392
13469TIP3   OH261821   5.274   4.213  11.696 -0.7251  0.3110  0.6401
13469TIP3    H161822   5.264   4.284  11.758  0.4365  0.0882  1.0980
13469TIP3    H261823   5.368   4.210  11.677 -1.1504  0.9041 -1.7453
13470TIP3   OH261824   6.768   6.429  11.076  0.2869 -0.1343 -0.0596
13470TIP3    H161825   6.688   6.469  11.040  0.0528 -1.2314 -0.7840
13470TIP3    H261826   6.811   6.392  10.999  2.2845  1.7914  0.0933
13471TIP3   OH261827   1.428   5.773  12.819 -0.3972 -0.3381 -0.2018
13471TIP3    H161828   1.512   5.752  12.860 -0.5186  0.6523  0.5620
13471TIP3    H261829   1.388   5.837  12.878 -1.7660 -0.9326 -0.4594
13472TIP3   OH261830   6.568   1.636   2.268  0.0495  0.2546 -0.3449
13472TIP3    H161831   6.632   1.690   2.314 -0.2259 -0.2781  0.6783
13472TIP3    H261832   6.540   1.690   2.193  1.0700  0.8155 -0.3261
13473TIP3   OH261833   3.942   4.914  13.326  0.2116 -0.2741 -0.0316
13473TIP3    H161834   4.015   4.852  13.331  1.2500  1.0464  1.8618
13473TIP3    H261835   3.948   4.952  13.239  1.5089 -0.5168 -0.0576
13474TIP3   OH261836   1.025   6.733   0.278 -0.4107 -0.2247  0.3968
13474TIP3    H161837   1.055   6.772   0.360 -1.3264  1.8597 -0.2254
13474TIP3    H261838   0.938   6.770   0.264  0.0918  0.1526 -1.9864
13475TIP3   OH261839   5.055   4.070   6.420 -0.2712 -0.2756 -0.1626
13475TIP3    H161840   5.064   4.146   6.362  0.7252 -0.6500 -0.5061
13475TIP3    H261841   5.144   4.056   6.454 -0.7727 -0.2745  1.1815
13476TIP3   OH261842   5.688   4.515  16.991 -0.5103 -0.1298 -0.1822
13476TIP3    H161843   5.651   4.579  16.930  0.7326  0.8861  0.0859
13476TIP3    H261844   5.707   4.439  16.937 -0.2803  0.4244 -0.8889
13477TIP3   OH261845   6.272   4.095   2.200  0.5550 -0.0149 -0.7481
13477TIP3    H161846   6.272   4.087   2.296  0.0152  4.0668 -0.2866
13477TIP3    H261847   6.363   4.080   2.175  0.8743 -0.2664  0.5020
13478TIP3   OH261848   0.476   4.002  14.501 -0.5103 -0.5844  0.2313
13478TIP3    H161849   0.553   4.048  14.535 -1.1956  0.5377  0.2809
13478TIP3    H261850   0.403   4.033  14.555 -1.4464  0.4598 -1.5863
13479TIP3   OH261851   5.383   5.245  16.368  0.0526 -0.1279  0.1662
13479TIP3    H161852   5.430   5.174  16.324  2.6136  1.0067  1.0176
13479TIP3    H261853   5.368   5.310  16.299  1.8998  0.5698  0.3973
13480TIP3   OH261854   0.548   1.531   1.353  0.4223 -0.1042  0.5365
13480TIP3    H161855   0.641   1.518   1.369  0.9126  2.6213  0.0834
13480TIP3    H261856   0.544   1.599   1.286 -1.8754 -1.6031 -0.9200
13481TIP3   OH261857   5.057   2.408  16.511  0.5619  0.2005  0.4346
13481TIP3    H161858   5.057   2.498  16.544 -0.4913 -0.2279  1.6326
13481TIP3    H261859   4.995   2.410  16.437  2.0410  0.8897 -0.8243
13482TIP3   OH261860   0.327   1.461   5.794 -0.4787 -0.7508 -0.6139
13482TIP3    H161861   0.344   1.498   5.707  0.2043 -0.3658 -0.3196
13482TIP3    H261862   0.379   1.515   5.854 -0.4742 -1.3870 -0.0373
13483TIP3   OH261863   1.480   6.660   1.972 -0.2207  0.4097 -0.4508
13483TIP3    H161864   1.467   6.724   2.041  1.7641 -0.9688  1.2778
13483TIP3    H261865   1.401   6.605   1.975 -0.5541  0.9165  0.1245
13484TIP3   OH261866   0.815   0.498  11.640  0.1540 -0.0785  0.2456
13484TIP3    H161867   0.829   0.407  11.664  0.1853 -0.3267 -0.7201
13484TIP3    H261868   0.880   0.516  11.572  1.9167  1.4195  2.2216
13485TIP3   OH261869   3.154   6.421   2.559  0.5920  0.1076  0.1002
13485TIP3    H161870   3.217   6.487   2.588  1.0471 -0.4163  0.3167
13485TIP3    H261871   3.087   6.471   2.512  0.1196  0.8949  1.5733
13486TIP3   OH261872   3.260   2.519   1.581  0.6552  0.3461  0.1968
13486TIP3    H161873   3.343   2.472   1.590  0.7310  0.5184  0.3989
13486TIP3    H261874   3.221   2.515   1.669  1.2338  1.7453  0.5302
13487TIP3   OH261875   1.719   2.347   5.608 -0.0610  0.8231  0.3491
13487TIP3    H161876   1.740   2.440   5.598 -1.3870  1.2394  1.3633
13487TIP3    H261877   1.626   2.344   5.628  0.2742 -0.6203  1.8825
13488TIP3   OH261878   4.850   2.329   3.250  0.0625 -0.1052  0.1182
13488TIP3    H161879   4.919   2.347   3.314  0.3322 -0.1458 -0.1609
13488TIP3    H261880   4.854   2.234   3.238  0.0842 -0.0836 -0.0391
13489TIP3   OH261881   3.464   4.091   4.977 -0.3715  0.0156 -0.2020
13489TIP3    H161882   3.389   4.095   5.036 -0.7029  3.4768 -0.7745
13489TIP3    H261883   3.431   4.124   4.893  1.7370  1.5168 -0.4867
13490TIP3   OH261884   2.675   2.589   5.795  0.5462  0.1537  0.0841
13490TIP3    H161885   2.610   2.566   5.862 -0.1673  1.0234 -0.2965
13490TIP3    H261886   2.724   2.661   5.834  0.7151  0.0636  0.0350
13491TIP3   OH261887   1.478   4.450  17.209  0.1067 -0.2641  0.0091
13491TIP3    H161888   1.518   4.387  17.268 -1.2873 -0.4850  0.7453
13491TIP3    H261889   1.413   4.399  17.160 -0.9118  0.5525  0.4830
13492TIP3   OH261890   6.230   1.797   2.577 -0.2665  0.1682 -0.0571
13492TIP3    H161891   6.247   1.724   2.636  0.4059 -0.3299 -0.8597
13492TIP3    H261892   6.136   1.813   2.585  0.1098  1.2676  2.4822
13493TIP3   OH261893   1.771   4.371  13.622 -0.4577  0.0163  0.1394
13493TIP3    H161894   1.792   4.399  13.533  0.1061 -0.3116  0.1615
13493TIP3    H261895   1.705   4.303  13.611 -1.0388  0.5914  0.0239
13494TIP3   OH261896   1.354   4.169  16.244 -0.6131  0.1698  0.4245
13494TIP3    H161897   1.328   4.197  16.157  0.4144  1.3197  0.4713
13494TIP3    H261898   1.420   4.102  16.230 -1.2060 -0.3959  0.3195
13495TIP3   OH261899   2.559   6.399  17.035  0.3933  0.0171  0.6847
13495TIP3    H161900   2.631   6.384  17.095  0.8858  0.0664  0.1082
13495TIP3    H261901   2.575   6.487  17.000  0.2321 -0.1067  0.2989
13496TIP3   OH261902   5.870   6.278   4.109 -0.0427 -0.2551 -0.1872
13496TIP3    H161903   5.895   6.295   4.200  2.5365 -2.2423 -0.4717
13496TIP3    H261904   5.893   6.186   4.095 -2.8359 -0.7135 -2.1039
13497TIP3   OH261905   3.200   4.894  16.647  0.6576  0.1627 -0.7585
13497TIP3    H161906   3.184   4.833  16.575  1.5920 -1.6028  0.4857
13497TIP3    H261907   3.293   4.917  16.638  0.9795 -0.6811  0.3291
13498TIP3   OH261908   1.472   5.736  15.058 -0.1204 -0.0055  0.6439
13498TIP3    H161909   1.397   5.678  15.042  1.1312 -1.5822  0.3619
13498TIP3    H261910   1.477   5.741  15.153 -0.4243 -0.1027  0.6689
13499TIP3   OH261911   2.572   6.055  11.372 -0.0028 -0.3014 -0.1157
13499TIP3    H161912   2.532   6.083  11.454  0.3731 -0.0100 -0.0314
13499TIP3    H261913   2.666   6.062  11.387  0.0632  0.1779 -0.7178
13500TIP3   OH261914   1.469   3.303  15.589 -0.1138 -0.0470 -0.0438
13500TIP3    H161915   1.559   3.321  15.563  0.2411 -1.3497  0.2560
13500TIP3    H261916   1.438   3.239  15.524 -0.9188  0.6231 -0.3249
13501TIP3   OH261917   4.583   3.177  11.010 -0.7255  0.3794  0.1452
13501TIP3    H161918   4.677   3.173  10.989 -0.3594 -0.5705  1.8583
13501TIP3    H261919   4.564   3.270  11.019  0.6278  0.4898  2.1530
13502TIP3   OH261920   6.213   2.030  14.695  0.2270  0.0714  0.3270
13502TIP3    H161921   6.222   2.121  14.667  3.4866 -0.4916 -0.7099
13502TIP3    H261922   6.283   2.018  14.760 -0.6305 -1.5028  0.9862
13503TIP3   OH261923   3.816   0.461  12.342 -0.2449  0.2986 -0.0422
13503TIP3    H161924   3.738   0.485  12.391 -0.1779 -2.1633  1.3674
13503TIP3    H261925   3.825   0.366  12.355  4.0545  0.7764  1.5666
13504TIP3   OH261926   4.906   0.892  17.210 -0.5402  0.2819 -0.2293
13504TIP3    H161927   4.844   0.854  17.272 -0.4720 -0.5644 -0.6716
13504TIP3    H261928   4.948   0.963  17.258  0.3644 -1.1074  1.0927
13505TIP3   OH261929   3.094   5.590   3.316 -0.0933  0.2017  0.1662
13505TIP3    H161930   3.102   5.680   3.349 -1.1244  0.2325  0.3289
13505TIP3    H261931   3.129   5.594   3.227  0.1367  0.7014  0.2763
13506TIP3   OH261932   6.637   3.062  13.727  0.1395 -0.4642  0.2470
13506TIP3    H161933   6.727   3.032  13.739 -1.4533 -4.8247  2.1843
13506TIP3    H261934   6.614   3.036  13.638  0.4954 -0.0986  0.0448
13507TIP3   OH261935   1.486   1.193  12.163  0.0279  0.1177  0.3890
13507TIP3    H161936   1.569   1.152  12.185  1.1333  2.4110  0.5300
13507TIP3    H261937   1.432   1.182  12.242  0.8169  0.2055  0.9471
13508TIP3   OH261938   4.517   2.810  17.090 -0.3392  0.3710 -0.1168
13508TIP3    H161939   4.427   2.779  17.100  0.7425 -3.1410 -0.2954
13508TIP3    H261940   4.554   2.807  17.179  1.1421 -3.7194 -0.7324
13509TIP3   OH261941   3.077   6.114   2.045  0.1938 -0.3351  0.3171
13509TIP3    H161942   3.159   6.125   1.996 -1.6443  2.3498 -2.3763
13509TIP3    H261943   3.093   6.159   2.128  1.2013  0.9298 -0.5323
13510TIP3   OH261944   6.780   6.209   4.155  0.3004 -0.3257  0.1443
13510TIP3    H161945   6.762   6.191   4.063  0.4839 -0.9028  0.2142
13510TIP3    H261946   6.718   6.278   4.179 -0.0407 -0.4746 -0.2952
13511TIP3   OH261947   0.584   3.877  14.813  0.1481 -0.5833 -0.3188
13511TIP3    H161948   0.544   3.963  14.799 -0.2818 -0.9809 -1.5885
13511TIP3    H261949   0.672   3.897  14.843  0.1414  0.3171 -0.8565
13512TIP3   OH261950   1.851   5.894  11.973  0.2154 -0.3897  0.1352
13512TIP3    H161951   1.853   5.969  11.914  2.4416  0.1190  0.8041
13512TIP3    H261952   1.761   5.863  11.970 -0.2465  1.0603 -1.7196
13513TIP3   OH261953   6.282   1.993  15.020  0.3989  0.0701  0.4243
13513TIP3    H161954   6.321   1.908  15.003  0.2558  0.2756 -0.9211
13513TIP3    H261955   6.331   2.054  14.966 -1.7928  0.3256 -1.3515
13514TIP3   OH261956   2.177   1.141  16.534  0.2209  0.5006 -0.1679
13514TIP3    H161957   2.264   1.180  16.542  1.1528 -1.5496  0.0126
13514TIP3    H261958   2.194   1.049  16.516 -1.8740 -0.6208  3.1977
13515TIP3   OH261959   4.058   1.659   0.331  0.0529 -0.0716  0.2638
13515TIP3    H161960   4.044   1.596   0.261  0.5259 -0.4251  0.4816
13515TIP3    H261961   4.122   1.617   0.389  0.8055  0.8384  0.1182
13516TIP3   OH261962   6.486   6.378   3.929  0.2219 -0.1077 -0.0662
13516TIP3    H161963   6.550   6.310   3.908  0.0016 -0.1124 -0.7381
13516TIP3    H261964   6.414   6.363   3.868 -0.3655 -0.0206  0.5968
13517TIP3   OH261965   3.619   3.390   1.078 -0.1678  0.2213  0.0376
13517TIP3    H161966   3.637   3.296   1.077 -0.5616  0.1185  1.6637
13517TIP3    H261967   3.643   3.418   1.166  1.5830  1.9801 -0.9670
13518TIP3   OH261968   6.488   0.845  13.680 -0.5839 -0.5263  0.2162
13518TIP3    H161969   6.576   0.846  13.644 -0.2759  0.3086  0.9714
13518TIP3    H261970   6.432   0.820  13.606  0.1347  0.2746 -0.6097
13519TIP3   OH261971   2.116   5.304  15.948  0.1406  0.1621  0.0113
13519TIP3    H161972   2.072   5.220  15.955 -0.4533  0.4242 -0.5812
13519TIP3    H261973   2.135   5.314  15.855  1.3834  0.0863  0.2474
13520TIP3   OH261974   0.693   5.144  11.517  0.0925 -0.3165  0.7290
13520TIP3    H161975   0.637   5.070  11.491 -1.5578  0.7817  1.0699
13520TIP3    H261976   0.634   5.202  11.565  0.4548  3.0153 -2.6474
13521TIP3   OH261977   1.755   6.200  16.757  0.0796 -0.1783  0.2617
13521TIP3    H161978   1.715   6.249  16.829  1.0359  0.7413  0.1744
13521TIP3    H261979   1.772   6.113  16.794 -0.4658 -0.0560  0.8023
13522TIP3   OH261980   0.219   6.517   2.555 -0.6413 -0.2938  0.2883
13522TIP3    H161981   0.143   6.464   2.577 -1.1510  1.0891  1.9682
13522TIP3    H261982   0.294   6.462   2.578 -1.1627 -0.2806  2.0486
13523TIP3   OH261983   5.397   5.580  16.477 -0.0837  0.3081 -0.1080
13523TIP3    H161984   5.456   5.532  16.418 -0.7418  0.4448 -0.8984
13523TIP3    H261985   5.312   5.539  16.463  0.0518 -0.7400  1.9839
13524TIP3   OH261986   3.833   1.499   3.736  0.1458  0.6483 -0.7640
13524TIP3    H161987   3.792   1.574   3.779 -1.4738 -0.7539  0.1954
13524TIP3    H261988   3.880   1.454   3.806 -0.2013 -0.1047 -1.0087
13525TIP3   OH261989   6.417   1.897  11.650 -0.0710  0.3696  0.3979
13525TIP3    H161990   6.471   1.897  11.729 -1.9210 -0.9732  1.7206
13525TIP3    H261991   6.336   1.852  11.676 -1.0398  0.5895 -2.0506
13526TIP3   OH261992   2.638   0.165  15.120 -0.1972  0.2145 -0.0497
13526TIP3    H161993   2.716   0.129  15.080 -0.0062  0.5971 -0.0260
13526TIP3    H261994   2.576   0.092  15.124  1.1830 -0.8988  2.6531
13527TIP3   OH261995   3.097   0.765   1.838  0.1796 -0.0109  0.1819
13527TIP3    H161996   3.055   0.771   1.924  0.9582  1.7283  0.4643
13527TIP3    H261997   3.068   0.844   1.792  1.6504  0.2560 -0.3011
13528TIP3   OH261998   5.365   1.685  13.228 -0.1433  0.5997 -0.6404
13528TIP3    H161999   5.319   1.626  13.168 -0.2244 -0.7608  0.7455
13528TIP3    H262000   5.395   1.629  13.299  1.5610  1.8941 -0.3114
13529TIP3   OH262001   1.312   5.943   5.033  0.1567 -0.2504 -0.3050
13529TIP3    H162002   1.271   5.972   5.114  0.7722 -0.8834  0.2341
13529TIP3    H262003   1.365   6.018   5.005  0.3591 -0.2208  0.1544
13530TIP3   OH262004   5.343   1.410   4.988  0.1062  0.2387  0.2503
13530TIP3    H162005   5.431   1.379   5.009  0.4825  0.7673 -0.5362
13530TIP3    H262006   5.350   1.446   4.900 -1.4903 -2.1372 -0.9309
13531TIP3   OH262007   2.223   1.192  12.087  0.1187 -0.3653 -0.6207
13531TIP3    H162008   2.168   1.233  12.021  0.6017  0.0036 -0.7993
13531TIP3    H262009   2.162   1.163  12.155 -0.3771 -0.7227 -1.2138
13532TIP3   OH262010   0.958   5.128   6.475 -0.5277  0.0366 -0.5491
13532TIP3    H162011   0.997   5.106   6.391 -1.2412 -0.3273 -0.7901
13532TIP3    H262012   0.999   5.211   6.499  1.6277 -1.1595  0.0109
13533TIP3   OH262013   6.209   6.588   5.339  0.4490 -0.2934  0.2834
13533TIP3    H162014   6.128   6.596   5.289  2.0725  3.1671 -2.0348
13533TIP3    H262015   6.181   6.582   5.430 -2.4146  1.6076 -0.4153
13534TIP3   OH262016   2.812   1.330  13.836  0.3334 -0.2846  0.5579
13534TIP3    H162017   2.897   1.308  13.874  0.5214 -1.4889 -0.4925
13534TIP3    H262018   2.757   1.255  13.856  0.3519 -0.8011 -1.2253
13535TIP3   OH262019   6.566   0.127  11.337  0.2477  1.0426 -0.2427
13535TIP3    H162020   6.546   0.107  11.245  0.6924  0.2805 -0.1792
13535TIP3    H262021   6.647   0.079  11.354  1.0807  2.5386  0.0663
13536TIP3   OH262022   5.519   1.430  12.339  0.7885  0.1333  0.0601
13536TIP3    H162023   5.516   1.378  12.419 -0.6142  0.3387  0.1504
13536TIP3    H262024   5.527   1.366  12.269 -1.4258 -0.2588  0.1363
13537TIP3   OH262025   4.640   3.947  11.693 -0.1584  0.1972  0.0186
13537TIP3    H162026   4.546   3.963  11.682  0.0368  0.8034 -0.8240
13537TIP3    H262027   4.673   3.937  11.604  0.3525 -1.3573  0.3827
13538TIP3   OH262028   1.804   0.243  12.338  0.5018  0.0143 -0.2162
13538TIP3    H162029   1.722   0.269  12.380  2.4081  1.6786  2.7180
13538TIP3    H262030   1.809   0.148  12.351 -0.6906 -0.0207  0.0520
13539TIP3   OH262031   1.897   5.780  16.322  0.2789 -0.2741 -0.2038
13539TIP3    H162032   1.950   5.744  16.392 -2.6665  0.6512  2.6251
13539TIP3    H262033   1.837   5.709  16.298 -0.9051  0.4685  0.5301
13540TIP3   OH262034   5.857   2.948   4.377  0.2050  0.3025 -0.0546
13540TIP3    H162035   5.908   2.870   4.398 -0.8335 -0.3231  0.1643
13540TIP3    H262036   5.804   2.963   4.455 -0.6261  0.4030 -0.6421
13541TIP3   OH262037   5.279   5.306  12.031  0.6188 -0.2228 -0.2066
13541TIP3    H162038   5.300   5.292  12.123  1.6007 -2.4827 -0.7144
13541TIP3    H262039   5.348   5.364  11.999  0.9312 -0.3481  0.2376
13542TIP3   OH262040   1.201   3.757  14.125 -0.1317  0.3205  0.7846
13542TIP3    H162041   1.126   3.784  14.178 -0.8381  0.6869 -0.3746
13542TIP3    H262042   1.209   3.826  14.059 -0.6743 -1.2448 -0.9543
13543TIP3   OH262043   0.704   5.383   5.267 -0.2410 -0.0748  0.0519
13543TIP3    H162044   0.786   5.418   5.231  1.5096 -3.2641  0.7125
13543TIP3    H262045   0.667   5.330   5.197 -0.0787 -1.1623  0.7611
13544TIP3   OH262046   2.391   3.330  11.931 -0.5544  0.1969  0.2739
13544TIP3    H162047   2.428   3.323  11.842  2.9196 -0.1872  1.6807
13544TIP3    H262048   2.357   3.419  11.936  1.1499  0.9285 -0.7516
13545TIP3   OH262049   3.108   1.275   3.438 -0.2795 -0.1082 -0.4407
13545TIP3    H162050   3.085   1.214   3.368 -0.1053  0.6649 -1.1841
13545TIP3    H262051   3.046   1.255   3.508 -0.5601 -0.7822 -0.8732
13546TIP3   OH262052   5.645   2.647  15.949  0.3590 -0.2787 -0.0650
13546TIP3    H162053   5.717   2.584  15.951  1.3691  0.7922 -1.6192
13546TIP3    H262054   5.582   2.613  16.012  2.3020 -1.1484  1.4812
13547TIP3   OH262055   3.177   4.373  16.434 -0.0830  0.9935 -0.7719
13547TIP3    H162056   3.257   4.370  16.382 -1.8130  1.1448 -3.5245
13547TIP3    H262057   3.204   4.343  16.521  3.0971  1.7865 -1.4333
13548TIP3   OH262058   4.334   1.284  10.433  0.0659 -0.1314 -0.9741
13548TIP3    H162059   4.384   1.307  10.511 -0.8737 -1.6083  0.0891
13548TIP3    H262060   4.401   1.266  10.366  0.9345 -0.6559  0.0166
13549TIP3   OH262061   5.122   0.302  11.943 -0.1659 -0.5894  0.2840
13549TIP3    H162062   5.105   0.389  11.908  1.1707  0.0349  1.1449
13549TIP3    H262063   5.070   0.298  12.024  0.3407 -0.3179  0.6237
13550TIP3   OH262064   5.432   3.428   2.738 -0.2374 -0.7022 -0.3483
13550TIP3    H162065   5.492   3.360   2.706 -1.0463 -1.3605 -0.4766
13550TIP3    H262066   5.478   3.466   2.813  0.5141 -0.9385 -0.6785
13551TIP3   OH262067   4.802   1.162  17.229  0.5760  0.3709  0.0718
13551TIP3    H162068   4.889   1.142  17.196  0.4765 -1.4846  0.8969
13551TIP3    H262069   4.743   1.138  17.158  0.7299  2.0016 -0.6415
13552TIP3   OH262070   3.857   6.272  17.101  0.0400 -0.1832  0.0576
13552TIP3    H162071   3.933   6.315  17.141 -1.0577  1.1355  0.7852
13552TIP3    H262072   3.783   6.302  17.153 -0.6960 -3.8032  1.2081
13553TIP3   OH262073   5.702   3.119   3.003  0.0587 -0.1178  0.3888
13553TIP3    H162074   5.673   3.061   3.073  0.9661 -0.4127  0.5193
13553TIP3    H262075   5.789   3.088   2.979 -0.7778 -0.8904 -1.8093
13554TIP3   OH262076   1.091   4.320   0.541  0.2231 -0.1861  0.1073
13554TIP3    H162077   1.056   4.278   0.463 -1.6597  1.6750 -0.1035
13554TIP3    H262078   1.159   4.260   0.573 -0.5177 -2.0245 -1.6796
13555TIP3   OH262079   1.072   2.627  13.014  0.3333  0.3714 -0.3651
13555TIP3    H162080   1.092   2.628  13.108 -0.1661  0.0983 -0.2521
13555TIP3    H262081   1.004   2.693  13.004 -1.7822 -1.6632 -0.0227
13556TIP3   OH262082   1.088   6.357   1.106  0.5296  0.0456  0.9995
13556TIP3    H162083   1.115   6.435   1.058  0.9557 -0.6230  0.1366
13556TIP3    H262084   1.139   6.360   1.187  1.4924  0.0110  0.4066
13557TIP3   OH262085   0.082   5.608   1.779  0.2045  0.1586 -0.1173
13557TIP3    H162086   0.050   5.674   1.718 -2.4629  0.7658  1.8742
13557TIP3    H262087   0.094   5.654   1.862  1.4095 -1.1649  0.4782
13558TIP3   OH262088   4.955   5.388   2.595  0.2058 -0.0975  0.0366
13558TIP3    H162089   4.893   5.415   2.662  0.7970  2.2393 -0.2993
13558TIP3    H262090   4.901   5.359   2.521 -0.4842  1.0062  0.1050
13559TIP3   OH262091   2.908   4.624   2.207 -0.3892 -0.5592 -0.0607
13559TIP3    H162092   2.868   4.687   2.267 -0.5484 -0.4616 -0.2696
13559TIP3    H262093   2.886   4.656   2.120  0.1961 -0.4740 -0.1742
13560TIP3   OH262094   0.658   4.044   5.727  0.0183 -0.0796 -0.2554
13560TIP3    H162095   0.587   3.982   5.744 -0.5584  0.5859 -0.2328
13560TIP3    H262096   0.731   3.989   5.698 -0.8463 -0.6737 -1.3532
13561TIP3   OH262097   0.630   0.141  16.061 -0.0063  0.0085 -0.1236
13561TIP3    H162098   0.676   0.200  16.122 -0.5621  0.4854 -0.1584
13561TIP3    H262099   0.697   0.079  16.033  1.1029  1.7465 -1.5177
13562TIP3   OH262100   3.548   2.959   3.585  0.2945 -0.1656 -0.1261
13562TIP3    H162101   3.630   2.957   3.636  1.7021 -1.2266 -2.3700
13562TIP3    H262102   3.566   3.019   3.513 -2.4679  3.1731  1.7965
13563TIP3   OH262103   4.837   6.206   2.662  0.3851 -0.2595  0.0748
13563TIP3    H162104   4.927   6.185   2.636  0.4702  1.3321 -1.0215
13563TIP3    H262105   4.826   6.298   2.635 -1.5567 -0.4421  0.2113
13564TIP3   OH262106   4.487   1.527  10.292 -0.2985 -0.1528 -0.1389
13564TIP3    H162107   4.490   1.607  10.240  0.8159  0.3380  0.6470
13564TIP3    H262108   4.396   1.499  10.288 -0.5587  0.7837 -0.9896
13565TIP3   OH262109   6.258   0.400   1.571 -0.1807  0.8015  0.1189
13565TIP3    H162110   6.229   0.327   1.625 -1.2239  1.1652  0.0658
13565TIP3    H262111   6.346   0.421   1.604  0.4033 -0.8898 -0.3061
13566TIP3   OH262112   2.937   2.911   0.534 -0.3625 -0.2174  0.3667
13566TIP3    H162113   3.006   2.884   0.473  0.3331 -0.5313  1.2737
13566TIP3    H262114   2.892   2.830   0.557 -0.8333 -0.0568  0.0326
13567TIP3   OH262115   1.843   2.468   4.423  0.4424 -0.3664 -0.5191
13567TIP3    H162116   1.766   2.516   4.454  2.6440  2.0212  1.6000
13567TIP3    H262117   1.879   2.523   4.354  1.2798 -0.4660 -0.1725
13568TIP3   OH262118   6.277   2.509   1.980 -0.0156  0.0030  0.2672
13568TIP3    H162119   6.289   2.453   2.057 -0.9476  0.1313  0.5073
13568TIP3    H262120   6.182   2.517   1.970  0.0982  1.4777  0.2019
13569TIP3   OH262121   2.774   5.472  16.119 -0.2986 -0.3584  0.4779
13569TIP3    H162122   2.860   5.495  16.154 -0.3105  1.3661 -0.5740
13569TIP3    H262123   2.727   5.433  16.193  1.0792 -0.5080  1.2746
13570TIP3   OH262124   3.105   4.964  14.570  0.0551 -0.0851  0.1296
13570TIP3    H162125   3.117   4.879  14.528  0.8552 -0.6591  1.4955
13570TIP3    H262126   3.072   4.943  14.658 -1.1146  1.0715 -0.0239
13571TIP3   OH262127   2.433   4.266  15.011  0.3113 -0.2261 -0.4541
13571TIP3    H162128   2.410   4.205  14.940  0.2246 -2.1507  1.1888
13571TIP3    H262129   2.521   4.239  15.037  0.1092  0.0897  0.5601
13572TIP3   OH262130   5.421   3.967  14.425  0.4047  0.5063  0.6895
13572TIP3    H162131   5.341   3.915  14.417  0.3255  0.5119  1.3932
13572TIP3    H262132   5.492   3.908  14.400  0.2976  0.1202  1.2934
13573TIP3   OH262133   0.690   2.785   2.726  0.0763 -0.3751 -0.5442
13573TIP3    H162134   0.751   2.765   2.654 -0.5432  1.2295 -1.5274
13573TIP3    H262135   0.635   2.855   2.692 -2.1747 -1.6394  0.4308
13574TIP3   OH262136   3.477   0.097  15.681 -0.0612  0.2370  0.6905
13574TIP3    H162137   3.565   0.073  15.651  0.0547  0.3269  0.9556
13574TIP3    H262138   3.482   0.190  15.701 -1.2556  1.1677 -2.9953
13575TIP3   OH262139   5.439   5.894   4.251 -0.3751 -0.1758 -0.3061
13575TIP3    H162140   5.469   5.914   4.340 -0.8716 -2.2241  0.3716
13575TIP3    H262141   5.485   5.956   4.195  1.8797 -0.4925  1.1419
13576TIP3   OH262142   5.699   5.428   4.077 -0.2698 -0.0773  0.2736
13576TIP3    H162143   5.663   5.374   4.006  0.2057 -1.0240  0.7297
13576TIP3    H262144   5.630   5.431   4.143 -0.0378 -0.7373  0.5538
13577TIP3   OH262145   5.758   5.098   0.338 -0.1282 -0.5117 -0.1839
13577TIP3    H162146   5.711   5.136   0.263  0.9684  0.5186 -0.3610
13577TIP3    H262147   5.750   5.165   0.407  0.3293 -0.7145  0.0668
13578TIP3   OH262148   5.189   4.196  13.747  0.6519  0.0623  0.0359
13578TIP3    H162149   5.248   4.245  13.804 -1.9748  2.6989  0.6261
13578TIP3    H262150   5.105   4.197  13.793 -0.5432 -1.1981 -2.0507
13579TIP3   OH262151   6.747   4.010   0.935 -0.4826 -0.0993 -0.1558
13579TIP3    H162152   6.658   3.984   0.959  0.6008 -2.0059  1.9767
13579TIP3    H262153   6.744   4.018   0.840 -2.1579 -3.3544 -0.4647
13580TIP3   OH262154   0.473   2.901  15.721  0.3859 -0.5718 -0.5080
13580TIP3    H162155   0.479   2.979  15.776 -0.1117 -0.1829 -0.9988
13580TIP3    H262156   0.379   2.889  15.706  0.5610  0.0116 -2.2206
13581TIP3   OH262157   1.757   5.593  12.157  0.2284  0.2456  0.2355
13581TIP3    H162158   1.695   5.520  12.163  0.5758 -0.1081 -0.3983
13581TIP3    H262159   1.704   5.667  12.127  0.2188 -0.1856 -0.8064
13582TIP3   OH262160   5.606   6.267   0.319  0.3164 -0.0294 -0.3424
13582TIP3    H162161   5.651   6.258   0.402  1.9388  1.5493 -0.9995
13582TIP3    H262162   5.676   6.274   0.254 -0.8838  0.5924 -1.6194
13583TIP3   OH262163   5.473   2.418   5.227  0.5675  0.1126 -0.2915
13583TIP3    H162164   5.522   2.461   5.157  2.2042 -1.3605 -0.0695
13583TIP3    H262165   5.456   2.488   5.290  1.9149  0.7656 -0.6325
13584TIP3   OH262166   4.393   6.092   2.889 -0.6263 -0.2603 -0.2255
13584TIP3    H162167   4.397   5.998   2.872 -0.3769 -0.1696 -0.6811
13584TIP3    H262168   4.384   6.098   2.984  1.2022 -0.7088 -0.0076
13585TIP3   OH262169   3.337   5.544   4.244 -0.1748 -0.4468 -0.1575
13585TIP3    H162170   3.316   5.540   4.337 -1.4966  0.0883 -0.4165
13585TIP3    H262171   3.252   5.538   4.200  0.4120 -0.4517 -1.3268
13586TIP3   OH262172   4.048   0.104  10.538  0.0139 -0.0012 -0.1280
13586TIP3    H162173   4.108   0.157  10.486  2.2951 -1.7048  0.6732
13586TIP3    H262174   4.098   0.025  10.559 -2.4733 -1.4072  0.7101
13587TIP3   OH262175   4.030   6.758  14.031 -0.2295 -0.1453  0.8498
13587TIP3    H162176   4.041   6.712  14.115 -1.8086 -0.3580  0.9583
13587TIP3    H262177   3.946   6.802  14.038 -0.1122  0.3175 -0.4142
13588TIP3   OH262178   0.427   6.075  15.085 -0.4502 -0.0944  0.6945
13588TIP3    H162179   0.368   6.001  15.070 -1.1343 -0.0982  3.2052
13588TIP3    H262180   0.371   6.145  15.119  0.4136  1.1520 -0.3754
13589TIP3   OH262181   3.886   2.598   3.158  0.3601  0.4366 -0.6170
13589TIP3    H162182   3.798   2.628   3.136  1.1782  2.8794 -0.7373
13589TIP3    H262183   3.885   2.504   3.139 -2.0810  0.4974 -0.9815
13590TIP3   OH262184   1.236   2.486   3.968 -0.2701 -0.5752 -0.6032
13590TIP3    H162185   1.308   2.423   3.960  0.2745 -0.2473  1.4334
13590TIP3    H262186   1.157   2.433   3.959  0.1842 -1.4650  0.5502
13591TIP3   OH262187   0.186   6.545  16.488  0.0762  0.0670  0.3789
13591TIP3    H162188   0.187   6.640  16.480 -0.7534  0.2393  2.0643
13591TIP3    H262189   0.272   6.522  16.523  0.8525  0.0325 -1.5071
13592TIP3   OH262190   0.360   0.812  11.151 -0.4561  0.1258  0.0971
13592TIP3    H162191   0.307   0.834  11.075 -0.9438  1.8457  0.9079
13592TIP3    H262192   0.375   0.718  11.143 -0.7635  0.2347 -1.9384
13593TIP3   OH262193   0.124   6.698  14.235  0.1139 -0.0246  0.8457
13593TIP3    H162194   0.074   6.653  14.303  0.3000 -0.6539  0.5719
13593TIP3    H262195   0.105   6.791  14.248 -2.1152 -0.3364 -0.0289
13594TIP3   OH262196   1.734   0.297   1.297  0.5446  0.2086 -0.2344
13594TIP3    H162197   1.752   0.364   1.231 -1.2518 -2.5628 -3.6666
13594TIP3    H262198   1.649   0.321   1.334  1.1265  1.2464  0.4614
13595TIP3   OH262199   5.715   5.579  15.881 -0.3074  0.2002  0.2605
13595TIP3    H162200   5.642   5.516  15.889  0.0242 -0.2745 -0.4507
13595TIP3    H262201   5.728   5.590  15.787  1.1931 -0.4881  0.3739
13596TIP3   OH262202   5.746   0.232   4.025 -0.4523  0.2373 -0.3436
13596TIP3    H162203   5.827   0.185   4.005 -0.4503 -0.8245  1.9640
13596TIP3    H262204   5.689   0.214   3.951  0.5428 -1.1581 -0.7893
13597TIP3   OH262205   1.878   3.562  12.714 -0.0537  0.4459  0.0488
13597TIP3    H162206   1.820   3.635  12.691 -2.5293 -1.4622  0.1058
13597TIP3    H262207   1.899   3.521  12.631  3.1781  2.4741 -0.2397
13598TIP3   OH262208   6.030   3.363  16.281  0.2455  0.0254 -0.7888
13598TIP3    H162209   6.103   3.303  16.270 -1.6084 -2.1640 -1.5486
13598TIP3    H262210   6.041   3.428  16.211  1.7357  0.0274 -0.5550
13599TIP3   OH262211   2.610   6.681  11.792 -0.5285 -0.0390 -0.0843
13599TIP3    H162212   2.585   6.695  11.884  0.2895 -1.1171  0.3145
13599TIP3    H262213   2.594   6.765  11.750 -1.9158  0.1759  0.8161
13600TIP3   OH262214   1.816   6.415  15.125 -0.3698 -0.1792  0.0386
13600TIP3    H162215   1.862   6.497  15.139  0.2892 -0.8565  2.0086
13600TIP3    H262216   1.726   6.441  15.104 -0.1053  1.0334  0.3707
13601TIP3   OH262217   6.420   1.138  11.965  0.3278  0.0280 -0.4667
13601TIP3    H162218   6.482   1.154  11.893 -1.1123  0.5375 -1.6334
13601TIP3    H262219   6.361   1.214  11.963 -1.0658 -1.0243 -0.1780
13602TIP3   OH262220   0.056   6.028   2.134 -0.1238 -0.6287 -0.2341
13602TIP3    H162221   0.005   6.109   2.129 -0.8041 -0.8245  2.7985
13602TIP3    H262222   0.062   6.009   2.227  2.6374 -2.4566 -0.7308
13603TIP3   OH262223   4.613   3.976  11.414  0.6925  0.4009 -0.3873
13603TIP3    H162224   4.601   3.890  11.375 -0.8105  0.4852 -0.1433
13603TIP3    H262225   4.638   4.032  11.340 -2.2573  0.5869 -1.3204
13604TIP3   OH262226   1.735   1.959   5.383 -0.2466 -0.3602 -0.0781
13604TIP3    H162227   1.790   1.929   5.454  0.0766  1.0086  0.2771
13604TIP3    H262228   1.770   1.917   5.304 -0.5021 -1.7429  0.5340
13605TIP3   OH262229   4.770   2.022  14.660 -0.2337  0.3861 -0.2835
13605TIP3    H162230   4.792   1.986  14.574  1.6314 -1.1989  0.8092
13605TIP3    H262231   4.818   2.105  14.663  0.6333 -0.1065 -0.3367
13606TIP3   OH262232   3.159   2.604  14.965 -0.8716  0.5005 -0.0945
13606TIP3    H162233   3.211   2.684  14.968  0.1909 -0.1684 -0.1807
13606TIP3    H262234   3.077   2.630  14.924 -0.2671  1.4070 -0.7498
13607TIP3   OH262235   3.747   1.967  13.660 -0.8199 -0.5102  0.2040
13607TIP3    H162236   3.822   1.907  13.658 -1.2911 -1.0892  0.0585
13607TIP3    H262237   3.685   1.926  13.720 -0.1297  1.0234  2.0222
13608TIP3   OH262238   3.186   6.002   2.511  0.9596  0.0705  0.2594
13608TIP3    H162239   3.188   6.049   2.594  0.5008  0.4024  0.0853
13608TIP3    H262240   3.155   6.067   2.448  3.1432  0.3754 -0.5419
13609TIP3   OH262241   1.900   2.510  14.637  0.1395  0.0871  0.2556
13609TIP3    H162242   1.828   2.572  14.631 -1.7317 -2.0465  0.0932
13609TIP3    H262243   1.910   2.475  14.549  0.8353 -0.2430  0.4573
13610TIP3   OH262244   0.209   6.325   0.068  0.1926  0.3549 -0.1127
13610TIP3    H162245   0.285   6.331   0.126  0.8796  3.5162 -1.2630
13610TIP3    H262246   0.142   6.377   0.112 -1.4818 -2.6719  1.0500
13611TIP3   OH262247   2.277   4.789   6.177 -0.3011 -0.0370  0.5428
13611TIP3    H162248   2.211   4.850   6.143  0.1507  0.0804 -0.1357
13611TIP3    H262249   2.227   4.717   6.214 -0.7990 -1.2693 -2.3803
13612TIP3   OH262250   6.438   6.410   0.277 -0.4245  0.1144 -0.7319
13612TIP3    H162251   6.430   6.500   0.245 -0.7907  0.5774  0.6357
13612TIP3    H262252   6.471   6.419   0.366 -1.9471 -1.0279 -0.0239
13613TIP3   OH262253   1.423   5.739   4.235  0.1826 -0.2096 -0.0589
13613TIP3    H162254   1.403   5.757   4.327  0.7705  0.3102 -0.0243
13613TIP3    H262255   1.449   5.824   4.199  0.0576 -0.4306 -0.6774
13614TIP3   OH262256   0.924   4.421  14.639 -0.1004 -0.6493  0.0039
13614TIP3    H162257   0.865   4.471  14.695 -0.5358 -0.5693 -0.5247
13614TIP3    H262258   0.872   4.401  14.561  0.7664 -0.0039 -0.7603
13615TIP3   OH262259   5.239   4.326  16.896  0.0501  0.6711  0.5142
13615TIP3    H162260   5.269   4.298  16.983  0.6676  1.3221  0.5177
13615TIP3    H262261   5.319   4.357  16.853 -0.2959  0.5675 -0.2051
13616TIP3   OH262262   6.254   3.187  16.048  0.2173  0.8562  0.6245
13616TIP3    H162263   6.317   3.258  16.065  1.1377  0.5394 -1.3706
13616TIP3    H262264   6.208   3.215  15.969 -2.3316  1.1768  2.1661
13617TIP3   OH262265   5.622   5.924  12.292  0.4733 -0.0933 -0.1227
13617TIP3    H162266   5.662   5.949  12.208  1.4219 -1.6072 -0.1477
13617TIP3    H262267   5.696   5.899  12.347 -0.0776  1.8215  1.4986
13618TIP3   OH262268   3.286   5.162  15.814 -0.7667 -0.1689 -0.1576
13618TIP3    H162269   3.290   5.068  15.795 -2.9870  0.0336 -1.6928
13618TIP3    H262270   3.222   5.169  15.885 -1.0748  0.2649 -0.4823
13619TIP3   OH262271   0.438   1.631  10.519 -0.6876  0.4738  0.1966
13619TIP3    H162272   0.363   1.572  10.516 -1.1856  0.9624  2.3063
13619TIP3    H262273   0.513   1.575  10.498 -1.3425 -0.5768  0.6285
13620TIP3   OH262274   5.302   3.692   4.605 -0.4578  0.5073  0.7338
13620TIP3    H162275   5.220   3.690   4.654 -0.8364  0.2069  0.0957
13620TIP3    H262276   5.308   3.606   4.564 -2.0430  1.9567 -2.7810
13621TIP3   OH262277   2.310   1.694   5.696  0.1373 -0.5140  0.4332
13621TIP3    H162278   2.271   1.659   5.776  1.8680 -0.2597  1.4093
13621TIP3    H262279   2.307   1.789   5.707  0.2581 -0.4777  0.1495
13622TIP3   OH262280   1.884   6.603  16.340  0.0371  0.3525 -0.5459
13622TIP3    H162281   1.953   6.537  16.340  1.3459  1.7035 -0.3572
13622TIP3    H262282   1.859   6.611  16.248 -0.3456 -0.6092 -0.5350
13623TIP3   OH262283   1.166   2.951  13.060 -0.0024  0.2467  0.1013
13623TIP3    H162284   1.085   2.988  13.094 -1.7155 -3.3283  0.0964
13623TIP3    H262285   1.230   2.965  13.129 -0.8628  2.2089  0.5150
13624TIP3   OH262286   2.446   1.294  15.859  0.2010  0.4230 -0.0674
13624TIP3    H162287   2.498   1.357  15.909  1.4085  0.8710 -1.8344
13624TIP3    H262288   2.506   1.259  15.794 -0.6112 -2.1559  0.4804
13625TIP3   OH262289   6.065   2.911  14.180  0.0753  1.0179 -0.7681
13625TIP3    H162290   6.033   2.853  14.111  1.1189  0.0031 -0.4088
13625TIP3    H262291   6.117   2.977  14.134  0.3972  0.6030 -0.9999
13626TIP3   OH262292   0.306   3.235   1.760  0.3575 -0.2033  0.3571
13626TIP3    H162293   0.326   3.202   1.673  0.2693  1.4875 -0.3214
13626TIP3    H262294   0.383   3.213   1.813  0.9850 -0.0261 -0.4851
13627TIP3   OH262295   5.273   4.140  14.588 -0.4652  0.7619 -0.1832
13627TIP3    H162296   5.250   4.109  14.676  0.8592  0.2804  0.0002
13627TIP3    H262297   5.315   4.065  14.546 -0.8390  1.0773 -1.1369
13628TIP3   OH262298   6.394   3.136  13.849  0.3654  0.0849 -0.0518
13628TIP3    H162299   6.349   3.213  13.813 -0.9774 -1.3495 -1.5384
13628TIP3    H262300   6.456   3.110  13.781 -0.3993 -1.1522 -0.2887
13629TIP3   OH262301   5.198   2.275  14.488 -0.0596 -0.6517  0.4103
13629TIP3    H162302   5.161   2.216  14.422  0.5997 -2.0788  1.2999
13629TIP3    H262303   5.128   2.286  14.552 -0.3781 -0.0042 -0.0426
13630TIP3   OH262304   0.406   0.230   1.644 -0.3444 -0.1629 -0.0231
13630TIP3    H162305   0.333   0.266   1.594 -1.8446 -2.2988  0.5577
13630TIP3    H262306   0.384   0.138   1.655  2.3235 -0.7896  0.3974
13631TIP3   OH262307   5.014   4.378  11.277  0.1280  0.0389  0.0391
13631TIP3    H162308   4.988   4.438  11.208  0.1060  0.5226  0.4663
13631TIP3    H262309   5.104   4.403  11.299  0.8351 -1.3583 -1.1398
13632TIP3   OH262310   3.294   2.790  15.994  0.0199  0.3916  0.4876
13632TIP3    H162311   3.272   2.769  16.085 -2.6011 -3.1733 -0.8289
13632TIP3    H262312   3.379   2.747  15.979  0.3418  0.7861  1.1739
13633TIP3   OH262313   5.264   4.417  16.340  0.4908  0.0399  0.2581
13633TIP3    H162314   5.179   4.448  16.308 -0.0278 -0.7925  0.7917
13633TIP3    H262315   5.246   4.328  16.371  1.7844 -0.5130 -0.5668
13634TIP3   OH262316   4.220   4.353  14.319  0.4214 -0.6148 -0.2695
13634TIP3    H162317   4.308   4.344  14.355  0.7282 -0.0141 -0.8509
13634TIP3    H262318   4.164   4.360  14.396  1.1983  1.8861  0.1250
13635TIP3   OH262319   2.126   5.772  11.670 -0.4519  0.2346 -0.2022
13635TIP3    H162320   2.056   5.714  11.640  0.6484 -1.7880  1.0344
13635TIP3    H262321   2.185   5.780  11.595 -0.5556 -0.3196 -0.3431
13636TIP3   OH262322   1.431   1.036  14.594  0.3518 -0.4251  0.4600
13636TIP3    H162323   1.418   1.001  14.506 -0.0446 -0.9321  0.7159
13636TIP3    H262324   1.510   1.089  14.587  1.1513 -1.6206  0.1151
13637TIP3   OH262325   6.018   1.937   4.352  0.0801 -0.3026 -0.5445
13637TIP3    H162326   6.039   1.860   4.299 -0.4867 -0.1972 -0.9140
13637TIP3    H262327   6.049   2.011   4.300  1.3388 -0.3127  0.1516
13638TIP3   OH262328   0.009   4.748   6.550  0.5919  0.2594  0.9690
13638TIP3    H162329   0.016   4.673   6.610  0.0771  0.3090  1.0932
13638TIP3    H262330  -0.085   4.769   6.549  0.3493 -0.8363 -1.2059
13639TIP3   OH262331   5.204   0.885   4.469  0.1714 -0.2626 -0.5810
13639TIP3    H162332   5.212   0.910   4.377  0.3483  0.7985 -0.2852
13639TIP3    H262333   5.294   0.884   4.502  0.1099 -0.6338 -0.4237
13640TIP3   OH262334   6.528   2.500  14.267  0.0960 -0.5540  0.1979
13640TIP3    H162335   6.585   2.423  14.272 -0.8456 -1.1776  1.5605
13640TIP3    H262336   6.589   2.575  14.272  1.1513 -1.1479 -2.6700
13641TIP3   OH262337   5.026   5.250  15.505 -0.4595 -0.0887 -0.1958
13641TIP3    H162338   4.937   5.267  15.475 -0.0574  1.7728 -0.3556
13641TIP3    H262339   5.082   5.294  15.441  0.5733 -0.9979  0.0672
13642TIP3   OH262340   4.732   2.763  13.394  0.0487  0.2768  0.4657
13642TIP3    H162341   4.640   2.786  13.404  0.3864  2.4836 -1.0252
13642TIP3    H262342   4.776   2.847  13.380  2.5218 -0.5724  2.7487
13643TIP3   OH262343   0.872   1.409   2.922 -0.0718  0.6774  0.4695
13643TIP3    H162344   0.791   1.421   2.872 -0.2604  1.8556  1.0518
13643TIP3    H262345   0.937   1.386   2.856 -1.0628 -1.1751  0.1007
13644TIP3   OH262346   4.741   2.040   5.697  0.1555 -0.8215 -0.1587
13644TIP3    H162347   4.677   1.970   5.711 -0.1637 -0.4002  0.5298
13644TIP3    H262348   4.715   2.108   5.760  1.6854 -0.9226  0.5867
13645TIP3   OH262349   5.771   2.321  11.845  0.0978  0.6004  0.3416
13645TIP3    H162350   5.837   2.283  11.787  0.7073  0.0042  1.4290
13645TIP3    H262351   5.688   2.287  11.811  0.3278  1.3385 -1.0134
13646TIP3   OH262352   5.520   4.499  13.203 -0.0375 -0.4969  0.3720
13646TIP3    H162353   5.475   4.419  13.230 -0.2138  0.7047  3.7571
13646TIP3    H262354   5.453   4.549  13.157 -1.5912  0.2485  3.3553
13647TIP3   OH262355   0.097   1.635   5.430 -0.0897  0.1130 -0.4166
13647TIP3    H162356   0.102   1.729   5.412  0.3604  0.2819  0.5531
13647TIP3    H262357   0.178   1.615   5.476 -1.8639  0.0274  2.8185
13648TIP3   OH262358   4.461   5.494  13.130 -0.3807 -0.2546  0.7183
13648TIP3    H162359   4.433   5.534  13.212 -0.9714  0.6507  0.0959
13648TIP3    H262360   4.381   5.485  13.079 -0.1497 -1.6637  0.5982
13649TIP3   OH262361   2.920   5.317  17.163 -0.4442 -0.4193 -0.5008
13649TIP3    H162362   2.923   5.254  17.235  1.8020  1.0828  0.7907
13649TIP3    H262363   2.912   5.264  17.084 -0.2818 -2.2199  0.6777
13650TIP3   OH262364   5.311   5.587   4.535 -0.5283  0.0582  0.1381
13650TIP3    H162365   5.231   5.638   4.525 -2.4837 -2.8572  0.1678
13650TIP3    H262366   5.359   5.603   4.454 -0.9799  2.0720  0.2347
13651TIP3   OH262367   2.629   3.264  13.460  0.0257 -0.5148 -0.0029
13651TIP3    H162368   2.590   3.351  13.470  0.5532 -0.1485 -0.9652
13651TIP3    H262369   2.598   3.234  13.375  2.2227  0.0140 -1.0355
13652TIP3   OH262370   4.641   3.220   1.991  0.4823  0.5563  0.4738
13652TIP3    H162371   4.655   3.268   2.073  0.0414  1.5911 -0.0465
13652TIP3    H262372   4.547   3.229   1.974 -0.1504 -2.8676  1.8077
13653TIP3   OH262373   2.954   0.101   1.426 -0.8959  0.8049  0.1494
13653TIP3    H162374   2.929   0.017   1.465  0.7153 -0.4324 -1.3816
13653TIP3    H262375   2.903   0.106   1.345 -1.8802  1.8680  0.8349
13654TIP3   OH262376   3.923   3.056  16.259  0.2273  0.3380  0.2333
13654TIP3    H162377   3.982   3.021  16.326 -0.8375 -0.7113  0.6538
13654TIP3    H262378   3.837   3.058  16.302 -0.5769 -0.8924 -1.2534
13655TIP3   OH262379   2.498   1.648  11.664  0.2061 -0.0946 -0.2657
13655TIP3    H162380   2.430   1.639  11.598 -2.0019 -1.6008  2.1333
13655TIP3    H262381   2.572   1.686  11.617 -1.3052 -1.0787 -3.5749
13656TIP3   OH262382   1.951   5.673  12.300  0.8074  0.0672 -0.3636
13656TIP3    H162383   1.971   5.592  12.347 -0.6183  0.5845  1.2096
13656TIP3    H262384   1.877   5.649  12.243 -1.2598  0.8314  1.9289
13657TIP3   OH262385   2.639   5.078   1.820 -0.3650  0.3942 -0.0531
13657TIP3    H162386   2.573   5.124   1.768 -1.1860 -0.6668  0.0554
13657TIP3    H262387   2.597   5.063   1.905 -0.5423 -1.6440 -0.4877
13658TIP3   OH262388   0.848   2.337   6.146  0.1213  0.0207 -0.0376
13658TIP3    H162389   0.830   2.257   6.195  0.8301  0.1332  0.4008
13658TIP3    H262390   0.937   2.361   6.170  1.3426 -1.1448 -3.0168
13659TIP3   OH262391   4.001   3.603  17.157 -0.2818 -0.0559  0.3419
13659TIP3    H162392   4.007   3.609  17.062  2.5925 -0.4123  0.4523
13659TIP3    H262393   3.908   3.590  17.174 -1.0168  1.2316 -2.3257
13660TIP3   OH262394   5.984   5.329  11.121 -0.2262  0.5860  0.2288
13660TIP3    H162395   6.023   5.343  11.207  2.1578 -1.3687 -0.4413
13660TIP3    H262396   5.931   5.407  11.105 -0.3129  1.2188  3.2116
13661TIP3   OH262397   5.482   6.093  11.442  0.3830  0.2979 -0.0745
13661TIP3    H162398   5.389   6.073  11.447  0.9714 -2.5955  0.1091
13661TIP3    H262399   5.506   6.117  11.532  0.1945 -0.7501  0.2592
13662TIP3   OH262400   5.545   5.673   6.087 -0.0201 -0.4019  0.1885
13662TIP3    H162401   5.576   5.763   6.071  0.5468 -0.6793 -0.3328
13662TIP3    H262402   5.519   5.672   6.179  1.3240 -0.0857  0.5865
13663TIP3   OH262403   5.156   2.112   4.005  0.6588  0.2427  0.1426
13663TIP3    H162404   5.065   2.132   4.030  0.6195  0.2881 -0.0406
13663TIP3    H262405   5.158   2.017   3.997  0.4388  0.2965 -0.5975
13664TIP3   OH262406   5.565   0.405   4.926 -0.2308  0.3872  0.3933
13664TIP3    H162407   5.490   0.462   4.944 -0.5797 -0.2908  1.0920
13664TIP3    H262408   5.552   0.330   4.983  0.4106 -0.2386 -0.2760
13665TIP3   OH262409   2.558   0.880  13.154 -0.0239  0.0918  0.2311
13665TIP3    H162410   2.466   0.904  13.165 -0.3859  0.6421 -3.5155
13665TIP3    H262411   2.607   0.958  13.181 -0.7703  0.9083 -0.7703
13666TIP3   OH262412   3.878   4.581   3.954 -0.0621 -0.3790 -0.1427
13666TIP3    H162413   3.970   4.574   3.929  0.1706  0.1687  0.5168
13666TIP3    H262414   3.862   4.676   3.957 -0.4690 -0.4652  0.3592
13667TIP3   OH262415   3.378   5.924   4.602  0.5823 -0.2797 -0.1993
13667TIP3    H162416   3.449   5.957   4.657  0.3376 -0.4161  0.1998
13667TIP3    H262417   3.320   6.000   4.591 -1.3602 -1.1961  2.9043
13668TIP3   OH262418   3.767   3.916   0.158 -0.0616  0.0898 -0.5452
13668TIP3    H162419   3.803   3.878   0.238  1.1677  1.4475 -0.4343
13668TIP3    H262420   3.681   3.949   0.184 -0.9177 -2.1109 -0.5164
13669TIP3   OH262421   3.656   4.589  17.070  0.7550 -0.6416  0.1538
13669TIP3    H162422   3.680   4.596  17.162  0.8963  0.2951  0.0497
13669TIP3    H262423   3.562   4.605  17.069  0.8362 -0.1773  0.0767
13670TIP3   OH262424   5.350   3.669   6.333  0.0573 -0.6672  0.2412
13670TIP3    H162425   5.435   3.669   6.378  1.8962 -0.4466 -3.0885
13670TIP3    H262426   5.340   3.758   6.301 -1.7123 -0.5705  1.0002
13671TIP3   OH262427   1.960   5.395  12.926  0.4441  0.1243 -0.6581
13671TIP3    H162428   2.026   5.329  12.905 -0.1214 -0.5323 -0.4010
13671TIP3    H262429   1.981   5.423  13.015  0.8812  0.5346 -0.8883
13672TIP3   OH262430   3.937   2.746   3.792  0.3339  0.3670  0.2737
13672TIP3    H162431   4.030   2.763   3.779  0.3635 -0.0653 -0.1155
13672TIP3    H262432   3.915   2.681   3.725 -0.3961  0.9572 -0.0660
13673TIP3   OH262433   1.248   4.549   0.599 -0.0710  0.6939 -0.3483
13673TIP3    H162434   1.217   4.460   0.582  0.2389  0.5891 -0.3672
13673TIP3    H262435   1.344   4.543   0.593  0.1657  0.3410  2.9265
13674TIP3   OH262436   4.509   3.117   0.479 -0.0796  0.1399 -0.4748
13674TIP3    H162437   4.499   3.198   0.429 -1.3822  0.5401  0.4184
13674TIP3    H262438   4.457   3.131   0.558  0.4163 -1.2262  0.1000
13675TIP3   OH262439   6.033   1.815  13.956 -0.8323  0.4166 -0.1385
13675TIP3    H162440   6.114   1.853  13.922 -0.6612 -1.9141 -2.4784
13675TIP3    H262441   6.057   1.726  13.983 -1.9710  0.7172  2.0451
13676TIP3   OH262442   2.190   0.779   2.100  0.0578 -0.1431  0.4542
13676TIP3    H162443   2.223   0.839   2.167 -0.7923  1.0417 -0.1710
13676TIP3    H262444   2.204   0.692   2.137 -2.9418  0.5056  3.4327
13677TIP3   OH262445   0.048   2.663   1.394 -0.1853 -0.0215  0.0809
13677TIP3    H162446   0.046   2.567   1.396 -0.2161 -0.0409 -0.5219
13677TIP3    H262447  -0.008   2.686   1.319 -0.0371  0.4632  0.1156
13678TIP3   OH262448   6.475   5.539  13.617  0.0014  0.1401 -0.1860
13678TIP3    H162449   6.416   5.610  13.595 -0.6411 -0.4030 -0.2219
13678TIP3    H262450   6.432   5.460  13.584  0.5374 -0.3123  0.1711
13679TIP3   OH262451   2.614   3.242  14.562 -0.3283  0.1704  0.2874
13679TIP3    H162452   2.671   3.292  14.621  1.3335 -1.0144 -0.2985
13679TIP3    H262453   2.611   3.294  14.482 -0.0624  0.2229  0.3112
13680TIP3   OH262454   1.550   1.473  12.305  0.5839  0.8555 -0.4188
13680TIP3    H162455   1.503   1.553  12.327 -0.1686  0.5130 -0.7415
13680TIP3    H262456   1.551   1.472  12.209  0.0113  0.1462 -0.4195
13681TIP3   OH262457   4.142   5.798   5.558  0.2418 -0.1950 -0.5665
13681TIP3    H162458   4.144   5.710   5.520 -0.3071 -1.3165  1.9113
13681TIP3    H262459   4.049   5.819   5.563  0.2489 -0.4089  0.8489
13682TIP3   OH262460   6.579   3.843   5.425 -0.0763 -0.5137  0.4924
13682TIP3    H162461   6.601   3.774   5.488  0.6576 -0.4029  0.3637
13682TIP3    H262462   6.623   3.816   5.344  0.2063  0.1068  0.4390
13683TIP3   OH262463   0.366   4.163  16.264 -0.7903  0.2246  0.4310
13683TIP3    H162464   0.380   4.138  16.355  0.0910  0.6204  0.4141
13683TIP3    H262465   0.356   4.080  16.217 -0.1116 -0.0245  0.7140
13684TIP3   OH262466   5.511   5.044  16.202  0.6813  0.4597 -0.2988
13684TIP3    H162467   5.583   5.090  16.158  0.6466 -1.2688 -2.2107
13684TIP3    H262468   5.555   4.985  16.263  0.8794 -0.2371 -1.1090
13685TIP3   OH262469   0.846   6.226   6.456 -0.1335 -0.0059 -0.2890
13685TIP3    H162470   0.917   6.179   6.412  2.3539  1.5945  1.8137
13685TIP3    H262471   0.855   6.203   6.549 -2.3085  0.3361  0.0459
13686TIP3   OH262472   5.595   5.271  11.741 -0.4296 -0.1049 -0.4799
13686TIP3    H162473   5.609   5.265  11.646  0.3955 -2.5813 -0.2339
13686TIP3    H262474   5.507   5.306  11.750 -0.4232  0.3791 -2.1651
13687TIP3   OH262475   1.170   3.281   3.926  0.0310  0.6132  0.4221
13687TIP3    H162476   1.256   3.258   3.891  0.0510  0.6896  0.4228
13687TIP3    H262477   1.109   3.233   3.870  0.0438  1.0549  0.0273
13688TIP3   OH262478   1.157   2.582  16.859 -0.2230  0.2616  0.0004
13688TIP3    H162479   1.089   2.563  16.794 -0.3487  1.0674 -0.1121
13688TIP3    H262480   1.135   2.526  16.934 -0.9631  0.4409 -0.0732
13689TIP3   OH262481   6.737   3.081  16.177  0.5087  0.0624 -0.2130
13689TIP3    H162482   6.660   3.030  16.151  1.4329 -3.4083  3.3696
13689TIP3    H262483   6.805   3.055  16.115 -0.2132  0.3542 -1.1365
13690TIP3   OH262484   4.651   2.416   2.153  0.9659 -0.1791  0.4240
13690TIP3    H162485   4.737   2.458   2.152 -0.0393  1.9283  0.3133
13690TIP3    H262486   4.599   2.468   2.214 -0.4074 -1.0767  0.0523
13691TIP3   OH262487   5.489   1.005  16.043  0.0539  0.1946 -0.2630
13691TIP3    H162488   5.452   1.066  15.979  0.3080 -0.1959 -0.7780
13691TIP3    H262489   5.431   1.014  16.119  0.2851  1.3239 -0.2127
13692TIP3   OH262490   0.103   2.779  13.599 -0.0937  0.0870 -0.2094
13692TIP3    H162491   0.168   2.732  13.651 -1.1800 -0.5437  0.6140
13692TIP3    H262492   0.080   2.719  13.528  1.2024  0.8477 -1.3063
13693TIP3   OH262493   0.065   2.477  15.839  0.4204  0.6545 -0.3237
13693TIP3    H162494   0.059   2.423  15.761  0.9494 -0.6024  0.4893
13693TIP3    H262495  -0.025   2.506  15.855 -0.2497 -1.6883  0.3985
13694TIP3   OH262496   4.452   1.539   0.469 -0.4525 -0.1734 -0.0240
13694TIP3    H162497   4.474   1.551   0.377  0.0429 -0.7594  0.0171
13694TIP3    H262498   4.438   1.628   0.502  1.4226  0.1800 -0.1515
13695TIP3   OH262499   5.481   3.221   3.737 -0.0199 -0.4282  0.0019
13695TIP3    H162500   5.470   3.248   3.828 -0.8804  1.0436 -0.5244
13695TIP3    H262501   5.413   3.269   3.689 -0.1452 -1.8524 -1.2891
13696TIP3   OH262502   1.650   2.753   4.240  0.6748  0.1623  0.0816
13696TIP3    H162503   1.618   2.689   4.177 -0.5645 -0.5984  1.4472
13696TIP3    H262504   1.744   2.758   4.224  0.5835 -1.0359 -0.8992
13697TIP3   OH262505   1.664   3.901   1.889  0.4382 -0.2230  0.0620
13697TIP3    H162506   1.586   3.898   1.834  0.6293  1.0894 -0.2820
13697TIP3    H262507   1.699   3.811   1.885 -1.4018 -0.9969  0.7634
13698TIP3   OH262508   4.457   6.153   0.349  0.0567  0.0710  0.2149
13698TIP3    H162509   4.414   6.090   0.408 -1.2916 -0.3237 -1.1637
13698TIP3    H262510   4.448   6.115   0.262 -0.2039  1.8656 -0.5696
13699TIP3   OH262511   2.817   2.890  12.177  0.3932 -0.2269  0.2991
13699TIP3    H162512   2.810   2.843  12.094 -0.3680  1.4482 -0.6300
13699TIP3    H262513   2.728   2.920  12.195  1.2072  2.9851 -0.4943
13700TIP3   OH262514   4.292   3.624  15.532 -0.2299 -0.3688  0.0163
13700TIP3    H162515   4.230   3.562  15.572 -1.4675  1.1383  0.5013
13700TIP3    H262516   4.249   3.709  15.541  2.9462  1.0596  2.4821
13701TIP3   OH262517   4.181   0.597  16.782 -0.5573 -0.2339 -0.1802
13701TIP3    H162518   4.220   0.593  16.870 -0.1556 -1.1988 -0.4030
13701TIP3    H262519   4.198   0.511  16.744  1.0593  0.8360 -1.9681
13702TIP3   OH262520   6.002   1.744  16.856 -0.6688 -0.4010 -0.0555
13702TIP3    H162521   5.929   1.690  16.886 -3.0287  1.8411 -1.5137
13702TIP3    H262522   6.061   1.683  16.812 -1.4768 -2.2987  1.4298
13703TIP3   OH262523   0.432   1.470   4.645  0.4604 -0.0727  0.0326
13703TIP3    H162524   0.525   1.460   4.662  0.5304 -0.0994 -0.3497
13703TIP3    H262525   0.410   1.394   4.590 -0.0076 -0.6391  0.9877
13704TIP3   OH262526   1.467   1.472  12.681 -0.3917 -0.3377 -0.6902
13704TIP3    H162527   1.452   1.397  12.624  2.1876 -0.3729 -1.3894
13704TIP3    H262528   1.521   1.438  12.752  0.1164  0.6829 -0.5798
13705TIP3   OH262529   5.669   3.247   2.743  0.0570  0.1498 -0.0712
13705TIP3    H162530   5.652   3.171   2.687 -1.2837 -0.4605  1.1416
13705TIP3    H262531   5.677   3.211   2.831 -0.2704  1.3911  0.4733
13706TIP3   OH262532   6.683   3.534  12.686 -0.3085 -0.0506 -0.0451
13706TIP3    H162533   6.609   3.573  12.638  0.6860  1.4813 -0.3660
13706TIP3    H262534   6.657   3.443  12.699 -2.9230  0.8108  1.1412
13707TIP3   OH262535   4.751   6.196   1.293  0.0729 -0.5800 -0.0891
13707TIP3    H162536   4.778   6.112   1.256 -2.4425 -1.3733 -0.2325
13707TIP3    H262537   4.670   6.218   1.247 -0.3576  0.9502  1.3405
13708TIP3   OH262538   3.157   0.366   2.301 -0.3302  0.4268 -0.3967
13708TIP3    H162539   3.174   0.368   2.207 -2.2263  1.3699 -0.7493
13708TIP3    H262540   3.062   0.375   2.309 -0.3040 -0.6166  1.5854
13709TIP3   OH262541   5.930   1.878   3.571 -0.6449  0.2106  0.2446
13709TIP3    H162542   6.020   1.891   3.539 -0.7152 -1.0165 -0.4619
13709TIP3    H262543   5.939   1.879   3.667  0.0861  0.3567  0.1812
13710TIP3   OH262544   1.812   3.250   5.979  0.4479 -0.1115 -0.1577
13710TIP3    H162545   1.719   3.264   5.997  0.7016 -0.5405  1.5524
13710TIP3    H262546   1.818   3.250   5.883 -1.6337 -2.1885 -0.3276
13711TIP3   OH262547   1.955   4.031   4.009 -0.1464  0.0916  0.0795
13711TIP3    H162548   1.990   4.104   3.957 -1.3811 -0.8266 -2.1059
13711TIP3    H262549   2.021   3.962   4.000  0.4127  0.4752  1.1049
13712TIP3   OH262550   3.045   4.768  13.187  0.6918  0.7248  0.4185
13712TIP3    H162551   3.119   4.753  13.128 -1.1370 -2.5705 -1.1556
13712TIP3    H262552   2.968   4.751  13.134 -1.1624  2.2848  2.5376
13713TIP3   OH262553   4.468   4.103  10.751  0.3818 -0.0542  0.2625
13713TIP3    H162554   4.420   4.184  10.734  0.5097 -0.0112  0.0923
13713TIP3    H262555   4.486   4.104  10.845  3.0412  1.6269 -0.1997
13714TIP3   OH262556   0.145   0.219   4.633 -0.1028  0.5251  0.1591
13714TIP3    H162557   0.209   0.272   4.585  0.6423 -1.4721 -1.1079
13714TIP3    H262558   0.129   0.269   4.713  1.8906  1.8219 -0.2027
13715TIP3   OH262559   3.771   2.802  12.836 -0.4369 -0.3752 -0.1475
13715TIP3    H162560   3.793   2.726  12.783  2.0072  1.3289 -1.6121
13715TIP3    H262561   3.750   2.871  12.773 -0.2728  0.8748  1.1375
13716TIP3   OH262562   5.536   4.664  14.245 -0.4183 -0.0629 -0.2788
13716TIP3    H162563   5.463   4.707  14.289 -0.1615 -0.6594  0.7454
13716TIP3    H262564   5.510   4.659  14.153 -1.4255  0.2126 -0.0088
13717TIP3   OH262565   1.460   2.691   5.637 -0.2756  0.2135 -0.7864
13717TIP3    H162566   1.430   2.686   5.546  0.9347 -0.0079 -1.1857
13717TIP3    H262567   1.550   2.658   5.635 -0.5150 -0.5835  0.6400
13718TIP3   OH262568   5.211   2.569  16.766 -0.2157 -0.3657  0.2849
13718TIP3    H162569   5.120   2.588  16.741 -0.0347 -1.5835 -1.4220
13718TIP3    H262570   5.262   2.639  16.724 -0.1494 -1.0582 -0.8211
13719TIP3   OH262571   6.749   1.706   2.005 -0.0612 -0.1959  0.3928
13719TIP3    H162572   6.819   1.750   2.052  0.4849  2.9875 -3.1483
13719TIP3    H262573   6.668   1.738   2.045  0.4333  0.6222  0.7251
13720TIP3   OH262574   4.138   4.567  15.308  0.3036 -0.2356  0.1246
13720TIP3    H162575   4.156   4.476  15.285 -1.6866 -1.4991  3.2619
13720TIP3    H262576   4.214   4.594  15.360 -0.9317 -1.5290  2.7234
13721TIP3   OH262577   4.909   5.162   1.839  0.0702  0.0662  0.2341
13721TIP3    H162578   4.985   5.211   1.809 -1.8137  1.9485 -1.6799
13721TIP3    H262579   4.864   5.221   1.899 -0.5660 -0.5064  0.3317
13722TIP3   OH262580   5.319   6.482  13.055 -0.2354  0.1280 -0.2573
13722TIP3    H162581   5.241   6.509  13.104 -0.4290 -0.4421 -0.2415
13722TIP3    H262582   5.292   6.401  13.011  0.5216 -0.3762  0.1963
13723TIP3   OH262583   1.249   5.390   6.146 -0.2186 -0.0727  0.1071
13723TIP3    H162584   1.215   5.449   6.078  0.2917  0.0289 -0.0630
13723TIP3    H262585   1.343   5.384   6.128  0.6765  3.0810  3.0934
13724TIP3   OH262586   5.330   2.773   0.485 -0.3440  0.1549  0.0667
13724TIP3    H162587   5.383   2.734   0.555 -1.4181  1.2229  1.5146
13724TIP3    H262588   5.288   2.698   0.443 -1.7601 -0.3910  2.3103
13725TIP3   OH262589   0.758   5.357   5.663  0.1763 -0.5019 -0.0986
13725TIP3    H162590   0.675   5.322   5.633  1.1076 -1.8715 -1.1128
13725TIP3    H262591   0.803   5.385   5.583  0.3352  1.0638  0.5122
13726TIP3   OH262592   4.591   4.243  12.480 -0.3403 -0.2698 -0.1890
13726TIP3    H162593   4.549   4.319  12.519 -2.1741 -0.8228 -0.9971
13726TIP3    H262594   4.649   4.279  12.413  0.3564  0.5074  0.8276
13727TIP3   OH262595   2.248   4.871   3.019 -0.2577 -0.2933  0.1718
13727TIP3    H162596   2.251   4.955   3.064 -1.9659  0.0798 -0.3699
13727TIP3    H262597   2.340   4.846   3.008  0.3893  2.5567 -1.5835
13728TIP3   OH262598   1.645   3.857   5.600  0.1348 -0.1446 -0.3055
13728TIP3    H162599   1.647   3.885   5.692  0.0095  0.9312 -0.6319
13728TIP3    H262600   1.732   3.821   5.585 -0.6604 -2.7465  0.9808
13729TIP3   OH262601   1.796   1.702  12.558 -0.1036  0.0893 -0.3364
13729TIP3    H162602   1.768   1.759  12.487  0.4765  0.8936  0.0683
13729TIP3    H262603   1.892   1.701  12.551 -0.0375  0.2770  0.5134
13730TIP3   OH262604   0.285   2.820   1.447  0.4420  0.2876 -0.2136
13730TIP3    H162605   0.200   2.777   1.445  0.1760  0.7929  0.2346
13730TIP3    H262606   0.314   2.820   1.356  0.1120 -0.1687 -0.3227
13731TIP3   OH262607   4.063   5.533   3.587  0.3172  0.3622 -0.0595
13731TIP3    H162608   3.969   5.529   3.569  0.2970  0.2966  0.0566
13731TIP3    H262609   4.073   5.486   3.670  0.5670 -0.3419 -0.4911
13732TIP3   OH262610   4.325   4.050  15.558  0.3593 -0.1791  0.4288
13732TIP3    H162611   4.365   4.137  15.557 -0.2735  0.1245  1.0677
13732TIP3    H262612   4.318   4.027  15.651 -0.3701 -0.4913  0.3072
13733TIP3   OH262613   3.564   2.552  13.439  0.3871  0.6989  0.1262
13733TIP3    H162614   3.658   2.563  13.426  0.5751 -0.1692  0.7072
13733TIP3    H262615   3.555   2.467  13.482 -0.7325  0.3698 -0.7442
13734TIP3   OH262616   0.599   2.001  16.819 -0.9993  0.1475  0.5432
13734TIP3    H162617   0.629   1.914  16.792  0.4341  0.8757 -0.2672
13734TIP3    H262618   0.678   2.055  16.816 -2.0453  1.6747  0.2066
13735TIP3   OH262619   0.946   3.957  13.653 -0.1911 -0.4300 -0.3838
13735TIP3    H162620   0.866   3.913  13.626 -1.0282  1.9037 -1.8146
13735TIP3    H262621   0.996   3.970  13.573  1.2513 -1.1143  0.3823
13736TIP3   OH262622   0.541   3.972   0.352  0.6474 -0.2397  0.0986
13736TIP3    H162623   0.578   3.884   0.343 -0.3470 -0.7643  1.0397
13736TIP3    H262624   0.471   3.963   0.417  0.5936  1.2645  0.2891
13737TIP3   OH262625   4.647   1.728   4.828  0.2398  0.0420 -0.2844
13737TIP3    H162626   4.734   1.706   4.862  0.6284 -3.2316 -3.1098
13737TIP3    H262627   4.665   1.781   4.750 -0.3743  0.9290  0.1747
13738TIP3   OH262628   1.263   1.998   0.071  0.0646  0.1044 -0.5885
13738TIP3    H162629   1.184   2.033   0.031  0.6698  2.2907  0.0496
13738TIP3    H262630   1.241   1.987   0.163 -0.0753 -1.1114 -0.7563
13739TIP3   OH262631   1.090   2.061  13.993  0.8659 -0.2413 -0.1227
13739TIP3    H162632   1.175   2.040  13.953  0.7599 -2.2964  0.6808
13739TIP3    H262633   1.028   2.005  13.947  0.2598 -0.2774  0.7414
13740TIP3   OH262634   3.244   3.249   3.516  0.2612  0.5305  0.2526
13740TIP3    H162635   3.289   3.225   3.598 -0.4660 -0.3952  0.3908
13740TIP3    H262636   3.314   3.283   3.460  0.7884  1.0499  1.2141
13741TIP3   OH262637   1.139   0.477   1.152  0.5858  0.3387  0.2818
13741TIP3    H162638   1.229   0.445   1.141  0.5387 -0.2003  1.3706
13741TIP3    H262639   1.129   0.490   1.246 -1.4658 -2.6542  0.5654
13742TIP3   OH262640   4.632   1.745  17.134  0.0375 -0.0925  0.2038
13742TIP3    H162641   4.614   1.777  17.046 -1.9999 -0.2901  0.5209
13742TIP3    H262642   4.642   1.650  17.123 -0.3831 -0.1393  0.1872
13743TIP3   OH262643   0.995   2.640  13.475  0.3604  0.0014  0.2200
13743TIP3    H162644   1.046   2.574  13.428 -0.0657  0.5278 -0.9973
13743TIP3    H262645   1.061   2.689  13.525  0.5658 -1.9595  1.9260
13744TIP3   OH262646   2.482   4.018  16.134 -0.2294  0.0575 -0.0299
13744TIP3    H162647   2.553   4.074  16.106 -1.4035  1.7020  0.2319
13744TIP3    H262648   2.405   4.074  16.135 -1.6913 -1.8597 -1.0013
13745TIP3   OH262649   2.024   0.647  17.227  0.6434  0.1594  0.3931
13745TIP3    H162650   1.942   0.598  17.222  0.1568  1.0719 -1.4578
13745TIP3    H262651   2.075   0.616  17.152  1.0864  1.1433  0.2778
13746TIP3   OH262652   1.910   1.933   1.055 -0.6964  0.4560 -0.7422
13746TIP3    H162653   1.908   1.932   0.960  1.6172  0.6982 -0.8321
13746TIP3    H262654   1.906   1.840   1.080 -0.7799  0.3644 -1.0945
13747TIP3   OH262655   6.062   0.719  11.628 -0.1249  0.0219 -0.4229
13747TIP3    H162656   6.014   0.731  11.546 -1.6679 -0.0034  0.4550
13747TIP3    H262657   6.084   0.808  11.656 -1.4992  0.1659  0.2302
13748TIP3   OH262658   5.119   5.226  12.364  0.3630  0.2154  0.5756
13748TIP3    H162659   5.039   5.178  12.383  0.0698  1.0195  1.4017
13748TIP3    H262660   5.095   5.318  12.375  0.9176  0.5648 -0.9828
13749TIP3   OH262661   6.630   2.125  16.903 -0.1848 -0.3995 -0.2158
13749TIP3    H162662   6.585   2.041  16.895 -1.1238  0.1641 -0.9587
13749TIP3    H262663   6.705   2.118  16.845 -1.7291  0.2214 -2.3369
13750TIP3   OH262664   4.221   3.130  16.205  0.3463 -0.3456  0.2932
13750TIP3    H162665   4.227   3.125  16.301 -0.3482 -1.2013  0.2953
13750TIP3    H262666   4.172   3.211  16.189 -0.2778 -0.6375  0.6898
13751TIP3   OH262667   2.275   5.276  14.994  0.1084  0.3876 -0.8230
13751TIP3    H162668   2.355   5.267  15.045 -0.8270  0.1701  0.6194
13751TIP3    H262669   2.238   5.188  14.992 -2.0449  1.1932  1.7573
13752TIP3   OH262670   3.065   2.300  14.290  0.1763  0.2715 -0.4892
13752TIP3    H162671   3.056   2.248  14.370 -0.9824  1.4743  0.1757
13752TIP3    H262672   3.158   2.293  14.268  0.9635  1.5325  2.0917
13753TIP3   OH262673   0.609   3.490   3.529  0.5915 -0.8525 -0.3720
13753TIP3    H162674   0.581   3.550   3.598 -0.0497 -1.3754 -0.1690
13753TIP3    H262675   0.652   3.546   3.465 -1.2900  0.0620 -0.8870
13754TIP3   OH262676   5.127   3.882   3.009  0.5166 -0.1416  0.0588
13754TIP3    H162677   5.139   3.792   3.037 -1.6509  0.0798  1.8116
13754TIP3    H262678   5.096   3.928   3.087 -0.9815  1.5386 -1.4759
13755TIP3   OH262679   5.478   4.960  13.851  0.5052  0.4591  0.0894
13755TIP3    H162680   5.454   5.034  13.794 -0.2276  0.3976  0.3276
13755TIP3    H262681   5.536   4.999  13.917 -1.1874  1.1437  1.1917
13756TIP3   OH262682   3.680   4.175   5.273  0.1422 -0.4841  0.2927
13756TIP3    H162683   3.763   4.186   5.319  0.7239 -1.4906 -0.4856
13756TIP3    H262684   3.683   4.238   5.202  1.0337 -1.7543 -0.8123
13757TIP3   OH262685   1.707   2.475  12.698  0.5355  0.3045  0.3130
13757TIP3    H162686   1.724   2.481  12.604  0.9924 -0.2677  0.3489
13757TIP3    H262687   1.663   2.556  12.721  1.0204  0.7356 -0.2758
13758TIP3   OH262688   4.499   5.520   4.499 -0.4962 -1.1388 -0.5120
13758TIP3    H162689   4.451   5.568   4.566  0.2737  0.3255 -0.9673
13758TIP3    H262690   4.432   5.486   4.440 -1.0705 -0.8394 -0.0292
13759TIP3   OH262691   1.265   6.242  17.016 -0.8480 -0.0881  0.2628
13759TIP3    H162692   1.284   6.191  17.095 -0.1818 -0.6006 -0.2214
13759TIP3    H262693   1.275   6.333  17.043 -0.7649 -0.2608  0.8086
13760TIP3   OH262694   3.136   2.091   1.543  0.2543  0.2925 -0.1487
13760TIP3    H162695   3.117   2.007   1.584 -0.2872 -0.0080 -1.0190
13760TIP3    H262696   3.148   2.072   1.450  1.3921  0.9908 -0.1621
13761TIP3   OH262697   3.325   6.261   3.590  0.2451 -0.1020  0.0838
13761TIP3    H162698   3.313   6.170   3.617  1.4734 -0.4290 -0.4569
13761TIP3    H262699   3.418   6.278   3.601  0.0370  1.0817  0.1214
13762TIP3   OH262700   1.943   3.603  14.237 -0.0408 -0.3804 -0.5925
13762TIP3    H162701   2.003   3.533  14.212 -0.4556 -0.3322 -1.7111
13762TIP3    H262702   1.966   3.622  14.329  1.1921 -0.8238 -0.7989
13763TIP3   OH262703   1.322   0.211   3.396  0.1962  0.0903  0.0910
13763TIP3    H162704   1.338   0.187   3.305  0.1508  1.0189 -0.1658
13763TIP3    H262705   1.263   0.144   3.429  0.1920 -0.2303 -0.5744
13764TIP3   OH262706   6.069   4.577   1.984 -0.2693 -0.3995 -0.0922
13764TIP3    H162707   6.029   4.602   2.067  0.3221 -0.4604  0.2134
13764TIP3    H262708   6.105   4.490   2.000  0.5160 -0.0958 -0.1782
13765TIP3   OH262709   5.801   0.789   1.322  0.1885  0.3311  0.4090
13765TIP3    H162710   5.769   0.848   1.254 -1.0682  0.2687  0.9336
13765TIP3    H262711   5.894   0.779   1.303  0.1278  1.3797 -0.5032
13766TIP3   OH262712   4.805   5.540  13.521 -0.2255  0.3839  0.0661
13766TIP3    H162713   4.744   5.509  13.587 -0.8731  0.7150 -0.3707
13766TIP3    H262714   4.766   5.621  13.488 -0.9240 -0.8066 -2.1401
13767TIP3   OH262715   1.678   5.220   4.617  0.3701  0.5571  0.5327
13767TIP3    H162716   1.684   5.185   4.706  1.9334 -1.6171 -0.3943
13767TIP3    H262717   1.623   5.158   4.570 -3.1059  3.3430  0.7043
13768TIP3   OH262718   6.497   4.099  16.484 -0.3662 -0.6031  0.4851
13768TIP3    H162719   6.533   4.011  16.480  0.2330 -0.3369 -0.1063
13768TIP3    H262720   6.554   4.146  16.545  1.4258  0.3218 -1.8346
13769TIP3   OH262721   4.604   5.521  11.644  0.1941 -0.8699  0.1903
13769TIP3    H162722   4.545   5.586  11.606  0.7414 -0.6017 -0.2133
13769TIP3    H262723   4.691   5.561  11.635  0.4696 -1.4114  0.4639
13770TIP3   OH262724   6.214   2.059  13.900  0.6693  0.6742 -0.3144
13770TIP3    H162725   6.270   2.011  13.961  1.2646  1.6193 -0.0969
13770TIP3    H262726   6.205   2.146  13.939 -0.2686  0.7862 -0.7744
13771TIP3   OH262727   1.246   6.470  15.698  0.3302  0.6101  0.3112
13771TIP3    H162728   1.263   6.497  15.608 -2.1817  1.2843 -0.0074
13771TIP3    H262729   1.213   6.548  15.741  0.2630 -0.0378  1.4570
13772TIP3   OH262730   4.135   5.622   1.317  0.1742  0.0222  0.0621
13772TIP3    H162731   4.170   5.533   1.326  0.4705  0.2354  1.2016
13772TIP3    H262732   4.201   5.677   1.360  0.0922  0.8162 -0.8242
13773TIP3   OH262733   3.115   1.846  14.548  0.2967  0.2718 -0.4315
13773TIP3    H162734   3.141   1.801  14.629 -0.0407  2.9965  1.2640
13773TIP3    H262735   3.169   1.805  14.480  3.5408  0.5632  1.8019
13774TIP3   OH262736   3.123   5.928   1.528  0.1970  0.4627  0.4210
13774TIP3    H162737   3.130   5.832   1.531  1.0557  0.5475  1.1733
13774TIP3    H262738   3.210   5.957   1.501 -0.0793  1.0373  0.1404
13775TIP3   OH262739   1.933   2.585  15.389 -0.1034  0.2707  0.1264
13775TIP3    H162740   1.940   2.681  15.384 -0.1154  0.3107  0.8324
13775TIP3    H262741   2.013   2.558  15.433 -0.5140  0.0305  0.7330
13776TIP3   OH262742   5.996   2.775   2.677  0.4692  0.5451 -0.0371
13776TIP3    H162743   5.916   2.820   2.651  1.0394  1.7492  0.2561
13776TIP3    H262744   6.031   2.828   2.748  1.1662 -0.3664  0.3175
13777TIP3   OH262745   2.627   3.933   1.142  0.3457 -0.1975  0.7751
13777TIP3    H162746   2.658   3.869   1.078 -0.6919 -0.6419  0.7064
13777TIP3    H262747   2.630   4.017   1.097  1.9633 -0.1490  0.9468
13778TIP3   OH262748   0.228   1.863   2.726  0.0126  0.0069 -0.5906
13778TIP3    H162749   0.187   1.948   2.740 -2.0014 -0.5609 -2.7226
13778TIP3    H262750   0.277   1.872   2.645  1.2798 -0.3658  0.1153
13779TIP3   OH262751   4.230   0.855   3.507 -0.1053 -0.2979 -0.3524
13779TIP3    H162752   4.203   0.763   3.498  0.9095 -0.4750 -1.7884
13779TIP3    H262753   4.322   0.851   3.531 -0.1386  0.3425 -0.1105
13780TIP3   OH262754   3.984   1.647  11.251  0.4109 -0.3148  0.3819
13780TIP3    H162755   3.960   1.560  11.283 -0.4076  0.0437  0.7532
13780TIP3    H262756   4.066   1.634  11.204 -0.0544 -1.3981 -0.1235
13781TIP3   OH262757   5.193   2.592   0.905  0.3733 -0.0607 -0.4622
13781TIP3    H162758   5.165   2.668   0.956 -1.4229  1.2531 -3.2858
13781TIP3    H262759   5.213   2.626   0.818 -0.4782 -2.8119 -1.8159
13782TIP3   OH262760   3.603   3.531   6.703  0.4231 -0.2481 -0.4103
13782TIP3    H162761   3.564   3.612   6.739 -1.1097 -0.6468 -1.1558
13782TIP3    H262762   3.566   3.523   6.616 -1.5889 -3.2094  0.6367
13783TIP3   OH262763   5.171   4.347  12.528  0.4925 -0.6648 -0.0118
13783TIP3    H162764   5.170   4.274  12.591  0.5316 -0.8514 -0.2264
13783TIP3    H262765   5.241   4.324  12.467  0.7730 -0.2495  0.1531
13784TIP3   OH262766   3.207   4.101   4.291 -0.2599 -0.3398 -0.4139
13784TIP3    H162767   3.121   4.126   4.256 -1.5490 -1.5752  1.7022
13784TIP3    H262768   3.210   4.140   4.378 -0.0535 -2.8839  0.7918
13785TIP3   OH262769   4.540   0.861   4.624 -0.1820 -0.4323  0.3272
13785TIP3    H162770   4.527   0.822   4.537  1.0907 -1.7107  0.6889
13785TIP3    H262771   4.609   0.808   4.664  0.2363  1.0334  1.5877
13786TIP3   OH262772   0.498   5.122   3.209  0.1730  0.3923 -0.1156
13786TIP3    H162773   0.504   5.095   3.301  0.1637  0.3461 -0.1286
13786TIP3    H262774   0.573   5.081   3.167 -0.2433 -0.2056 -0.2845
13787TIP3   OH262775   4.381   1.261   2.831  0.3237 -0.1909 -0.1606
13787TIP3    H162776   4.331   1.185   2.862 -0.4995  0.5059  0.2504
13787TIP3    H262777   4.329   1.337   2.859 -0.0634  0.4814 -2.6043
13788TIP3   OH262778   2.152   1.554  14.748 -0.5341 -0.1503  0.3022
13788TIP3    H162779   2.081   1.518  14.695 -0.9754  1.1008  0.0258
13788TIP3    H262780   2.165   1.490  14.818  1.1967 -2.7247 -2.2409
13789TIP3   OH262781   2.003   0.901   3.534  0.3806  0.0837  0.3092
13789TIP3    H162782   2.041   0.855   3.459  0.8851  0.7308  0.1662
13789TIP3    H262783   1.987   0.990   3.501  1.0928  0.5167  1.1278
13790TIP3   OH262784   6.073   4.372   6.012  0.4897 -0.0150  0.2461
13790TIP3    H162785   6.007   4.307   6.036 -0.3475  0.1926 -1.4216
13790TIP3    H262786   6.146   4.355   6.072 -0.0459 -1.9375  0.4080
13791TIP3   OH262787   4.542   3.070  12.496  0.3089 -0.0097 -0.1643
13791TIP3    H162788   4.456   3.109  12.511  0.4499 -0.5118  2.0659
13791TIP3    H262789   4.524   2.994  12.439 -0.7632 -0.3061  0.5569
13792TIP3   OH262790   6.344   0.516   3.177 -0.1035  0.1729 -0.5301
13792TIP3    H162791   6.277   0.583   3.172 -0.4535 -0.1722 -0.5112
13792TIP3    H262792   6.296   0.433   3.171 -0.4587 -0.3601  6.0296
13793TIP3   OH262793   0.716   0.153   4.470 -0.5255 -0.3817 -0.5618
13793TIP3    H162794   0.795   0.116   4.432 -0.2872 -0.2777 -0.1727
13793TIP3    H262795   0.652   0.082   4.468 -0.0047 -0.8948  0.3913
13794TIP3   OH262796   5.724   2.015  17.064 -0.1689 -0.0007  0.3945
13794TIP3    H162797   5.722   1.926  17.098 -1.0354 -0.3643 -0.6070
13794TIP3    H262798   5.780   2.011  16.986  0.1818  0.4325  0.6173
13795TIP3   OH262799   5.678   1.828   5.276  0.2591  0.5479  0.4551
13795TIP3    H162800   5.698   1.848   5.185 -1.2695  0.4299  0.0822
13795TIP3    H262801   5.695   1.734   5.285 -1.8675  0.0773 -0.3384
13796TIP3   OH262802   3.427   6.304   0.503  0.2827  0.1658 -0.6894
13796TIP3    H162803   3.499   6.351   0.461  0.9825  2.3776  2.7977
13796TIP3    H262804   3.456   6.213   0.505  2.1651  0.7297 -1.0415
13797TIP3   OH262805   4.610   2.366  16.734 -0.3283 -0.4220 -0.0554
13797TIP3    H162806   4.564   2.299  16.785  0.7309 -0.6481  0.6309
13797TIP3    H262807   4.695   2.326  16.715  0.6823  1.0974  1.1971
13798TIP3   OH262808   3.204   1.910   6.436  0.1632  1.0505  0.5858
13798TIP3    H162809   3.281   1.947   6.481  0.3995  2.7644 -1.1850
13798TIP3    H262810   3.239   1.835   6.388  0.0089 -0.4718  2.7423
13799TIP3   OH262811   1.677   5.842  14.206 -0.5250 -0.1615  0.1506
13799TIP3    H162812   1.659   5.810  14.294 -0.5841 -0.0507  0.1782
13799TIP3    H262813   1.739   5.915  14.219 -0.3203 -0.3231  0.0808
13800TIP3   OH262814   2.762   4.110   1.773 -0.8315  0.6165  0.1313
13800TIP3    H162815   2.824   4.157   1.717  1.0303  1.1394  2.5314
13800TIP3    H262816   2.817   4.045   1.819 -2.5146 -0.6064  0.4568
13801TIP3   OH262817   5.185   5.634   1.719 -0.1708  0.0738 -0.0694
13801TIP3    H162818   5.096   5.667   1.709  0.0798  0.9245  0.4615
13801TIP3    H262819   5.224   5.639   1.632 -0.4020  0.4041 -0.1513
13802TIP3   OH262820   0.666   4.008   4.478  0.4142  0.2577  0.2125
13802TIP3    H162821   0.662   3.916   4.453 -2.7956  0.6720 -1.1221
13802TIP3    H262822   0.646   4.008   4.572 -2.4267 -0.2748 -0.3291
13803TIP3   OH262823   5.616   2.704  12.118 -0.1560 -0.0155 -0.0392
13803TIP3    H162824   5.694   2.659  12.085 -0.2774 -0.1420 -0.1520
13803TIP3    H262825   5.547   2.680  12.057 -0.3816 -0.2509  0.3069
13804TIP3   OH262826   4.418   6.378   4.508  0.4681 -0.1771  0.0363
13804TIP3    H162827   4.412   6.359   4.415  0.0834 -0.2561  0.0753
13804TIP3    H262828   4.478   6.312   4.543 -0.0629 -0.6871 -0.0048
13805TIP3   OH262829   3.999   5.514  13.424  0.5024 -0.6156 -0.0114
13805TIP3    H162830   3.920   5.488  13.377  0.7591 -0.3672 -0.5988
13805TIP3    H262831   3.977   5.503  13.516 -0.9074  1.3257 -0.0791
13806TIP3   OH262832   6.209   4.138  14.174  0.7904  0.3964 -0.1749
13806TIP3    H162833   6.212   4.216  14.119 -0.5039  1.2495  0.9346
13806TIP3    H262834   6.298   4.131  14.209  0.4731  2.4826  1.1841
13807TIP3   OH262835   5.479   1.538  13.438  0.1034  0.2848 -0.2291
13807TIP3    H162836   5.436   1.466  13.485 -2.2435  0.4055 -2.0989
13807TIP3    H262837   5.557   1.497  13.400 -0.7180 -1.0656 -0.5182
13808TIP3   OH262838   6.029   6.363   5.614  0.2905  0.5377 -0.0615
13808TIP3    H162839   6.027   6.287   5.556  1.9285  1.7064 -1.7241
13808TIP3    H262840   5.938   6.379   5.636 -0.0256 -2.5476  1.2254
13809TIP3   OH262841   6.520   2.796   3.734 -0.5819 -0.1374  0.0111
13809TIP3    H162842   6.555   2.772   3.820 -0.5037 -0.4075 -0.0935
13809TIP3    H262843   6.555   2.883   3.717  0.4370 -0.5892 -0.2917
13810TIP3   OH262844   6.443   4.305  15.182 -0.1483  0.8458 -0.0626
13810TIP3    H162845   6.464   4.327  15.091 -0.6392  1.0435 -0.1291
13810TIP3    H262846   6.384   4.231  15.175 -1.5470  1.9397  0.0373
13811TIP3   OH262847   1.891   0.936  10.621  0.5075 -0.4370  0.4577
13811TIP3    H162848   1.859   0.868  10.562  0.6600  0.5979 -0.8382
13811TIP3    H262849   1.987   0.927  10.617  0.5139 -0.4424  0.6354
13812TIP3   OH262850   4.676   3.039   2.348 -0.4278 -0.2349  0.1927
13812TIP3    H162851   4.690   3.078   2.434 -1.2784 -2.4447  1.3925
13812TIP3    H262852   4.677   2.944   2.365  0.7436 -0.7223 -2.4593
13813TIP3   OH262853   6.715   3.078   0.422 -0.2601  0.2389  0.0192
13813TIP3    H162854   6.647   3.141   0.399 -1.0644 -0.6809 -0.1875
13813TIP3    H262855   6.676   3.025   0.491  0.2402 -0.2990 -0.1068
13814TIP3   OH262856   1.743   0.044   1.223  0.0830 -0.7767  0.4634
13814TIP3    H162857   1.740   0.024   1.130 -1.5061 -1.1153  0.5671
13814TIP3    H262858   1.724   0.138   1.228 -4.9044 -1.6407  0.6839
13815TIP3   OH262859   1.985   5.820  16.918 -0.5101  0.0600  0.3624
13815TIP3    H162860   2.038   5.854  16.990 -0.4797 -0.2162  0.4711
13815TIP3    H262861   1.975   5.727  16.938 -1.6331  0.2490  0.7266
13816TIP3   OH262862   4.776   1.619  13.750  0.0525 -0.1611 -0.2172
13816TIP3    H162863   4.861   1.578  13.739  1.0638  2.4023 -2.3417
13816TIP3    H262864   4.715   1.561  13.703  0.7211 -1.5156  0.5491
13817TIP3   OH262865   5.383   6.157   4.678 -0.3313  0.0116  0.0936
13817TIP3    H162866   5.390   6.121   4.589  0.5715 -2.0886  0.9834
13817TIP3    H262867   5.433   6.238   4.675  0.2839 -0.4028 -1.1416
13818TIP3   OH262868   3.303   0.628   1.957  0.0975 -0.0478  0.0625
13818TIP3    H162869   3.240   0.673   1.900  1.4580 -0.7204 -2.0381
13818TIP3    H262870   3.276   0.536   1.954  0.4769 -0.1581  0.1232
13819TIP3   OH262871   6.690   0.901   1.955  0.4429  0.3795 -0.2361
13819TIP3    H162872   6.741   0.974   1.990  0.0032  1.7810 -2.4572
13819TIP3    H262873   6.607   0.939   1.927 -1.0318 -1.5193  1.3913
13820TIP3   OH262874   1.478   5.404   4.229  0.3510 -0.2587  0.7781
13820TIP3    H162875   1.462   5.498   4.228  2.8129  0.2082 -1.2539
13820TIP3    H262876   1.391   5.364   4.231 -0.7473  2.0601  0.4253
13821TIP3   OH262877   2.251   5.657  12.143  0.1063  0.4004 -0.0364
13821TIP3    H162878   2.310   5.684  12.214  0.2705 -0.4025  0.1325
13821TIP3    H262879   2.194   5.733  12.130 -0.2529  0.3717  1.2893
13822TIP3   OH262880   5.376   4.838  12.185 -0.2221 -0.3777 -0.0853
13822TIP3    H162881   5.455   4.868  12.139 -0.6611 -0.5494 -0.9600
13822TIP3    H262882   5.409   4.798  12.265  0.4620  1.2813  0.4774
13823TIP3   OH262883   2.491   3.022  15.038  0.6208 -0.7844  0.0079
13823TIP3    H162884   2.453   3.099  14.996  0.3899 -0.6264  0.4951
13823TIP3    H262885   2.567   3.000  14.985  0.8567 -0.0386  0.0381
13824TIP3   OH262886   6.747   4.053   3.463 -0.3048  0.0744  0.6125
13824TIP3    H162887   6.767   4.025   3.374 -1.1910  3.1064 -0.6130
13824TIP3    H262888   6.808   4.125   3.479 -1.4263  0.8063  1.7102
13825TIP3   OH262889   0.975   5.596   3.025 -0.3409  0.0667  0.1024
13825TIP3    H162890   0.978   5.509   3.063  1.0285  0.9701  2.1756
13825TIP3    H262891   1.065   5.614   2.998 -0.0648  1.7235  1.9296
13826TIP3   OH262892   4.122   2.259  16.485  0.0793 -0.5046 -0.1507
13826TIP3    H162893   4.100   2.180  16.435  0.3503 -2.0027  2.0201
13826TIP3    H262894   4.094   2.239  16.575  0.9256  1.5593  0.6035
13827TIP3   OH262895   3.887   4.258   5.639 -0.0375  0.4418 -0.0351
13827TIP3    H162896   3.970   4.304   5.624 -0.2521  0.7383 -0.3323
13827TIP3    H262897   3.897   4.175   5.592  0.4007  0.1222  0.6083
13828TIP3   OH262898   3.075   5.041  13.952 -0.3279 -0.5345  0.3571
13828TIP3    H162899   3.119   5.030  13.867  0.6048 -0.4873  0.8371
13828TIP3    H262900   3.020   4.963  13.960 -1.8402  0.3193 -1.1230
13829TIP3   OH262901   6.268   5.945  12.287  0.7085 -1.0178 -0.4097
13829TIP3    H162902   6.360   5.946  12.313  1.2478  0.5458 -2.2896
13829TIP3    H262903   6.243   6.037  12.283 -1.0387 -1.4541  0.4258
13830TIP3   OH262904   2.911   5.160   3.397 -0.0132 -0.0002  0.2060
13830TIP3    H162905   2.984   5.211   3.363 -2.2499  0.8146 -3.6498
13830TIP3    H262906   2.948   5.073   3.413  1.8112  0.4133 -1.6152
13831TIP3   OH262907   0.039   0.451   2.833 -0.3937 -0.3956 -0.3379
13831TIP3    H162908  -0.002   0.407   2.907  0.7307 -0.8876  0.0077
13831TIP3    H262909   0.112   0.394   2.808  0.2720  0.6044 -0.7353
13832TIP3   OH262910   5.321   6.569   4.215 -0.3079  0.2692  0.0656
13832TIP3    H162911   5.344   6.657   4.184 -1.0567 -0.2949 -2.1277
13832TIP3    H262912   5.382   6.511   4.170 -0.0837 -0.4081  1.2094
13833TIP3   OH262913   4.662   4.680  14.715 -0.2012 -0.3987 -0.6003
13833TIP3    H162914   4.706   4.710  14.794 -0.5789 -0.0574 -0.5200
13833TIP3    H262915   4.589   4.741  14.703 -0.9775 -1.2879 -0.4317
13834TIP3   OH262916   2.140   2.703  10.843 -0.1025  0.1386 -0.2414
13834TIP3    H162917   2.049   2.728  10.864  0.2396 -0.3937  2.0635
13834TIP3    H262918   2.164   2.760  10.770 -1.6621  1.6554  0.3762
13835TIP3   OH262919   3.341   5.223   6.244  0.8256 -0.0870  0.2893
13835TIP3    H162920   3.405   5.242   6.313 -0.5208  0.9373  1.2880
13835TIP3    H262921   3.306   5.136   6.266 -1.1889  1.1630  2.1839
13836TIP3   OH262922   4.838   2.208  15.299 -0.2814 -0.1887 -0.2482
13836TIP3    H162923   4.797   2.288  15.333  0.4903  0.4479 -0.7978
13836TIP3    H262924   4.809   2.139  15.359 -1.6708  0.3449 -0.2856
13837TIP3   OH262925   0.460   2.936  16.927  0.2543 -0.2679 -0.2433
13837TIP3    H162926   0.388   2.926  16.990  1.1648 -2.6138  0.4725
13837TIP3    H262927   0.503   3.017  16.954 -0.9924  0.1870  0.4786
13838TIP3   OH262928   3.913   4.916   0.676 -0.1062  0.2082 -0.2871
13838TIP3    H162929   3.970   4.991   0.688 -0.6131  0.5322  0.0956
13838TIP3    H262930   3.867   4.907   0.759 -0.9958  0.2669 -0.7628
13839TIP3   OH262931   0.305   6.769   2.482  0.2823 -0.1157  0.0300
13839TIP3    H162932   0.235   6.820   2.440  0.9476 -1.1289 -2.3875
13839TIP3    H262933   0.260   6.692   2.518  0.2348 -1.1951 -2.2575
13840TIP3   OH262934   4.574   3.993   4.948 -0.6077  0.0074 -0.2480
13840TIP3    H162935   4.551   3.991   5.041 -0.0663 -0.9154 -0.1369
13840TIP3    H262936   4.574   3.902   4.921  1.3661  0.1147 -0.6430
13841TIP3   OH262937   1.487   3.470  14.811  0.1916 -0.1805 -0.3892
13841TIP3    H162938   1.526   3.553  14.785 -2.8812  0.7022 -2.3524
13841TIP3    H262939   1.540   3.403  14.767 -1.5971  1.0717 -4.6200
13842TIP3   OH262940   2.669   4.054  13.910 -0.2637  0.3391  0.3025
13842TIP3    H162941   2.621   3.973  13.929 -0.3834  0.5049  0.7205
13842TIP3    H262942   2.691   4.048  13.818 -0.3550 -0.1308  0.3107
13843TIP3   OH262943   3.263   5.716  12.137  0.0272  0.1146 -0.7247
13843TIP3    H162944   3.302   5.629  12.141  0.2083  0.2394  0.2713
13843TIP3    H262945   3.329   5.770  12.094  1.2685  0.4921  1.6118
13844TIP3   OH262946   1.678   5.682   5.078 -0.7078 -0.3788  0.2156
13844TIP3    H162947   1.610   5.626   5.041 -1.4352  0.9872 -0.5627
13844TIP3    H262948   1.636   5.726   5.151 -0.0571 -1.0283  0.9977
13845TIP3   OH262949   4.554   5.389   3.377 -0.0200  0.3797 -0.0578
13845TIP3    H162950   4.634   5.354   3.415  0.0784 -1.4812 -1.8980
13845TIP3    H262951   4.549   5.479   3.410  2.4691  0.3049  0.6197
13846TIP3   OH262952   3.068   1.743   0.055  0.9285 -0.3368  0.6305
13846TIP3    H162953   3.081   1.790   0.137  1.9295 -0.9864  0.8446
13846TIP3    H262954   2.984   1.698   0.065  0.8973 -0.1514  1.1707
13847TIP3   OH262955   6.697   0.598  14.704 -0.6320 -0.6830 -0.0032
13847TIP3    H162956   6.675   0.515  14.662 -0.1217  0.4131 -2.4937
13847TIP3    H262957   6.613   0.643  14.715 -0.6482 -0.4749 -0.9533
13848TIP3   OH262958   4.536   0.913  10.922  0.1998  0.0376  0.2727
13848TIP3    H162959   4.571   1.000  10.906 -1.8291  0.3642 -2.8321
13848TIP3    H262960   4.448   0.928  10.956 -0.8209 -0.7370 -1.9062
13849TIP3   OH262961   6.077   3.934   4.292  0.1727  0.1287  0.4555
13849TIP3    H162962   6.117   4.005   4.342 -1.1423  0.1981  1.4525
13849TIP3    H262963   6.112   3.943   4.204 -1.0329  2.8725  0.2095
13850TIP3   OH262964   0.370   6.517  14.678 -0.5970  0.0004  0.2077
13850TIP3    H162965   0.426   6.442  14.658 -1.7530 -0.7755 -0.1385
13850TIP3    H262966   0.411   6.556  14.756  1.8123  0.8888 -1.4323
13851TIP3   OH262967   5.187   2.555  15.038  0.0921  0.3167 -0.2099
13851TIP3    H162968   5.162   2.639  15.077  0.2208  0.7628 -1.0772
13851TIP3    H262969   5.105   2.519  15.004  0.2231  0.6183 -0.8445
13852TIP3   OH262970   0.757   2.147   2.772  0.7956 -0.0879  0.0016
13852TIP3    H162971   0.715   2.140   2.686  1.0930  0.3785 -0.1820
13852TIP3    H262972   0.822   2.077   2.774  0.3416 -0.5040  0.0958
13853TIP3   OH262973   5.893   5.187   0.620 -0.1142 -0.1118  0.3940
13853TIP3    H162974   5.816   5.243   0.608 -0.2619 -0.2881  0.5141
13853TIP3    H262975   5.964   5.234   0.575 -0.3894 -0.1638 -0.1093
13854TIP3   OH262976   0.240   1.744   5.766 -0.2838  0.5058 -0.2242
13854TIP3    H162977   0.278   1.725   5.852  2.3822  1.1462 -1.1939
13854TIP3    H262978   0.165   1.686   5.760 -0.7315  0.7067  2.6762
13855TIP3   OH262979   1.392   2.633  16.966  0.2702 -0.7204 -0.2213
13855TIP3    H162980   1.336   2.604  16.895  1.6549 -1.6422 -0.9746
13855TIP3    H262981   1.370   2.725  16.979  0.4278 -0.3732 -2.2684
13856TIP3   OH262982   5.635   2.183  13.747  0.1116  0.3348  0.2980
13856TIP3    H162983   5.561   2.135  13.784 -0.1735  1.1549  0.7892
13856TIP3    H262984   5.648   2.144  13.660  0.1394 -0.9053  0.8443
13857TIP3   OH262985   5.550   0.930  13.629  0.6545 -0.3093 -0.8180
13857TIP3    H162986   5.470   0.904  13.584  0.1088  0.2082 -0.1584
13857TIP3    H262987   5.585   0.848  13.666 -1.6316  0.0143  2.1775
13858TIP3   OH262988   5.175   4.871   4.355 -0.2774 -0.1363  0.2679
13858TIP3    H162989   5.103   4.915   4.311 -0.2377 -0.5477 -0.2165
13858TIP3    H262990   5.222   4.941   4.400  2.1672  1.0281 -3.7784
13859TIP3   OH262991   6.377   1.849  15.303  0.6424 -0.0897  0.1479
13859TIP3    H162992   6.471   1.838  15.316  0.6806 -1.8295 -1.3705
13859TIP3    H262993   6.367   1.871  15.211 -0.3803  1.1988  0.5451
13860TIP3   OH262994   0.757   6.558  11.188 -0.3801 -0.0161 -0.2635
13860TIP3    H162995   0.805   6.541  11.107  2.0307  0.7176  0.9725
13860TIP3    H262996   0.675   6.598  11.159 -0.3832 -1.5040 -2.4310
13861TIP3   OH262997   5.215   3.740   3.799  0.1692 -0.4028  0.1375
13861TIP3    H162998   5.194   3.658   3.843 -0.2665  0.2205  1.1075
13861TIP3    H262999   5.239   3.714   3.710  0.8055 -1.6496  0.6585
13862TIP3   OH263000   5.524   6.291   3.345 -0.3659  0.3238 -0.6097
13862TIP3    H163001   5.524   6.196   3.354 -0.3776  0.3740 -0.0743
13862TIP3    H263002   5.492   6.323   3.429 -1.7278  0.7637 -1.2940
13863TIP3   OH263003   6.434   2.273  14.642 -0.1766  0.0055 -0.1836
13863TIP3    H163004   6.388   2.270  14.558  0.7967 -0.1674 -0.7182
13863TIP3    H263005   6.425   2.185  14.678 -1.5971  0.3940  0.4455
13864TIP3   OH263006   1.169   0.628  12.258 -0.5744  0.3758 -0.2436
13864TIP3    H163007   1.181   0.548  12.310 -0.8686 -0.5136 -1.5140
13864TIP3    H263008   1.088   0.667  12.293 -0.8669 -0.3079 -0.1524
13865TIP3   OH263009   4.858   0.582  15.138 -0.3801 -0.3098 -0.5135
13865TIP3    H163010   4.944   0.621  15.126  0.5314 -1.7611  1.0759
13865TIP3    H263011   4.820   0.579  15.051  1.8262 -1.1552 -1.4722
13866TIP3   OH263012   6.582   4.822  11.831  0.0032  0.2667  0.1093
13866TIP3    H163013   6.668   4.854  11.858 -0.0114  1.7930 -1.5000
13866TIP3    H263014   6.581   4.834  11.736 -1.6556 -0.5707  0.0013
13867TIP3   OH263015   2.276   6.080   6.214  1.0054  0.3585 -0.4952
13867TIP3    H163016   2.256   6.050   6.303  0.6066  0.2228 -0.6340
13867TIP3    H263017   2.372   6.082   6.211  1.0215  1.1487  0.2081
13868TIP3   OH263018   4.309   4.566   4.293 -0.5181 -0.2897  0.0812
13868TIP3    H163019   4.245   4.578   4.364 -0.0324  0.9394  0.3092
13868TIP3    H263020   4.276   4.620   4.221 -0.6316 -0.9811 -0.3911
13869TIP3   OH263021   0.232   5.391   4.403  0.0038  0.0439  0.0605
13869TIP3    H163022   0.208   5.360   4.490  0.8455 -3.0166 -0.7377
13869TIP3    H263023   0.320   5.428   4.414  0.2095 -0.5657  0.4475
13870TIP3   OH263024   3.620   4.132  14.866  0.1519  0.0754  0.6901
13870TIP3    H163025   3.667   4.210  14.895 -0.3344  1.3396 -1.7473
13870TIP3    H263026   3.682   4.085  14.811 -0.0257 -0.5267  0.9933
13871TIP3   OH263027   0.665   3.399  10.547 -0.3531  0.7569 -0.6029
13871TIP3    H163028   0.644   3.396  10.454 -2.1644 -0.3989 -0.1869
13871TIP3    H263029   0.691   3.309  10.568 -1.0475  0.7432  0.2318
13872TIP3   OH263030   2.624   5.064  10.797  0.1979 -0.1955 -0.2084
13872TIP3    H163031   2.569   5.105  10.864  0.0606 -0.8568  0.0890
13872TIP3    H263032   2.681   5.134  10.767 -0.5511  0.4087 -0.2494
13873TIP3   OH263033   3.874   5.689   1.857  0.4003 -0.0131  0.0224
13873TIP3    H163034   3.790   5.680   1.813  0.4540  1.2930 -0.3785
13873TIP3    H263035   3.924   5.749   1.801  1.8089 -1.2346 -0.0575
13874TIP3   OH263036   5.558   0.689  10.938  0.0889  0.3582 -0.4194
13874TIP3    H163037   5.580   0.650  10.853  1.8885  3.0041 -1.2391
13874TIP3    H263038   5.571   0.618  11.001  2.3345 -0.6369 -1.9334
13875TIP3   OH263039   5.857   1.924  13.691 -0.0504 -0.0682  0.3882
13875TIP3    H163040   5.839   1.909  13.598 -0.6422 -0.7021  0.6057
13875TIP3    H263041   5.917   1.853  13.716  2.4291  1.7280 -0.2036
13876TIP3   OH263042   3.935   3.422   3.069 -0.4236 -0.1023  0.5482
13876TIP3    H163043   4.004   3.375   3.024  0.0767  2.5739 -1.6010
13876TIP3    H263044   3.939   3.390   3.159  2.5950 -1.0694  0.1236
13877TIP3   OH263045   6.493   0.551   0.046  0.2070  0.5025 -0.2349
13877TIP3    H163046   6.415   0.508   0.012  1.0483 -0.0595 -1.4824
13877TIP3    H263047   6.487   0.641   0.014 -0.7934  0.9424  1.1290
13878TIP3   OH263048   5.733   6.443   1.159  0.4276  0.1501  0.3390
13878TIP3    H163049   5.646   6.466   1.126  0.1309  1.0503  1.6910
13878TIP3    H263050   5.719   6.364   1.211  0.6492 -0.4678 -0.5428
13879TIP3   OH263051   3.313   3.384   6.330 -0.0736  0.1700 -0.1668
13879TIP3    H163052   3.256   3.328   6.382  1.8015 -1.2455  0.4228
13879TIP3    H263053   3.313   3.346   6.242  0.5103 -0.2661  0.0155
13880TIP3   OH263054   3.124   5.970   3.899 -0.1696 -0.0052 -0.0027
13880TIP3    H163055   3.150   5.879   3.889  0.0165 -0.2888  2.7317
13880TIP3    H263056   3.052   5.968   3.963 -2.6649  1.4142 -2.6287
13881TIP3   OH263057   6.482   4.229  14.296 -0.2159  0.5994  0.5551
13881TIP3    H163058   6.533   4.280  14.234  0.8452  0.3173  1.1906
13881TIP3    H263059   6.537   4.153  14.316 -1.1385 -0.0245  0.7691
13882TIP3   OH263060   4.064   0.579   4.565 -0.4823  0.3965 -0.0605
13882TIP3    H163061   4.088   0.616   4.481  2.4312  1.1043  1.0219
13882TIP3    H263062   4.004   0.643   4.604  0.2801  1.3596 -0.4700
13883TIP3   OH263063   4.119   0.561  12.133  0.0832  0.3035 -0.2235
13883TIP3    H163064   4.107   0.563  12.228 -3.7604 -0.4850 -0.6064
13883TIP3    H263065   4.136   0.651  12.108  0.6417  0.5855  1.1479
13884TIP3   OH263066   4.980   2.001  12.927 -0.3424  0.7040 -0.6234
13884TIP3    H163067   4.981   2.097  12.933 -1.2658  0.8774 -2.6893
13884TIP3    H263068   4.891   1.980  12.900 -0.3351 -0.7957  0.5101
13885TIP3   OH263069   5.587   1.507  10.508 -0.5850  0.1057  0.1108
13885TIP3    H163070   5.582   1.493  10.413  1.4108  2.9161 -0.5053
13885TIP3    H263071   5.514   1.565  10.528 -1.6524 -1.3609  0.4998
13886TIP3   OH263072   5.633   4.177   4.040  0.9932 -0.3421 -0.4323
13886TIP3    H163073   5.542   4.162   4.016  1.0060 -1.6045  0.2504
13886TIP3    H263074   5.633   4.263   4.082  0.1015 -0.3674 -0.3690
13887TIP3   OH263075   4.270   5.853  12.242  0.4486  0.2582  0.3507
13887TIP3    H163076   4.301   5.815  12.324 -0.7518 -0.1777  0.6094
13887TIP3    H263077   4.225   5.781  12.197  0.4264  0.6965 -0.3409
13888TIP3   OH263078   1.505   5.391   0.741  0.6263  0.0883 -0.0349
13888TIP3    H163079   1.495   5.312   0.795  0.5374  0.9221  1.1756
13888TIP3    H263080   1.467   5.461   0.794  0.4467  0.9012 -1.2293
13889TIP3   OH263081   0.118   2.595   3.793  0.5115 -0.6176 -0.8702
13889TIP3    H163082   0.073   2.666   3.747  0.2654 -0.4427 -0.3562
13889TIP3    H263083   0.190   2.571   3.734  0.9904  0.4999 -0.7672
13890TIP3   OH263084   2.551   4.775   2.005 -0.3308  0.5637  0.2654
13890TIP3    H163085   2.512   4.697   2.043 -0.9558  0.5457 -0.4026
13890TIP3    H263086   2.509   4.848   2.050 -0.3282  0.5300  0.3226
13891TIP3   OH263087   1.573   4.085  11.185 -0.1553  0.0521  0.1968
13891TIP3    H163088   1.630   4.136  11.127 -2.4278  3.0382  0.5056
13891TIP3    H263089   1.516   4.036  11.126 -0.3449  0.6430 -0.1181
13892TIP3   OH263090   3.025   5.355   2.309 -0.3386  0.1396 -0.6746
13892TIP3    H163091   3.077   5.417   2.259  0.9368 -0.8658 -0.6173
13892TIP3    H263092   3.014   5.280   2.251  1.8170 -1.3658  0.7897
13893TIP3   OH263093   1.369   5.190  11.197 -0.4451  0.2117  0.4161
13893TIP3    H163094   1.348   5.280  11.172 -2.7250 -0.7755 -1.3155
13893TIP3    H263095   1.389   5.196  11.291 -0.3584  2.5341  0.2910
13894TIP3   OH263096   0.132   6.768   6.148  0.1917 -0.6803 -0.2800
13894TIP3    H163097   0.141   6.802   6.238 -1.0700  0.7638 -0.6755
13894TIP3    H263098   0.130   6.673   6.158  0.6027 -0.5505  1.1710
13895TIP3   OH263099   2.333   2.221  17.204 -0.0677  0.4666 -0.6715
13895TIP3    H163100   2.388   2.248  17.130  0.1462 -2.5066 -1.6818
13895TIP3    H263101   2.389   2.164  17.256 -1.6662 -1.3246 -0.8555
13896TIP3   OH263102   5.236   3.856   0.804  0.9736 -0.3125 -0.7269
13896TIP3    H163103   5.288   3.912   0.747  1.9700  0.2274  0.6716
13896TIP3    H263104   5.265   3.879   0.893 -1.9496  0.3230  0.1276
13897TIP3   OH263105   1.626   0.593  16.670 -0.0988  0.5931  0.1836
13897TIP3    H163106   1.681   0.518  16.694 -0.0250  0.2772 -0.9811
13897TIP3    H263107   1.537   0.563  16.688 -0.1389 -0.1145 -1.1841
13898TIP3   OH263108   0.770   0.051   0.262 -0.4380 -0.1513  0.1149
13898TIP3    H163109   0.674   0.043   0.262 -0.4501 -0.0212  0.4809
13898TIP3    H263110   0.786   0.145   0.259 -0.3327 -0.1210  1.4725
13899TIP3   OH263111   3.489   0.546   0.019  0.0397 -0.5318 -0.3888
13899TIP3    H163112   3.398   0.550   0.048 -0.1585 -1.0237 -0.9237
13899TIP3    H263113   3.533   0.492   0.085 -0.8617 -3.4380 -2.0862
13900TIP3   OH263114   6.321   6.285   0.853 -0.4438 -0.2328 -0.3201
13900TIP3    H163115   6.349   6.269   0.762 -1.8956  1.7195 -1.1504
13900TIP3    H263116   6.262   6.360   0.847  0.6241  0.9106  2.4643
13901TIP3   OH263117   4.365   0.814   1.951  0.2393  0.5555 -0.0805
13901TIP3    H163118   4.376   0.769   1.867 -0.8040 -1.0272  0.6065
13901TIP3    H263119   4.284   0.863   1.941 -0.7098 -0.8575  0.5079
13902TIP3   OH263120   4.385   4.207   5.353  0.6627 -0.2605 -0.0053
13902TIP3    H163121   4.316   4.251   5.304  0.6465 -1.1371 -0.7942
13902TIP3    H263122   4.394   4.258   5.433 -0.7587 -0.0207  0.0146
13903TIP3   OH263123   4.778   0.474  10.422 -0.1894  0.3760  0.5718
13903TIP3    H163124   4.796   0.408  10.355 -1.3383  0.1689  0.4584
13903TIP3    H263125   4.785   0.558  10.377 -0.9528  0.2370  0.1937
13904TIP3   OH263126   6.439   2.773   1.352 -0.3479 -0.4020  0.5382
13904TIP3    H163127   6.468   2.698   1.301  0.3626 -1.5499  2.5774
13904TIP3    H263128   6.502   2.780   1.423 -1.4262  1.0398  1.3913
13905TIP3   OH263129   5.132   5.372  14.294 -0.1885 -0.9094  0.3790
13905TIP3    H163130   5.075   5.422  14.352  1.4245 -0.5758  1.6920
13905TIP3    H263131   5.177   5.310  14.352  0.7820 -1.1792 -0.6418
13906TIP3   OH263132   6.108   4.608   3.823  0.0064  0.2278  0.5455
13906TIP3    H163133   6.063   4.550   3.885 -0.5956 -2.1478 -1.9709
13906TIP3    H263134   6.167   4.549   3.775  0.1018  1.8840 -1.4214
13907TIP3   OH263135   0.874   2.249   1.196 -0.7464  0.4422 -0.2472
13907TIP3    H163136   0.933   2.211   1.131 -0.6157  0.3347 -0.0655
13907TIP3    H263137   0.788   2.245   1.155 -0.6598  0.3949 -0.4240
13908TIP3   OH263138   1.401   4.033   3.782  0.8129  0.4742  0.1977
13908TIP3    H163139   1.470   3.987   3.735  0.0628 -0.0600 -0.3868
13908TIP3    H263140   1.337   3.966   3.804 -0.8316  1.3947 -1.6480
13909TIP3   OH263141   6.769   3.948   1.858 -0.2245 -0.0856  0.0696
13909TIP3    H163142   6.756   3.867   1.909 -2.3910  0.8428  1.0704
13909TIP3    H263143   6.723   4.015   1.908  1.2045  1.6961 -0.9782
13910TIP3   OH263144   1.495   2.929  14.071  0.2116  0.3053 -0.4136
13910TIP3    H163145   1.430   2.956  14.135 -0.6252 -2.7016  0.0589
13910TIP3    H263146   1.462   2.963  13.988  0.1500  2.2717  0.3796
13911TIP3   OH263147   1.708   0.261  13.265 -0.2687  0.2210 -0.0188
13911TIP3    H163148   1.651   0.186  13.248  0.9591 -0.7419 -0.0259
13911TIP3    H263149   1.749   0.241  13.349 -0.8117  1.4567  0.5484
13912TIP3   OH263150   5.756   4.850  14.624  0.2604 -0.4112 -0.0054
13912TIP3    H163151   5.793   4.762  14.612  0.6095 -0.2480 -0.1273
13912TIP3    H263152   5.775   4.896  14.542  0.7081  0.0019  0.3278
13913TIP3   OH263153   2.478   0.700  13.639  0.5625 -1.0712  0.1371
13913TIP3    H163154   2.439   0.780  13.673  1.4186 -0.9381  0.8148
13913TIP3    H263155   2.537   0.729  13.569  1.2117 -1.0603  0.6815
13914TIP3   OH263156   1.567   2.971  13.493 -0.2575  0.7407  0.1111
13914TIP3    H163157   1.530   3.059  13.484  2.1521  1.9043  1.1629
13914TIP3    H263158   1.605   2.969  13.581 -0.7630 -1.5715  0.3254
13915TIP3   OH263159   1.591   2.454  16.832  0.1069 -0.6309  0.1591
13915TIP3    H163160   1.542   2.535  16.850  1.2991 -0.2532  1.8071
13915TIP3    H263161   1.524   2.385  16.831 -0.7754  0.2244 -0.1744
13916TIP3   OH263162   3.141   2.825   5.156 -0.3498 -0.1595 -0.2122
13916TIP3    H163163   3.105   2.805   5.069  0.6296  2.2343 -1.2207
13916TIP3    H263164   3.125   2.919   5.167  3.6132  0.5517  0.1920
13917TIP3   OH263165   4.217   0.853  13.515 -0.0445 -0.4369  0.0806
13917TIP3    H163166   4.184   0.817  13.598 -1.0546  1.0071  0.3323
13917TIP3    H263167   4.192   0.945  13.518  0.7340 -0.1644 -1.4347
13918TIP3   OH263168   3.452   4.322  17.048  0.2379  0.1325  0.1317
13918TIP3    H163169   3.470   4.270  17.127 -1.1921 -1.1399 -0.3417
13918TIP3    H263170   3.374   4.373  17.071  0.9422  1.2105  0.1826
13919TIP3   OH263171   4.222   1.361  13.737  1.4248 -0.7579  0.0967
13919TIP3    H163172   4.160   1.432  13.753  1.9930 -0.1001 -0.5746
13919TIP3    H263173   4.307   1.404  13.733  1.7419 -1.4409 -0.5635
13920TIP3   OH263174   5.979   0.855   3.322  0.7105  0.3259  0.1000
13920TIP3    H163175   5.994   0.918   3.392 -0.7418 -1.2151  1.8391
13920TIP3    H263176   5.884   0.850   3.313  0.8648  0.1179 -1.6358
13921TIP3   OH263177   3.367   5.669   3.989 -0.7431  0.1629  0.2506
13921TIP3    H163178   3.404   5.590   4.031 -0.7585  1.0537  2.0036
13921TIP3    H263179   3.402   5.741   4.041 -1.2063  1.2878 -0.9916
13922TIP3   OH263180   6.101   2.640  15.006  0.4676  0.5964 -0.7042
13922TIP3    H163181   6.143   2.574  14.952 -0.2051  0.2232 -0.7799
13922TIP3    H263182   6.141   2.630  15.093 -0.2496 -0.4991 -0.4900
13923TIP3   OH263183   0.753   0.156   0.617 -0.1224  0.2919 -0.4340
13923TIP3    H163184   0.774   0.063   0.611 -0.0256  0.4215 -2.2983
13923TIP3    H263185   0.659   0.159   0.631  0.0773 -0.1049  1.1345
13924TIP3   OH263186   1.508   4.629   3.825  0.3488  0.2741  0.3488
13924TIP3    H163187   1.502   4.556   3.887 -1.6601  0.3995  0.3343
13924TIP3    H263188   1.461   4.599   3.747  0.1467  1.2987  0.0655
13925TIP3   OH263189   1.215   2.775  11.785 -0.5940 -0.2237 -0.3927
13925TIP3    H163190   1.219   2.754  11.879  1.5664 -1.0305 -0.6351
13925TIP3    H263191   1.232   2.869  11.780 -0.2801 -0.2601 -0.0069
13926TIP3   OH263192   4.104   0.874   3.924  0.2941  0.3818  0.3124
13926TIP3    H163193   4.175   0.936   3.908  0.4321 -0.4558 -2.5333
13926TIP3    H263194   4.136   0.791   3.888 -1.5399 -0.3596  0.3434
13927TIP3   OH263195   3.033   4.853  11.250  0.3426 -0.5778 -0.0172
13927TIP3    H163196   3.006   4.878  11.338  0.3689 -1.9972  0.3935
13927TIP3    H263197   3.126   4.873  11.247  0.2972 -0.3278  0.2005
13928TIP3   OH263198   0.245   2.431   5.678 -0.6921  0.1006  0.4208
13928TIP3    H163199   0.313   2.446   5.744 -0.7104 -0.8556  0.6537
13928TIP3    H263200   0.205   2.517   5.666  2.5549  1.3993 -1.9305
13929TIP3   OH263201   1.910   4.147   0.023 -0.2905 -0.0083 -0.3767
13929TIP3    H163202   1.834   4.155  -0.036 -0.1416 -1.2803 -0.7579
13929TIP3    H263203   1.883   4.191   0.103 -1.0929  0.3657 -0.8460
13930TIP3   OH263204   4.624   5.995   0.668  0.0558  0.4649  0.7621
13930TIP3    H163205   4.697   5.935   0.684  0.4113  0.4740 -0.7282
13930TIP3    H263206   4.666   6.080   0.652 -0.1532  0.1248 -1.7614
13931TIP3   OH263207   4.693   3.495  12.787  0.0179 -0.6682 -0.3187
13931TIP3    H163208   4.741   3.426  12.741  0.7760 -0.2616 -0.1528
13931TIP3    H263209   4.707   3.574  12.734  2.2870  0.1752  1.4394
13932TIP3   OH263210   3.707   1.283   5.410 -0.0865  0.3693 -0.2311
13932TIP3    H163211   3.775   1.227   5.447  2.8146  3.2343 -0.9632
13932TIP3    H263212   3.687   1.345   5.481 -2.6481 -0.9920  0.2902
13933TIP3   OH263213   0.011   3.218  13.412 -0.0973  0.1041 -0.2160
13933TIP3    H163214  -0.051   3.147  13.426 -0.4249 -0.0594 -2.3354
13933TIP3    H263215  -0.024   3.292  13.463 -1.3328 -0.3601 -0.3895
13934TIP3   OH263216   4.069   0.725   1.855 -0.3771 -0.2216 -1.2971
13934TIP3    H163217   4.032   0.814   1.855 -0.7536 -0.3665 -0.0538
13934TIP3    H263218   3.997   0.669   1.823  0.2668  0.0582 -3.3256
13935TIP3   OH263219   4.313   3.393   2.523 -0.0966  0.0507 -0.0016
13935TIP3    H163220   4.239   3.349   2.565 -0.0654 -0.7419 -0.7634
13935TIP3    H263221   4.388   3.371   2.578 -0.0232 -1.1455 -0.5669
13936TIP3   OH263222   0.653   5.217   1.344  0.3338  0.0506 -0.1548
13936TIP3    H163223   0.579   5.252   1.294  0.6985 -0.5799 -1.1341
13936TIP3    H263224   0.696   5.156   1.285  1.1213 -0.2602  0.7238
13937TIP3   OH263225   6.443   4.754  14.617  1.0162  0.4859 -0.0646
13937TIP3    H163226   6.397   4.712  14.690  0.1728  0.0914 -0.8058
13937TIP3    H263227   6.447   4.847  14.640 -0.2519  0.5358 -0.0276
13938TIP3   OH263228   1.867   3.776  11.712  0.1853  0.2173  0.2887
13938TIP3    H163229   1.889   3.849  11.770  2.6543 -0.3403  0.1246
13938TIP3    H263230   1.852   3.702  11.772  0.1736  0.2575  0.3345
13939TIP3   OH263231   3.487   5.747  13.781 -0.3609  0.5110 -0.1726
13939TIP3    H163232   3.507   5.653  13.785  1.1688  0.8024 -0.5516
13939TIP3    H263233   3.391   5.751  13.777 -0.4540 -1.0190  0.1955
13940TIP3   OH263234   4.768   6.114  16.174 -0.2379  0.0245 -0.2213
13940TIP3    H163235   4.716   6.035  16.188 -0.4306  0.1098 -0.4566
13940TIP3    H263236   4.721   6.183  16.221 -0.8120  0.2845 -1.1735
13941TIP3   OH263237   4.357   3.384  14.626 -0.5246 -0.2140  0.1647
13941TIP3    H163238   4.289   3.390  14.693  0.7377 -0.3720  1.4840
13941TIP3    H263239   4.384   3.292  14.627  0.0422 -0.0505 -0.0117
13942TIP3   OH263240   1.772   6.646   5.845  0.0931 -0.0617  0.1356
13942TIP3    H163241   1.681   6.669   5.862 -0.4107 -1.6013 -0.3613
13942TIP3    H263242   1.806   6.719   5.794 -0.0453  1.8422  2.6997
13943TIP3   OH263243   1.236   4.214   5.730 -0.3544  0.1760 -0.1342
13943TIP3    H163244   1.147   4.243   5.749  0.3663  1.4563  1.3560
13943TIP3    H263245   1.241   4.214   5.634 -1.8332  0.4143 -0.2264
13944TIP3   OH263246   1.596   6.641   1.353  0.8857  0.5019  0.4474
13944TIP3    H163247   1.654   6.714   1.331 -1.0593  1.8567 -0.2932
13944TIP3    H263248   1.546   6.625   1.273 -0.6960  0.2300  1.4745
13945TIP3   OH263249   6.117   5.339   0.154  0.3503  0.7839  0.1074
13945TIP3    H163250   6.181   5.270   0.133 -0.7905  0.0581 -1.0574
13945TIP3    H263251   6.170   5.411   0.187  1.8105  0.2941 -1.1005
13946TIP3   OH263252   6.348   0.940   3.369 -0.0894  0.2942  0.2417
13946TIP3    H163253   6.305   0.987   3.298  0.2230 -0.4426 -0.4371
13946TIP3    H263254   6.407   0.878   3.325 -0.3643 -0.6099  1.1302
13947TIP3   OH263255   0.598   4.593   1.542  0.0433  0.0050 -0.2971
13947TIP3    H163256   0.515   4.562   1.505  0.2027  2.0041 -2.4599
13947TIP3    H263257   0.572   4.662   1.603 -0.0285 -1.1389  0.9763
13948TIP3   OH263258   5.866   0.536  15.022 -0.2420  0.2942 -0.5209
13948TIP3    H163259   5.945   0.561  15.070  0.9580 -2.6361 -0.8389
13948TIP3    H263260   5.798   0.527  15.089  0.1312  1.1021 -0.0278
13949TIP3   OH263261   0.512   5.041   1.874 -0.1103 -0.1299  0.1363
13949TIP3    H163262   0.569   4.981   1.826  2.0869  2.0330 -0.0572
13949TIP3    H263263   0.467   5.090   1.805  1.1838  1.2597  0.2675
13950TIP3   OH263264   6.699   0.192   6.218  0.0826  0.2282 -0.0024
13950TIP3    H163265   6.630   0.128   6.204 -0.8515  1.2510 -0.1385
13950TIP3    H263266   6.654   0.276   6.222  1.4209  1.0196 -1.0818
13951TIP3   OH263267   2.052   1.224  13.114 -0.3065 -0.7287  0.1089
13951TIP3    H163268   2.007   1.303  13.145 -1.5574 -1.1755 -0.5354
13951TIP3    H263269   1.982   1.168  13.081  0.6658 -1.7341 -0.2757
13952TIP3   OH263270   5.623   4.063  14.663  0.3612 -0.6151 -0.1697
13952TIP3    H163271   5.602   3.970  14.675 -1.0625 -0.1886  0.8212
13952TIP3    H263272   5.584   4.085  14.578  1.8395 -1.2289 -1.0226
13953TIP3   OH263273   6.785   6.517   4.769 -0.0410  0.9568 -0.1946
13953TIP3    H163274   6.697   6.490   4.742 -0.0737  0.4817  0.3648
13953TIP3    H263275   6.843   6.455   4.726 -0.1046  0.0807  0.9371
13954TIP3   OH263276   2.784   4.908   0.257 -0.2180 -0.0264  0.0147
13954TIP3    H163277   2.822   4.965   0.323 -0.4925 -2.7919  2.6643
13954TIP3    H263278   2.857   4.885   0.199  0.4446  0.8879  0.4846
13955TIP3   OH263279   4.806   0.276  10.617  0.0930  0.3359 -0.1597
13955TIP3    H163280   4.780   0.339  10.550 -2.7491 -0.5297  0.0690
13955TIP3    H263281   4.769   0.193  10.588 -2.0763  0.1562  2.9552
13956TIP3   OH263282   4.015   0.838   5.478  0.1923  0.0362 -0.6705
13956TIP3    H163283   3.958   0.853   5.553  0.0387  1.8899 -1.1332
13956TIP3    H263284   4.059   0.755   5.497 -1.1144 -0.3705  0.6538
13957TIP3   OH263285   4.125   6.406   2.966  0.0478  0.2461  0.1407
13957TIP3    H163286   4.101   6.497   2.980 -0.5667  0.0803  0.2279
13957TIP3    H263287   4.209   6.395   3.009 -0.6710  0.3559  1.6022
13958TIP3   OH263288   6.091   6.721  16.567  0.7418  0.2970  0.6354
13958TIP3    H163289   6.056   6.678  16.489 -0.9330  0.9809  0.9827
13958TIP3    H263290   6.149   6.656  16.607 -0.9448 -1.2593  0.5972
13959TIP3   OH263291   5.541   2.793   2.496  0.4022  0.8018 -0.3508
13959TIP3    H163292   5.458   2.819   2.456 -0.0186  0.6276  0.4019
13959TIP3    H263293   5.603   2.788   2.423 -0.6620 -0.7830 -1.1722
13960TIP3   OH263294   2.269   0.341   0.865 -0.2569  0.1936  0.0200
13960TIP3    H163295   2.268   0.271   0.931  2.2649 -0.0036 -0.0887
13960TIP3    H263296   2.241   0.297   0.785  0.0954 -0.4123  0.2189
13961TIP3   OH263297   1.177   4.677  15.055  0.6078  0.3905 -0.0053
13961TIP3    H163298   1.149   4.754  15.104  0.3312  0.6584 -0.5776
13961TIP3    H263299   1.205   4.615  15.122 -0.7949  0.3478  0.5637
13962TIP3   OH263300   0.451   2.723   3.513 -0.6980  0.0542  0.4408
13962TIP3    H163301   0.428   2.646   3.461 -3.7440  1.1049  0.0968
13962TIP3    H263302   0.452   2.692   3.604 -0.2530 -0.7511  0.1570
13963TIP3   OH263303   3.371   5.843   1.094 -0.3292  0.4563 -0.4173
13963TIP3    H163304   3.387   5.913   1.030  0.8477 -0.2950 -0.9589
13963TIP3    H263305   3.458   5.819   1.126 -0.7797 -0.3003  0.2589
13964TIP3   OH263306   3.646   0.091   2.378  0.2466  0.6484  0.0052
13964TIP3    H163307   3.678   0.181   2.371 -0.4639  1.0537  1.5366
13964TIP3    H263308   3.701   0.040   2.319  0.9703  2.0148 -0.5123
13965TIP3   OH263309   6.203   1.134   3.811  0.2441 -0.5028  0.0681
13965TIP3    H163310   6.263   1.138   3.885  2.7779 -0.4541 -1.9132
13965TIP3    H263311   6.184   1.041   3.800 -1.0430 -0.4250  1.4298
13966TIP3   OH263312   6.188   5.734  16.283  0.1686 -0.4546 -0.4618
13966TIP3    H163313   6.172   5.795  16.210 -0.7496 -1.8332 -1.4260
13966TIP3    H263314   6.157   5.650  16.251  1.1101 -1.3722  1.0039
13967TIP3   OH263315   6.504   1.873   2.610  0.0374 -0.0872 -0.4147
13967TIP3    H163316   6.424   1.849   2.657 -0.4724 -0.1585 -1.3085
13967TIP3    H263317   6.550   1.790   2.599  0.1700 -0.0678 -0.0353
13968TIP3   OH263318   3.415   0.910  16.441 -0.0766  0.0705  0.5323
13968TIP3    H163319   3.467   0.901  16.362  0.0157 -1.4403  0.7510
13968TIP3    H263320   3.479   0.919  16.511 -0.1467  0.2771  0.5717
13969TIP3   OH263321   0.194   2.749  15.724 -0.2008  0.0860 -0.2299
13969TIP3    H163322   0.186   2.686  15.652 -2.1978  0.9952 -0.8420
13969TIP3    H263323   0.136   2.715  15.792  1.6019 -0.7156  0.9310
13970TIP3   OH263324   3.180   2.549  16.489 -0.1358  0.2335 -0.3127
13970TIP3    H163325   3.182   2.528  16.582 -0.7103  0.9695 -0.1278
13970TIP3    H263326   3.212   2.470  16.445  0.4887  0.0205  0.5279
13971TIP3   OH263327   4.493   5.022  16.097 -0.8608  0.1157 -0.3382
13971TIP3    H163328   4.450   4.962  16.037  1.0146  0.5173 -2.1455
13971TIP3    H263329   4.578   4.981  16.115 -0.7068  0.8426  0.6689
13972TIP3   OH263330   4.551   1.840  14.746 -0.3471 -0.6245 -0.0926
13972TIP3    H163331   4.609   1.888  14.805 -1.1801 -1.8161  1.7498
13972TIP3    H263332   4.610   1.800  14.682  0.6197  0.3259  0.1911
13973TIP3   OH263333   5.981   4.473  13.581  0.1350 -0.2533 -0.1575
13973TIP3    H163334   5.896   4.449  13.545 -0.8357  3.0381 -0.1744
13973TIP3    H263335   5.962   4.504  13.669  1.1019  1.8674 -0.6745
13974TIP3   OH263336   1.329   0.368  16.495  0.0681  0.0838  0.0193
13974TIP3    H163337   1.259   0.305  16.479 -1.5662  1.4340  1.7231
13974TIP3    H263338   1.365   0.344  16.581  1.0894 -0.0200 -0.4246
13975TIP3   OH263339   3.915   5.488  13.896 -0.2107 -0.2237 -0.2593
13975TIP3    H163340   3.995   5.466  13.942 -1.7072 -0.7432  2.1872
13975TIP3    H263341   3.852   5.421  13.922 -1.4747  0.2091 -2.0696
13976TIP3   OH263342   3.100   3.405  13.880  0.0776 -0.3608  0.3567
13976TIP3    H163343   3.022   3.351  13.872 -0.4940  0.3639  0.9771
13976TIP3    H263344   3.078   3.486  13.834  0.5589 -0.2526  0.3087
13977TIP3   OH263345   3.593   6.278  13.521  0.1305  0.0788 -0.2236
13977TIP3    H163346   3.626   6.348  13.578 -0.2255  0.2031 -0.1647
13977TIP3    H263347   3.533   6.323  13.461  1.7226  0.2155 -1.7486
13978TIP3   OH263348   3.325   0.351  12.028 -0.1191 -0.1941 -0.3633
13978TIP3    H163349   3.268   0.400  11.968 -0.9808 -1.3384 -0.5008
13978TIP3    H263350   3.340   0.267  11.984  1.5178  0.0194 -0.2321
13979TIP3   OH263351   2.008   3.721  15.873 -0.3130 -0.0601 -0.2211
13979TIP3    H163352   1.959   3.653  15.828 -0.4161 -0.5703  0.6554
13979TIP3    H263353   2.084   3.676  15.909 -0.2463  0.3390  0.1465
13980TIP3   OH263354   3.410   0.340  12.289 -0.1754  0.5049  0.1481
13980TIP3    H163355   3.471   0.276  12.254 -0.8622 -0.1965  0.2400
13980TIP3    H263356   3.387   0.395  12.214  1.3961  1.4655  0.3215
13981TIP3   OH263357   2.466   0.497  16.488  0.5590 -0.1514  0.2654
13981TIP3    H163358   2.448   0.569  16.427 -1.8502 -0.9841 -0.0691
13981TIP3    H263359   2.505   0.429  16.434  0.0375 -0.2242 -0.0300
13982TIP3   OH263360   1.736   3.594  17.176  0.3341 -0.6307 -0.1815
13982TIP3    H163361   1.730   3.501  17.153  2.0607 -2.0590  4.4189
13982TIP3    H263362   1.691   3.600  17.260  4.4186  1.6088  2.0196
13983TIP3   OH263363   4.494   5.420  11.867  0.2218  0.4093  0.4117
13983TIP3    H163364   4.545   5.451  11.793 -0.7521 -0.8839 -0.8150
13983TIP3    H263365   4.421   5.483  11.874  1.1422  1.4081  1.2513
13984TIP3   OH263366   5.863   5.027  16.400  0.5894  0.1567 -0.1594
13984TIP3    H163367   5.895   4.940  16.421  0.2417  0.0388 -0.1042
13984TIP3    H263368   5.865   5.074  16.483  1.8212  0.5470 -0.4066
13985TIP3   OH263369   5.464   3.129  16.186  0.8081  0.0087  0.5316
13985TIP3    H163370   5.495   3.058  16.130  2.3409  1.5694 -0.6378
13985TIP3    H263371   5.543   3.160  16.231  0.2984  1.4618  0.4546
13986TIP3   OH263372   4.686   2.869  10.832  0.9117  0.6470  0.4415
13986TIP3    H163373   4.695   2.813  10.755 -2.2659  0.4297  0.1496
13986TIP3    H263374   4.675   2.958  10.796 -0.7889  0.5185  0.5717
13987TIP3   OH263375   1.147   2.636  13.956 -0.0937 -0.5040  0.1226
13987TIP3    H163376   1.146   2.657  14.049  0.3736 -0.6538  0.1586
13987TIP3    H263377   1.055   2.616  13.935 -0.2331 -0.2706  0.5005
13988TIP3   OH263378   5.254   5.315   0.308  0.5065  0.0618  0.1920
13988TIP3    H163379   5.275   5.301   0.215 -1.2528 -0.4236 -0.1409
13988TIP3    H263380   5.181   5.376   0.308 -0.3456 -0.9369  1.2114
13989TIP3   OH263381   2.910   2.323   4.025 -0.2138  0.0246 -0.2206
13989TIP3    H163382   2.889   2.291   4.113 -2.0242  3.5701  0.7245
13989TIP3    H263383   2.839   2.293   3.970  0.5829 -1.6378 -0.3669
13990TIP3   OH263384   2.699   1.887  12.770 -0.6805 -0.0877 -0.0978
13990TIP3    H163385   2.707   1.892  12.865 -1.1717 -1.1372  0.0083
13990TIP3    H263386   2.707   1.794  12.750  2.6207  0.4018 -1.3933
13991TIP3   OH263387   5.086   5.603  16.551 -0.4339  0.1896 -0.5077
13991TIP3    H163388   5.042   5.529  16.508 -1.4736  0.6719 -0.2906
13991TIP3    H263389   5.067   5.678  16.495 -0.1877  0.4710 -0.2140
13992TIP3   OH263390   0.667   5.036  16.896  0.9022  0.3195 -0.1144
13992TIP3    H163391   0.631   5.080  16.819  0.9439 -0.7585 -0.7680
13992TIP3    H263392   0.754   5.073  16.907  0.9268  0.4161 -0.6336
13993TIP3   OH263393   3.749   0.812   4.524  0.5237  0.0465 -0.2818
13993TIP3    H163394   3.728   0.725   4.491 -0.0569  0.1568 -0.2192
13993TIP3    H263395   3.834   0.803   4.567  0.0622 -0.6762  0.4850
13994TIP3   OH263396   4.239   4.208   6.553 -0.1725  0.0724  0.5585
13994TIP3    H163397   4.334   4.205   6.544 -0.1855 -1.5434  0.8968
13994TIP3    H263398   4.206   4.186   6.466 -0.2369 -0.1026  0.6268
13995TIP3   OH263399   0.510   4.337  11.099 -0.0252 -0.0777  0.0883
13995TIP3    H163400   0.561   4.383  11.165 -3.2527  2.6654  0.8172
13995TIP3    H263401   0.547   4.366  11.015  1.3822 -0.3147  0.6131
13996TIP3   OH263402   5.001   4.152   4.134  0.6501  0.7221  0.3249
13996TIP3    H163403   5.059   4.185   4.065 -0.6880  1.1814 -0.6089
13996TIP3    H263404   5.033   4.063   4.152  1.7944  1.0589  0.0221
13997TIP3   OH263405   3.448   3.869  11.782  0.5287  0.4539 -0.4956
13997TIP3    H163406   3.499   3.808  11.835  0.3625 -0.0913 -0.9630
13997TIP3    H263407   3.469   3.846  11.691 -0.0363  0.6568 -0.6817
13998TIP3   OH263408   3.501   6.004   2.700  0.6408  0.8183 -0.1521
13998TIP3    H163409   3.498   6.038   2.611  1.3884  2.5676  0.4525
13998TIP3    H263410   3.410   6.001   2.728  0.2805 -1.0330 -1.4091
13999TIP3   OH263411   0.467   4.643  16.869 -0.0355 -0.4606  0.4105
13999TIP3    H163412   0.534   4.577  16.847 -1.1501 -1.3176 -0.4571
13999TIP3    H263413   0.394   4.591  16.904 -0.6542  0.3740  0.3618
14000TIP3   OH263414   5.206   6.376   3.026  0.1698 -0.2455 -0.3791
14000TIP3    H163415   5.191   6.453   2.970  1.7680  0.8735  0.6950
14000TIP3    H263416   5.233   6.308   2.965  0.8967  0.6724 -1.1000
14001TIP3   OH263417   4.644   0.234  12.011  0.9042 -0.1315  0.2256
14001TIP3    H163418   4.679   0.240  12.100  0.3110  0.1835  0.4439
14001TIP3    H263419   4.678   0.151  11.977 -0.4307 -1.2161  1.4483
14002TIP3   OH263420   4.309   5.985  14.128  0.3601 -0.5739 -0.5694
14002TIP3    H163421   4.237   6.005  14.188  0.4748 -2.0123  0.0841
14002TIP3    H263422   4.289   6.034  14.048 -0.7754 -0.1170 -0.0125
14003TIP3   OH263423   1.030   2.242   0.432  0.6068  0.2904 -0.4147
14003TIP3    H163424   1.019   2.190   0.512 -1.5968  2.0452  0.4810
14003TIP3    H263425   1.125   2.250   0.421  0.9679  0.8815  2.6323
14004TIP3   OH263426   2.841   5.704  13.988  0.5202  0.0643  0.0282
14004TIP3    H163427   2.790   5.754  13.924  2.1188  0.9840 -0.5398
14004TIP3    H263428   2.775   5.666  14.046 -0.8858  0.1938 -1.4492
14005TIP3   OH263429   4.482   5.189   1.018 -0.1398 -0.1254 -0.0280
14005TIP3    H163430   4.417   5.133   0.975 -0.3883  1.1356 -1.3173
14005TIP3    H263431   4.565   5.168   0.974  0.2076 -1.1579  1.0806
14006TIP3   OH263432   1.349   4.606   4.518 -0.1598 -0.5166 -0.2325
14006TIP3    H163433   1.342   4.682   4.577 -1.0085 -0.7470 -0.0275
14006TIP3    H263434   1.258   4.579   4.503  0.1564 -1.8535  0.1624
14007TIP3   OH263435   2.535   2.548  14.338 -0.3049  0.1121 -0.1530
14007TIP3    H163436   2.590   2.608  14.289 -0.8342  0.9106  0.2253
14007TIP3    H263437   2.498   2.490  14.271  0.6901 -0.1932 -0.4476
14008TIP3   OH263438   2.827   2.484   0.127 -0.1002  0.0363 -0.0424
14008TIP3    H163439   2.739   2.517   0.145 -0.5872 -2.3550  2.3508
14008TIP3    H263440   2.817   2.427   0.051 -0.7421 -0.7870  0.6658
14009TIP3   OH263441   4.733   2.539  12.451  0.5054 -0.4319 -0.4946
14009TIP3    H163442   4.797   2.575  12.512  1.0700 -1.1860 -0.6378
14009TIP3    H263443   4.729   2.445  12.473  1.2710 -0.8607 -2.0962
14010TIP3   OH263444   2.304   3.982   6.584  0.7998  0.0375 -0.2864
14010TIP3    H163445   2.327   3.994   6.676 -0.1251  0.6651 -0.1269
14010TIP3    H263446   2.352   4.050   6.537 -0.5490  1.2481  0.0270
14011TIP3   OH263447   6.133   1.918   6.332 -0.0783 -0.6192 -0.4389
14011TIP3    H163448   6.068   1.957   6.390  0.1661  0.7212 -1.0391
14011TIP3    H263449   6.159   1.837   6.376 -2.0752 -1.1366 -0.1575
14012TIP3   OH263450   0.516   4.884  12.292  0.2028 -0.7922 -0.4251
14012TIP3    H163451   0.500   4.792  12.314 -1.1112 -0.1559  1.4072
14012TIP3    H263452   0.517   4.886  12.196 -0.6152 -2.5604 -0.4891
14013TIP3   OH263453   5.621   4.003   0.128  0.0038  0.2908 -0.3311
14013TIP3    H163454   5.633   3.908   0.131 -0.8769  0.2051  1.8641
14013TIP3    H263455   5.707   4.038   0.104  0.0285 -1.0993 -2.3668
14014TIP3   OH263456   2.672   3.555   4.635  0.2382  0.3276 -0.5088
14014TIP3    H163457   2.590   3.598   4.610  0.0298 -0.3553 -1.0176
14014TIP3    H263458   2.737   3.625   4.635 -0.7689  1.3519  2.0902
14015TIP3   OH263459   3.968   2.104  13.088 -0.2752  0.3868  0.0844
14015TIP3    H163460   3.893   2.161  13.075  0.8575  1.9938  0.4156
14015TIP3    H263461   3.939   2.039  13.152 -1.6332  0.4783 -0.4378
14016TIP3   OH263462   6.227   0.926  14.564 -0.1742  0.2288  0.2435
14016TIP3    H163463   6.179   0.954  14.486 -0.6819 -0.5948  0.2504
14016TIP3    H263464   6.167   0.867  14.610  1.3921 -2.1425 -0.6034
14017TIP3   OH263465   6.478   0.850  15.260 -0.6450 -0.3419 -0.2260
14017TIP3    H163466   6.391   0.875  15.230 -1.6766 -0.0153  2.9068
14017TIP3    H263467   6.468   0.762  15.296  0.4462 -0.5450 -0.3817
14018TIP3   OH263468   1.738   2.204  15.559 -0.0057  0.8394 -0.0203
14018TIP3    H163469   1.809   2.191  15.495 -1.2829  0.7520 -1.4574
14018TIP3    H263470   1.715   2.296  15.549  1.2043  1.3774  1.8567
14019TIP3   OH263471   4.268   0.025  16.123 -0.1933  0.0125  0.1347
14019TIP3    H163472   4.242   0.113  16.149  1.4641  1.0558 -1.6055
14019TIP3    H263473   4.186  -0.025  16.123 -1.3007  1.7861  0.2013
14020TIP3   OH263474   4.435   0.234  11.261  0.1418 -0.0339 -0.2294
14020TIP3    H163475   4.394   0.304  11.311 -0.7164 -0.1169 -0.8026
14020TIP3    H263476   4.521   0.223  11.300 -0.5604 -0.1673  1.2963
14021TIP3   OH263477   0.224   2.851   4.158 -0.0211  0.3966 -0.2367
14021TIP3    H163478   0.312   2.826   4.188 -0.3430  0.6664  0.9780
14021TIP3    H263479   0.207   2.934   4.203 -1.9007 -0.8963  1.4995
14022TIP3   OH263480   5.801   0.224   5.824 -0.2570  0.5617  0.4688
14022TIP3    H163481   5.720   0.270   5.805 -0.6923  0.5528  2.2138
14022TIP3    H263482   5.862   0.293   5.852  0.6558  0.6958 -1.7417
14023TIP3   OH263483   4.974   4.606  13.963  0.0694  0.2372  0.1718
14023TIP3    H163484   4.952   4.696  13.988  0.6757  0.1215  1.1191
14023TIP3    H263485   5.045   4.581  14.021 -0.5743 -1.1086  0.4004
14024TIP3   OH263486   3.168   4.597   3.939  0.8503 -0.3451 -0.1081
14024TIP3    H163487   3.259   4.576   3.915  0.6827 -0.1049 -0.9787
14024TIP3    H263488   3.130   4.513   3.962  1.3358 -0.4296  0.4115
14025TIP3   OH263489   5.542   0.242   5.716 -0.4344 -0.7957  0.1513
14025TIP3    H163490   5.538   0.301   5.641  1.4152 -1.2823 -0.3538
14025TIP3    H263491   5.506   0.159   5.683 -1.3636 -0.4776  0.3491
14026TIP3   OH263492   6.121   6.729  15.524  0.0253  0.5471 -0.4091
14026TIP3    H163493   6.065   6.696  15.454 -0.8051 -0.7909  0.8619
14026TIP3    H263494   6.074   6.804  15.559 -1.2442 -0.8660  0.9790
14027TIP3   OH263495   2.392   0.732   3.565  0.5110 -0.5022  0.0680
14027TIP3    H163496   2.302   0.742   3.534  1.1068  0.6384 -1.3727
14027TIP3    H263497   2.383   0.711   3.657 -1.2636 -1.5706 -0.3268
14028TIP3   OH263498   0.868   2.968  14.765 -0.6240 -0.1252 -0.3239
14028TIP3    H163499   0.894   3.029  14.834  0.7925 -0.8150 -0.2337
14028TIP3    H263500   0.802   2.912  14.806  0.2341 -0.5513  0.4933
14029TIP3   OH263501   1.524   1.343   3.199 -0.0102  0.0734 -0.7050
14029TIP3    H163502   1.569   1.259   3.191 -0.7005 -0.5813  1.8657
14029TIP3    H263503   1.590   1.408   3.177  1.5405 -0.9946  0.6994
14030TIP3   OH263504   4.398   6.287  15.619  0.0854 -0.0774 -0.1168
14030TIP3    H163505   4.315   6.278  15.574  1.1139 -1.0992 -1.8581
14030TIP3    H263506   4.441   6.202  15.609  2.0650  0.9465 -0.7207
14031TIP3   OH263507   6.356   4.524   2.801  0.7117  0.2039 -0.4098
14031TIP3    H163508   6.350   4.616   2.775  0.1777  0.7266  1.4414
14031TIP3    H263509   6.280   4.510   2.858  1.0852 -1.2288 -0.2418
14032TIP3   OH263510   2.742   0.177   3.651 -0.5520  0.3181  0.7035
14032TIP3    H163511   2.688   0.167   3.572 -1.5222  1.0799  1.2569
14032TIP3    H263512   2.751   0.271   3.662 -0.1494  0.2087  1.3199
14033TIP3   OH263513   2.016   1.167  12.260 -0.2291  0.1846  0.4868
14033TIP3    H163514   2.028   1.261  12.255  1.9547 -0.0705  0.3279
14033TIP3    H263515   1.996   1.150  12.353  0.3981  0.6945  0.7163
14034TIP3   OH263516   4.631   3.159   3.594 -0.5273 -0.4411  0.6192
14034TIP3    H163517   4.649   3.250   3.618 -0.7366 -0.7192  1.8487
14034TIP3    H263518   4.545   3.162   3.552 -0.9650 -0.2006  1.5170
14035TIP3   OH263519   1.096   2.363   1.848  0.0463  0.1690  0.1269
14035TIP3    H163520   1.141   2.405   1.920  0.5674  0.3814 -0.3213
14035TIP3    H263521   1.074   2.434   1.787  1.1265 -0.2262 -0.7320
14036TIP3   OH263522   1.592   5.801  12.031  0.5472 -0.2270  1.0336
14036TIP3    H163523   1.537   5.730  11.998  0.5086  0.2594  0.0202
14036TIP3    H263524   1.533   5.876  12.037  0.9717  0.1685  0.4039
14037TIP3   OH263525   6.484   0.271   1.874  0.2083  0.0462  0.2790
14037TIP3    H163526   6.392   0.250   1.855  0.2121  0.0361  0.2694
14037TIP3    H263527   6.480   0.322   1.956  0.2955 -1.0149  0.9555
14038TIP3   OH263528   5.372   6.363  11.252 -0.1581  0.1058 -0.3869
14038TIP3    H163529   5.311   6.326  11.187 -0.9689  1.3649 -0.3689
14038TIP3    H263530   5.333   6.341  11.336 -1.1839  1.7844 -0.3759
14039TIP3   OH263531   5.950   1.550  12.418  0.3247 -0.0918  0.0033
14039TIP3    H163532   5.931   1.486  12.486 -0.0462  0.0360  0.0208
14039TIP3    H263533   6.043   1.567  12.426  0.1638  0.3992  0.8934
14040TIP3   OH263534   1.821   2.077  13.900  0.1162 -0.5867  0.1590
14040TIP3    H163535   1.864   1.992  13.888  1.0049  0.0403 -1.2264
14040TIP3    H263536   1.882   2.139  13.862 -1.5816  0.4519 -0.8964
14041TIP3   OH263537   2.852   4.318   0.018  0.3668 -0.6293 -0.4317
14041TIP3    H163538   2.776   4.284   0.066  1.4905  1.3991  2.9240
14041TIP3    H263539   2.923   4.257   0.039  0.7297 -0.0459  0.0445
14042TIP3   OH263540   1.100   5.186  15.458 -0.1630  0.0964  0.0915
14042TIP3    H163541   1.020   5.235  15.440 -0.7748 -0.5371  1.0191
14042TIP3    H263542   1.093   5.106  15.406 -0.9320 -0.7389  1.4476
14043TIP3   OH263543   5.325   3.851  17.062 -0.6099 -0.3936 -0.0478
14043TIP3    H163544   5.383   3.913  17.106  0.9334 -1.8231 -0.0208
14043TIP3    H263545   5.342   3.864  16.969  0.4129 -1.3897 -0.0187
14044TIP3   OH263546   0.721   4.751  16.625 -0.6636  0.2881  0.6567
14044TIP3    H163547   0.679   4.800  16.696 -1.0996 -0.3988  0.8796
14044TIP3    H263548   0.649   4.729  16.565 -0.1625  1.6018 -0.4316
14045TIP3   OH263549   0.362   2.791  11.489 -0.1845 -0.3235  0.1458
14045TIP3    H163550   0.334   2.758  11.403  0.9352 -0.5689 -0.1236
14045TIP3    H263551   0.407   2.718  11.530 -0.2800 -0.0502  0.7461
14046TIP3   OH263552   1.407   0.427   1.090  0.1406 -0.2845 -0.2385
14046TIP3    H163553   1.381   0.396   1.004  1.5569 -1.1946 -0.3503
14046TIP3    H263554   1.496   0.396   1.101  0.4506  0.9886  1.0012
14047TIP3   OH263555   2.129   5.410   3.513  0.5330  0.2299  0.5698
14047TIP3    H163556   2.089   5.349   3.450  2.4859 -0.2002 -0.3089
14047TIP3    H263557   2.107   5.373   3.599 -1.8630  0.6244  0.1567
14048TIP3   OH263558   0.872   5.033   5.180 -0.3403 -0.1159  0.2985
14048TIP3    H163559   0.897   4.941   5.169 -0.7777 -0.0773 -1.0977
14048TIP3    H263560   0.792   5.031   5.232 -0.9065 -0.5789 -0.5938
14049TIP3   OH263561   4.599   6.371   2.762 -0.4085  0.1843  0.3368
14049TIP3    H163562   4.659   6.444   2.780  0.8988 -0.5828 -0.8432
14049TIP3    H263563   4.529   6.411   2.710 -0.4684  0.8962  0.9440
14050TIP3   OH263564   3.178   4.447   5.870  0.2024  0.2136 -0.1239
14050TIP3    H163565   3.252   4.386   5.872 -1.5749 -1.9761  0.6060
14050TIP3    H263566   3.117   4.413   5.935 -0.7062  3.0012  0.5373
14051TIP3   OH263567   4.618   4.258   5.992 -0.1023  0.5731 -0.0143
14051TIP3    H163568   4.590   4.283   5.904  0.6227  3.0410  0.4204
14051TIP3    H263569   4.614   4.162   5.992 -1.8691  0.6064 -2.1290
14052TIP3   OH263570   0.720   3.384   5.909 -0.0981  0.0090 -0.5329
14052TIP3    H163571   0.654   3.450   5.929 -0.8797 -0.3066 -2.0422
14052TIP3    H263572   0.680   3.329   5.842  1.4831 -0.5435 -1.0439
14053TIP3   OH263573   5.887   2.480  12.531  0.0283 -0.4567  0.0812
14053TIP3    H163574   5.911   2.571  12.550 -0.5972 -0.1509 -0.5395
14053TIP3    H263575   5.804   2.487  12.484  0.1089 -1.3390 -0.2019
14054TIP3   OH263576   3.332   6.241  15.062 -0.6342  0.3361 -0.5399
14054TIP3    H163577   3.263   6.218  15.000 -0.3834 -0.3668 -0.5560
14054TIP3    H263578   3.319   6.335  15.077 -2.8607 -0.1660  1.0295
14055TIP3   OH263579   1.609   1.028  16.979 -0.0983 -0.0713 -0.0272
14055TIP3    H163580   1.702   1.051  16.983 -0.2271  0.3463  0.6361
14055TIP3    H263581   1.577   1.043  17.068 -0.3694 -2.0702  0.2189
14056TIP3   OH263582   2.130   1.170  15.110  0.0169 -0.0650  0.1179
14056TIP3    H163583   2.064   1.225  15.153 -1.9275 -1.3760 -1.1208
14056TIP3    H263584   2.128   1.087  15.159  0.1637 -0.3970 -0.4332
14057TIP3   OH263585   4.003   4.865   2.128 -0.4453  0.4254  0.5366
14057TIP3    H163586   3.971   4.940   2.077  0.8169  0.2416 -0.5526
14057TIP3    H263587   4.041   4.903   2.207 -1.5109  0.7879  0.8846
14058TIP3   OH263588   3.076   0.572  16.488 -0.1470 -0.0923 -0.3527
14058TIP3    H163589   3.094   0.648  16.542  0.7638 -0.5762  0.0419
14058TIP3    H263590   3.161   0.528  16.479 -0.1256  0.3363 -2.7218
14059TIP3   OH263591   3.978   2.390  12.141  0.3148 -0.1625 -0.4037
14059TIP3    H163592   4.043   2.347  12.196  0.7050  0.7263 -0.1462
14059TIP3    H263593   3.895   2.349  12.164  0.7935 -1.3448 -0.7783
14060TIP3   OH263594   0.205   4.489   0.490  0.6480 -0.4516 -0.9063
14060TIP3    H163595   0.237   4.458   0.574 -0.7204 -1.3942 -0.7178
14060TIP3    H263596   0.284   4.511   0.440  1.4986 -1.0418  0.1747
14061TIP3   OH263597   1.845   6.126  11.613  0.2109 -0.1745  0.1965
14061TIP3    H163598   1.851   6.047  11.559 -2.2010 -0.2273 -0.0218
14061TIP3    H263599   1.775   6.177  11.574 -1.2643  0.0215  2.9892
14062TIP3   OH263600   0.227   5.522  15.130 -0.4305  0.2657  0.3142
14062TIP3    H163601   0.227   5.613  15.103  0.4558  0.2829  0.3536
14062TIP3    H263602   0.207   5.473  15.050  0.5556  0.4131 -0.0349
14063TIP3   OH263603   0.354   1.965   0.609 -0.0087  0.6030  0.0369
14063TIP3    H163604   0.339   1.969   0.515  0.5791  1.6780 -0.0171
14063TIP3    H263605   0.268   1.943   0.646 -0.5386  1.4654 -0.6555
14064TIP3   OH263606   0.707   0.018   2.286 -0.3546  0.0923  0.2947
14064TIP3    H163607   0.800   0.038   2.286 -0.3368  0.0151 -1.1870
14064TIP3    H263608   0.693  -0.036   2.208 -1.6740  0.2979  0.3654
14065TIP3   OH263609   2.270   6.620   0.809  0.0659 -0.0048 -0.2744
14065TIP3    H163610   2.255   6.558   0.880  1.5823 -0.7884 -0.6024
14065TIP3    H263611   2.222   6.583   0.735  1.2699 -1.0272 -0.5747
14066TIP3   OH263612   4.331   0.202   6.535  0.2722  0.2381 -0.1551
14066TIP3    H163613   4.306   0.194   6.628 -0.8332 -0.4223 -0.4878
14066TIP3    H263614   4.257   0.162   6.488  1.4799 -0.7337 -1.2527
14067TIP3   OH263615   3.074   1.431   0.332  0.4776  0.5918  0.2228
14067TIP3    H163616   3.100   1.340   0.329 -1.3574 -0.0568  2.1643
14067TIP3    H263617   2.988   1.433   0.289 -0.0012  1.1781  1.1788
14068TIP3   OH263618   2.612   0.398  11.788 -0.1609 -0.0932  0.4921
14068TIP3    H163619   2.522   0.428  11.802 -0.1652  0.5185 -0.7637
14068TIP3    H263620   2.644   0.376  11.875 -1.4968 -0.2178  0.9641
14069TIP3   OH263621   4.595   5.778   0.485 -0.3969  0.0244 -0.4103
14069TIP3    H163622   4.568   5.866   0.513  1.7206  1.0442 -1.4202
14069TIP3    H263623   4.652   5.747   0.555 -1.0605 -0.5096 -0.1037
14070TIP3   OH263624   5.701   0.597  13.970 -0.0541  0.1936  0.5824
14070TIP3    H163625   5.729   0.506  13.964 -1.8856 -0.3959  0.7083
14070TIP3    H263626   5.656   0.614  13.888  2.8415  1.9389 -0.7467
14071TIP3   OH263627   3.540   6.488   6.543  0.3936 -0.0818 -0.3564
14071TIP3    H163628   3.593   6.565   6.523  0.2932 -0.1873 -1.0136
14071TIP3    H263629   3.453   6.509   6.511  0.1240 -0.0711  0.3637
14072TIP3   OH263630   4.167   6.038   5.136 -0.4921 -0.7708 -0.3221
14072TIP3    H163631   4.104   5.996   5.077 -0.0583 -2.7849  0.6210
14072TIP3    H263632   4.113   6.081   5.202 -0.9584  0.8323 -1.6931
14073TIP3   OH263633   4.816   5.470   3.974 -0.5817 -0.4060  0.0841
14073TIP3    H163634   4.758   5.546   3.976 -0.6952 -0.5205  1.2425
14073TIP3    H263635   4.837   5.453   4.065  0.8349 -0.7089 -0.2799
14074TIP3   OH263636   0.718   6.659  16.413 -0.5334 -0.0458  0.2256
14074TIP3    H163637   0.754   6.662  16.502  2.4276 -2.2686 -0.7874
14074TIP3    H263638   0.682   6.571  16.405 -2.4040  0.7477 -0.2109
14075TIP3   OH263639   4.635   0.352   2.144 -0.3811  0.2915 -0.3383
14075TIP3    H163640   4.617   0.415   2.213  0.6988  0.1902  0.0582
14075TIP3    H263641   4.694   0.288   2.185  0.9177  0.6691 -1.5625
14076TIP3   OH263642   0.603   4.815   2.549  0.0161  0.4132  0.1331
14076TIP3    H163643   0.518   4.796   2.509 -0.7848 -0.8510  2.3493
14076TIP3    H263644   0.588   4.809   2.643  2.2020  1.8119  0.6220
14077TIP3   OH263645   5.302   0.198   1.754 -1.1172  0.2800 -0.0953
14077TIP3    H163646   5.295   0.131   1.822 -1.8978  0.4982  0.0361
14077TIP3    H263647   5.345   0.153   1.681 -0.3500  0.0222  0.5032
14078TIP3   OH263648   5.340   2.142  12.187  0.2709 -0.7064 -0.2872
14078TIP3    H163649   5.391   2.166  12.265 -0.7175 -0.9902  0.4679
14078TIP3    H263650   5.270   2.086  12.222 -1.4668  0.9460 -1.0906
14079TIP3   OH263651   1.395   3.746   6.247  0.2550 -0.3414 -0.0513
14079TIP3    H163652   1.311   3.755   6.292  0.5450 -1.6938  0.8190
14079TIP3    H263653   1.460   3.776   6.311  0.4293  0.9189 -0.8032
14080TIP3   OH263654   5.422   2.051  11.626  0.3897  0.0484 -0.1323
14080TIP3    H163655   5.486   1.996  11.581 -0.2910 -1.1793  0.3679
14080TIP3    H263656   5.417   2.014  11.714 -1.1336  0.0227 -0.2236
14081TIP3   OH263657   5.317   0.029   3.623 -0.1918 -0.5023 -0.7324
14081TIP3    H163658   5.240  -0.021   3.595  0.3377 -1.7578 -0.0298
14081TIP3    H263659   5.316   0.023   3.719 -0.0717  0.7713 -0.6523
14082TIP3   OH263660   4.613   4.536   2.865  0.1708  0.1402  0.0990
14082TIP3    H163661   4.699   4.508   2.833  0.7869 -1.0451  2.5924
14082TIP3    H263662   4.623   4.629   2.885  0.0436  0.6627 -2.1594
14083TIP3   OH263663   3.524   2.489   4.697 -0.0647  0.5178 -0.1030
14083TIP3    H163664   3.478   2.566   4.731 -0.8263 -0.4335  1.0498
14083TIP3    H263665   3.597   2.476   4.758  0.5335  0.8121 -0.7601
14084TIP3   OH263666   3.700   4.545  11.697 -0.0603 -0.1963  0.4815
14084TIP3    H163667   3.711   4.613  11.765 -1.3383 -1.9589  2.5339
14084TIP3    H263668   3.778   4.490  11.705 -0.6834 -0.9810  1.2134
14085TIP3   OH263669   2.358   2.764   1.839  0.1939 -0.5135 -0.7464
14085TIP3    H163670   2.305   2.728   1.909  0.9745  0.4461  0.3472
14085TIP3    H263671   2.406   2.689   1.804  0.9586 -0.7514  0.7684
14086TIP3   OH263672   6.058   2.363   0.120  0.2718  0.7254  0.1516
14086TIP3    H163673   6.063   2.308   0.198  2.5442  0.2441 -0.2802
14086TIP3    H263674   5.986   2.326   0.069  2.0081 -2.1859 -0.3282
14087TIP3   OH263675   2.568   6.095  11.021  0.1934  0.1285  0.7645
14087TIP3    H163676   2.639   6.055  10.971  0.8392  1.3663  0.6494
14087TIP3    H263677   2.498   6.029  11.022  1.8641 -1.6507  2.0923
14088TIP3   OH263678   2.776   3.765  12.071 -0.3266 -0.2145  0.3051
14088TIP3    H163679   2.692   3.802  12.044 -1.0297 -1.1313  1.2047
14088TIP3    H263680   2.778   3.679  12.029  0.3346 -0.0471 -0.0161
14089TIP3   OH263681   5.791   6.728   2.204 -0.3314  0.5221 -0.1469
14089TIP3    H163682   5.810   6.722   2.298 -1.4444  1.9379  0.1990
14089TIP3    H263683   5.870   6.696   2.161  0.9410  1.6529  1.2790
14090TIP3   OH263684   2.352   3.206   6.356  0.0563  0.6887  0.2989
14090TIP3    H163685   2.410   3.141   6.317  0.8640  0.6145  1.5859
14090TIP3    H263686   2.356   3.281   6.297 -1.5057 -0.7007 -1.6313
14091TIP3   OH263687   1.167   0.408  12.429  0.0916  0.7267 -1.0750
14091TIP3    H163688   1.157   0.313  12.430  0.0702  0.7476  0.7769
14091TIP3    H263689   1.081   0.441  12.452  0.8449  1.1423  1.1881
14092TIP3   OH263690   4.295   5.002  14.120  0.3327  0.2815  0.3891
14092TIP3    H163691   4.232   5.033  14.186  1.1683  1.1837  0.7910
14092TIP3    H263692   4.356   4.948  14.170 -0.1337 -0.6046 -0.0020
14093TIP3   OH263693   5.612   4.306   0.406 -0.1857 -0.5962 -0.2874
14093TIP3    H163694   5.690   4.362   0.413 -1.4258  0.7731  3.5873
14093TIP3    H263695   5.648   4.218   0.390  2.1519  0.1112  0.7518
14094TIP3   OH263696   1.638   1.955  17.121  0.6156  0.4100  0.1103
14094TIP3    H163697   1.702   2.021  17.146  0.8688  0.0794  0.3518
14094TIP3    H263698   1.556   2.003  17.109  1.2195  1.0660 -1.5985
14095TIP3   OH263699   2.449   2.084  13.713 -0.4985  0.2752  0.0091
14095TIP3    H163700   2.429   2.082  13.619  1.5275 -1.6222 -0.4259
14095TIP3    H263701   2.530   2.033  13.721  0.3630  1.9544  2.5498
14096TIP3   OH263702   4.473   0.076   2.314  0.3361  0.3025 -0.0284
14096TIP3    H163703   4.526   0.150   2.345 -0.0816  0.6924 -0.2517
14096TIP3    H263704   4.474   0.085   2.219  1.1246 -0.5577 -0.1096
14097TIP3   OH263705   3.018   0.044  14.623  0.1285  0.2831 -0.8520
14097TIP3    H163706   2.937   0.024  14.669 -0.5767  3.4434 -0.6053
14097TIP3    H263707   2.990   0.067  14.534  0.5655  2.4195 -0.4835
14098TIP3   OH263708   4.333   4.845   2.331  0.0041  0.2145 -0.4342
14098TIP3    H163709   4.284   4.828   2.412 -0.5435  0.7825 -0.6342
14098TIP3    H263710   4.283   4.915   2.288  0.8157  0.5672 -0.8097
14099TIP3   OH263711   1.988   2.021   3.932  0.4293 -0.3099  0.7572
14099TIP3    H163712   1.908   1.983   3.969 -0.2910 -2.1342 -2.5459
14099TIP3    H263713   1.992   2.108   3.972 -3.3777 -0.0523  0.8237
14100TIP3   OH263714   5.090   3.288   3.403 -0.0594  0.1914  0.0681
14100TIP3    H163715   5.077   3.383   3.401 -1.7537 -0.0311 -1.3800
14100TIP3    H263716   5.114   3.265   3.313 -0.0802 -0.8012  0.3118
14101TIP3   OH263717   2.523   4.466   0.508  0.0025  0.0538 -0.4548
14101TIP3    H163718   2.568   4.512   0.437 -1.6052  0.0473 -1.4938
14101TIP3    H263719   2.538   4.521   0.585  0.3578  0.9290 -1.1353
14102TIP3   OH263720   1.176   0.163  15.116 -0.3183 -0.0079 -0.0179
14102TIP3    H163721   1.089   0.197  15.137 -0.0534  0.9092 -0.4014
14102TIP3    H263722   1.185   0.084  15.170 -1.1757  0.1913  0.4149
14103TIP3   OH263723   5.207   4.445   1.668 -0.5765 -0.1733  0.2893
14103TIP3    H163724   5.201   4.504   1.742 -0.4795  0.6144 -0.3276
14103TIP3    H263725   5.292   4.401   1.680  0.6497  1.8184 -0.7096
14104TIP3   OH263726   6.692   6.046   3.461 -0.5379  0.0659 -0.1742
14104TIP3    H163727   6.668   5.978   3.399 -1.6280 -1.6568  2.0623
14104TIP3    H263728   6.609   6.082   3.492 -0.0101  1.1186  0.0610
14105TIP3   OH263729   6.177   0.412  11.360 -0.5821 -0.7590  0.0164
14105TIP3    H163730   6.159   0.497  11.320 -0.1356 -0.2817  0.8040
14105TIP3    H263731   6.196   0.433  11.452 -0.0994 -1.6651  0.1283
14106TIP3   OH263732   3.454   0.505   2.658  0.0322 -0.3816 -0.1477
14106TIP3    H163733   3.539   0.474   2.691  0.0898 -2.1142 -1.9072
14106TIP3    H263734   3.424   0.436   2.600 -1.8101  1.0017 -0.8574
14107TIP3   OH263735   5.883   1.424  16.176 -0.3209  0.6111 -0.5657
14107TIP3    H163736   5.850   1.347  16.223 -0.3101 -0.1721 -1.8167
14107TIP3    H263737   5.806   1.461  16.133 -0.0963  0.5566 -1.0104
14108TIP3   OH263738   5.220   3.273   6.017  0.1124  0.0959 -0.4940
14108TIP3    H163739   5.258   3.278   6.104 -1.5632  0.5302  0.2233
14108TIP3    H263740   5.132   3.238   6.030 -0.5541  1.1975 -1.8856
14109TIP3   OH263741   4.903   2.164   4.078 -0.2439 -0.1214  0.1399
14109TIP3    H163742   4.893   2.258   4.089  1.7611 -0.0499  1.6030
14109TIP3    H263743   4.882   2.127   4.163  0.4904 -0.8528  0.0107
14110TIP3   OH263744   3.368   4.085  12.140 -0.2315  1.0038 -0.1713
14110TIP3    H163745   3.323   4.053  12.218 -0.1153 -0.0407 -0.5186
14110TIP3    H263746   3.298   4.106  12.079 -0.2892 -2.1311 -1.3046
14111TIP3   OH263747   3.384   1.262  16.250  0.4057  0.3101 -0.5827
14111TIP3    H163748   3.294   1.243  16.276  0.5720  0.2822 -0.0270
14111TIP3    H263749   3.385   1.247  16.155 -0.6138  2.0265 -0.8858
14112TIP3   OH263750   1.335   4.386   3.293  0.4034  0.2519 -0.0299
14112TIP3    H163751   1.246   4.422   3.300 -0.3866 -1.4999 -0.6711
14112TIP3    H263752   1.387   4.457   3.258 -0.8585  1.1730 -0.0655
14113TIP3   OH263753   3.236   1.964  13.835  0.7507 -0.1779  0.5339
14113TIP3    H163754   3.235   1.868  13.827  1.3147 -0.1451 -0.0418
14113TIP3    H263755   3.327   1.985  13.854  0.8210  0.3110 -0.3073
14114TIP3   OH263756   1.065   4.335  14.975  0.1687  0.4892  0.3971
14114TIP3    H163757   1.049   4.244  15.001 -0.8860  1.0713  1.8431
14114TIP3    H263758   1.099   4.329  14.886 -4.0540 -1.0599 -1.2245
14115TIP3   OH263759   3.910   3.369  14.540 -0.0910 -0.0067  0.1840
14115TIP3    H163760   3.857   3.373  14.619 -2.2282  1.3455 -1.2664
14115TIP3    H263761   3.984   3.428  14.556 -1.3781  1.5167  0.5575
14116TIP3   OH263762   4.210   6.095   4.044  0.6204 -0.2060 -0.1151
14116TIP3    H163763   4.205   6.154   3.969  0.0683  0.8742  0.7493
14116TIP3    H263764   4.127   6.048   4.043 -0.2402  1.2248  0.9292
14117TIP3   OH263765   4.520   0.650  12.658  0.5418 -0.3985  0.0313
14117TIP3    H163766   4.454   0.582  12.675  0.8744 -1.0793 -1.3074
14117TIP3    H263767   4.499   0.720  12.720 -2.6642  0.2522 -1.6514
14118TIP3   OH263768   2.195   0.325   3.707 -0.0960  0.5436 -0.4839
14118TIP3    H163769   2.160   0.354   3.623  0.1621  0.9930 -0.4356
14118TIP3    H263770   2.158   0.237   3.718 -0.7946  0.8028 -0.6759
14119TIP3   OH263771   5.340   0.720   1.095  0.0402 -0.7099 -0.4342
14119TIP3    H163772   5.422   0.674   1.079  1.8473  2.4370 -0.6481
14119TIP3    H263773   5.324   0.711   1.189  2.0649  0.9057  0.0877
14120TIP3   OH263774   0.687   5.768  12.258  0.4211 -0.3524  0.1544
14120TIP3    H163775   0.592   5.775  12.257  0.5035  1.1612  1.5323
14120TIP3    H263776   0.717   5.835  12.196  0.6394 -0.0151  0.6265
14121TIP3   OH263777   6.007   1.706  13.130 -0.4381 -0.2823  0.2836
14121TIP3    H163778   5.934   1.732  13.073 -1.2151  1.3420  1.9673
14121TIP3    H263779   6.029   1.785  13.178  2.1242 -0.8994  0.1835
14122TIP3   OH263780   5.788   6.038   2.907 -0.4850 -0.3724 -0.5813
14122TIP3    H163781   5.769   6.101   2.838 -2.0162  0.8369  0.9156
14122TIP3    H263782   5.844   6.085   2.969  0.4667 -1.2950 -0.7219
14123TIP3   OH263783   0.792   2.068   6.229  0.0867  0.3559 -0.3050
14123TIP3    H163784   0.724   2.066   6.296  0.7003 -0.2738  0.2972
14123TIP3    H263785   0.850   1.994   6.250  0.3096  0.1762 -1.4905
14124TIP3   OH263786   2.162   0.102   2.339 -0.1284  0.2138 -0.4334
14124TIP3    H163787   2.114   0.163   2.283  1.4599  1.7310 -0.1747
14124TIP3    H263788   2.178   0.026   2.283 -1.0982  0.5152 -1.1298
14125TIP3   OH263789   2.139   5.201   1.019  0.3995 -0.2696  0.1760
14125TIP3    H163790   2.197   5.254   1.073  1.5472 -1.1333 -0.1909
14125TIP3    H263791   2.087   5.150   1.081  0.3793  0.1264  0.4884
14126TIP3   OH263792   6.750   0.852  13.585  0.8688 -0.1474 -0.1562
14126TIP3    H163793   6.771   0.758  13.585  1.1404 -0.0912  0.3435
14126TIP3    H263794   6.835   0.895  13.595  0.5453  0.0805  1.8779
14127TIP3   OH263795   1.379   0.400  15.978 -0.2158 -0.3322 -0.1000
14127TIP3    H163796   1.321   0.472  15.952  0.1286  0.0473  0.1771
14127TIP3    H263797   1.456   0.411  15.921  0.7635  0.8021  1.3986
14128TIP3   OH263798   4.744   1.280   4.894  0.1125  0.1495  0.7765
14128TIP3    H163799   4.798   1.202   4.880 -0.3300 -0.5683  2.8411
14128TIP3    H263800   4.691   1.287   4.815 -2.2928 -3.6787  1.9213
14129TIP3   OH263801   5.235   3.316  11.868  0.4552 -0.4344 -0.2453
14129TIP3    H163802   5.224   3.254  11.941 -0.3717  1.4120  1.2317
14129TIP3    H263803   5.151   3.317  11.824  1.0780 -1.8698 -1.5498
14130TIP3   OH263804   6.177   6.076  13.229  0.2115  0.0015  0.2688
14130TIP3    H163805   6.097   6.117  13.263 -0.8444 -0.9801 -0.9487
14130TIP3    H263806   6.195   6.122  13.147  1.0658  0.4109  0.6835
14131TIP3   OH263807   6.497   2.929  16.160  0.1891 -0.4284 -0.7381
14131TIP3    H163808   6.435   2.859  16.178 -0.6986  0.6270  0.3959
14131TIP3    H263809   6.467   2.968  16.078  0.8512 -1.5359 -1.5246
14132TIP3   OH263810   6.751   2.188  16.036  0.1050 -0.3229 -0.1954
14132TIP3    H163811   6.806   2.262  16.062  0.2504 -0.7594  0.7636
14132TIP3    H263812   6.808   2.133  15.984  1.0349 -1.5151  2.0226
14133TIP3   OH263813   3.751   1.462   5.610  0.4368 -0.3885 -0.0504
14133TIP3    H163814   3.833   1.510   5.605 -0.9308  2.0371  0.2036
14133TIP3    H263815   3.684   1.525   5.583 -1.6180 -1.6351  1.9384
14134TIP3   OH263816   0.616   3.874   1.879 -0.0399 -0.7957 -0.1741
14134TIP3    H163817   0.693   3.885   1.935 -0.9054 -0.1651  0.9054
14134TIP3    H263818   0.561   3.950   1.897  0.4265  0.3136 -3.1258
14135TIP3   OH263819   0.313   0.787  13.886 -0.0526 -0.6124  0.2466
14135TIP3    H163820   0.351   0.837  13.815 -0.4311 -0.7141 -0.0250
14135TIP3    H263821   0.385   0.733  13.919  0.3624  0.1359  0.5701
14136TIP3   OH263822   3.866   1.123   5.857  0.1450  0.5680 -0.4966
14136TIP3    H163823   3.809   1.097   5.929  1.9259  0.7074  1.0210
14136TIP3    H263824   3.953   1.128   5.897  1.3307 -0.2812 -2.8817
14137TIP3   OH263825   6.366   1.009  14.293 -0.1426  0.0764 -0.2350
14137TIP3    H163826   6.365   1.023  14.199  2.4583 -0.5435 -0.3817
14137TIP3    H263827   6.279   0.974  14.313 -1.1940  1.5007 -2.1694
14138TIP3   OH263828   2.690   3.550  17.051  0.4180 -0.0328  0.0464
14138TIP3    H163829   2.634   3.627  17.045 -0.1420 -0.4780 -0.6814
14138TIP3    H263830   2.629   3.478  17.068  0.9505 -0.2920  0.8671
14139TIP3   OH263831   1.189   3.046   1.742  0.6759  0.3931 -0.1295
14139TIP3    H163832   1.257   3.037   1.809  0.4631 -3.2666 -0.3279
14139TIP3    H263833   1.117   3.091   1.787  1.7934  0.9754  1.1151
14140TIP3   OH263834   3.660   2.371   2.181 -0.5464 -0.0539 -0.2125
14140TIP3    H163835   3.675   2.276   2.182 -0.3418 -0.0451 -1.5323
14140TIP3    H263836   3.653   2.395   2.273 -0.1407 -1.2816  0.1497
14141TIP3   OH263837   0.091   0.317  16.106  0.5585  0.4502  0.1551
14141TIP3    H163838   0.185   0.300  16.096  0.4883 -0.6023  1.1158
14141TIP3    H263839   0.080   0.335  16.199 -0.0750  1.3699 -0.0964
14142TIP3   OH263840   0.603   0.687   2.561  0.0058  0.7369 -0.0683
14142TIP3    H163841   0.618   0.769   2.607 -0.2444  1.3973 -1.1500
14142TIP3    H263842   0.665   0.689   2.488 -0.6573  0.4014 -0.6472
14143TIP3   OH263843   1.836   1.981   5.661 -0.0493  0.3724 -0.2583
14143TIP3    H163844   1.876   2.067   5.647 -1.7270  0.9529 -1.8771
14143TIP3    H263845   1.799   1.986   5.749 -1.2139  1.8034 -0.7937
14144TIP3   OH263846   4.884   6.084  12.945  0.4243  0.3860 -0.3497
14144TIP3    H163847   4.931   6.166  12.961 -0.1729  0.7893 -0.6569
14144TIP3    H263848   4.796   6.100  12.978  0.5623 -0.4685  0.4925
14145TIP3   OH263849   2.504   2.320  10.984 -0.2852  0.2002  0.2497
14145TIP3    H163850   2.579   2.360  10.940  1.1244 -1.3639  1.1667
14145TIP3    H263851   2.514   2.226  10.965 -2.2168  0.0206  0.0881
14146TIP3   OH263852   4.381   5.627  12.389  0.7706  0.0962 -0.1901
14146TIP3    H163853   4.460   5.591  12.429  0.6331  0.3951  0.3610
14146TIP3    H263854   4.316   5.557  12.398  0.5949  0.3479  0.5896
14147TIP3   OH263855   0.546   4.923  13.147 -0.0658 -0.2907 -0.2104
14147TIP3    H163856   0.626   4.874  13.163  0.3307  0.6746  0.8012
14147TIP3    H263857   0.498   4.871  13.083  1.4246 -0.8167 -0.9148
14148TIP3   OH263858   5.921   3.699  13.126  0.0506  0.4277 -0.5508
14148TIP3    H163859   5.850   3.635  13.132 -0.4864  1.0884  0.2147
14148TIP3    H263860   5.889   3.775  13.173  2.0680 -0.0067  1.6366
14149TIP3   OH263861   4.163   6.172  15.000 -0.1687  0.0825  0.0441
14149TIP3    H163862   4.176   6.134  15.087  0.3200  1.2085  0.4720
14149TIP3    H263863   4.151   6.265  15.017 -1.6285  0.0937 -0.9733
14150TIP3   OH263864   5.729   5.932  10.324 -1.0558  0.0366  0.0112
14150TIP3    H163865   5.735   5.970  10.411 -1.7583 -1.4352  0.7085
14150TIP3    H263866   5.814   5.950  10.284 -0.7576  0.7722  0.9724
14151TIP3   OH263867   2.671   4.214   3.896  0.1181 -0.2664  0.4919
14151TIP3    H163868   2.723   4.270   3.838 -0.4618  0.6638  0.8565
14151TIP3    H263869   2.708   4.127   3.884  0.7003  0.1005 -0.4798
14152TIP3   OH263870   0.938   0.129  11.924 -0.4539 -0.3925 -0.5116
14152TIP3    H163871   0.843   0.126  11.920 -0.4966  0.4893 -0.1825
14152TIP3    H263872   0.959   0.219  11.949  0.4452 -0.7060 -0.0934
14153TIP3   OH263873   2.459   0.913   2.325 -1.1243  0.1729  0.2867
14153TIP3    H163874   2.424   0.844   2.381 -1.5903  0.4628  0.3510
14153TIP3    H263875   2.519   0.867   2.265 -2.8326 -0.5490 -0.8949
14154TIP3   OH263876   5.225   2.281   3.792  0.0182 -0.0189 -0.3611
14154TIP3    H163877   5.153   2.256   3.734 -0.3644  2.1840 -0.9043
14154TIP3    H263878   5.225   2.215   3.861 -1.6984 -0.7591 -1.0426
14155TIP3   OH263879   4.423   6.299   1.925  0.7940 -0.0039  0.1388
14155TIP3    H163880   4.477   6.373   1.899  0.6213 -0.4733 -1.6100
14155TIP3    H263881   4.485   6.232   1.952  1.0270  0.0428 -0.2783
14156TIP3   OH263882   3.308   5.077  13.215 -0.1658 -0.1277  0.0520
14156TIP3    H163883   3.343   5.162  13.240 -2.7459  0.6066  1.2366
14156TIP3    H263884   3.313   5.025  13.295 -2.2863  0.1602  0.3791
14157TIP3   OH263885   3.501   0.151   0.134 -0.3716 -0.3170  0.2924
14157TIP3    H163886   3.413   0.155   0.098  0.0570  0.4521 -0.6976
14157TIP3    H263887   3.502   0.072   0.188 -1.7894 -0.0925  0.6542
14158TIP3   OH263888   3.274   2.594   3.829  0.2380  0.4805  0.4289
14158TIP3    H163889   3.310   2.676   3.794 -0.1435  0.3646 -0.2348
14158TIP3    H263890   3.309   2.590   3.918 -1.3132  2.3728  1.1606
14159TIP3   OH263891   0.793   4.035  15.591 -0.3317 -0.3046 -0.0511
14159TIP3    H163892   0.740   4.106  15.553 -0.4064 -1.0258 -1.3261
14159TIP3    H263893   0.883   4.061  15.574 -0.2403  0.9230  2.1179
14160TIP3   OH263894   0.766   6.117  11.748 -0.1186  0.6411  0.4717
14160TIP3    H163895   0.711   6.195  11.745 -0.4704  0.4567  1.7054
14160TIP3    H263896   0.839   6.142  11.805  0.5702  0.5706 -0.3816
14161TIP3   OH263897   3.835   1.183   2.619  0.6712  0.2212 -0.7611
14161TIP3    H163898   3.750   1.196   2.576  0.0837 -2.0467 -0.3615
14161TIP3    H263899   3.856   1.268   2.657 -2.2076  0.4383  0.5173
14162TIP3   OH263900   1.393   0.305  15.020 -0.3931 -0.0066 -0.5297
14162TIP3    H163901   1.480   0.267  15.008 -0.7583 -0.9223 -0.3357
14162TIP3    H263902   1.350   0.246  15.081 -1.1214  0.5023 -0.5479
14163TIP3   OH263903   3.663   1.288  16.472  0.0238 -0.1862  0.0760
14163TIP3    H163904   3.584   1.256  16.429  1.2999 -0.8735 -1.8854
14163TIP3    H263905   3.646   1.278  16.565 -1.5257 -1.9610 -0.3604
14164TIP3   OH263906   4.905   3.564   2.413  0.6141 -0.3580  0.3070
14164TIP3    H163907   4.896   3.469   2.402 -0.0489 -0.1390 -1.0738
14164TIP3    H263908   4.893   3.577   2.507 -2.5415 -1.3344  0.1135
14165TIP3   OH263909   0.264   2.007  13.416 -0.4283  0.5757 -0.3332
14165TIP3    H163910   0.347   1.983  13.375 -0.1763  1.4208 -0.3326
14165TIP3    H263911   0.274   1.981  13.508 -0.1972  0.5986 -0.3509
14166TIP3   OH263912   6.055   3.873   3.730  0.6725 -0.4986 -0.0116
14166TIP3    H163913   6.147   3.849   3.724  1.1084  1.2532 -0.7642
14166TIP3    H263914   6.015   3.839   3.650  0.5245 -1.8327  0.6270
14167TIP3   OH263915   4.297   4.081   2.108  0.5277 -0.1500 -0.7097
14167TIP3    H163916   4.269   4.167   2.140  0.9222  0.1195 -1.0907
14167TIP3    H263917   4.337   4.039   2.184 -0.5902 -0.4025 -0.2497
14168TIP3   OH263918   2.287   1.912   0.851  0.4132 -0.2087  0.4276
14168TIP3    H163919   2.208   1.883   0.804 -0.4943  0.6034  1.4231
14168TIP3    H263920   2.354   1.849   0.826 -0.5373 -0.8850 -0.4824
14169TIP3   OH263921   0.035   3.120  17.181 -0.4695 -0.7484 -0.2101
14169TIP3    H163922   0.118   3.126  17.226  0.1625  2.5456 -1.6825
14169TIP3    H263923  -0.030   3.146  17.246 -0.2107 -1.6428  0.4245
14170TIP3   OH263924   2.944   0.200   3.932  0.2909  0.2013 -0.1774
14170TIP3    H163925   3.009   0.190   3.862  0.9653  0.9130  0.3276
14170TIP3    H263926   2.893   0.277   3.905  0.7114  0.6276  0.2227
14171TIP3   OH263927   1.443   3.331  16.273 -0.4238  0.4953 -0.1758
14171TIP3    H163928   1.534   3.350  16.296  0.5054  0.7386 -3.7444
14171TIP3    H263929   1.447   3.248  16.225 -2.2554 -0.0615  0.5923
14172TIP3   OH263930   5.639   6.767  14.680 -0.0955  0.4001 -0.4022
14172TIP3    H163931   5.721   6.806  14.711 -0.4839  0.3102  0.7427
14172TIP3    H263932   5.578   6.841  14.676 -0.4894  0.1394  0.5936
14173TIP3   OH263933   3.399   6.299   4.732 -0.0768 -0.2608  0.3270
14173TIP3    H163934   3.404   6.353   4.811  0.2508  1.6705 -0.9642
14173TIP3    H263935   3.473   6.328   4.679 -1.4546 -0.0680 -1.5566
14174TIP3   OH263936   3.536   6.087   4.995  0.0726 -0.5065  0.3302
14174TIP3    H163937   3.572   6.111   4.909  1.4118 -0.8208  0.7967
14174TIP3    H263938   3.442   6.084   4.981  0.2771 -0.5546 -1.1421
14175TIP3   OH263939   3.171   0.011  12.390 -0.3338 -0.1928 -0.2091
14175TIP3    H163940   3.251  -0.027  12.425 -0.2571  0.3270  0.1872
14175TIP3    H263941   3.162  -0.027  12.303  1.4835  1.3252 -1.1138
14176TIP3   OH263942   4.854   3.191  11.007 -0.3933 -0.3858 -0.3224
14176TIP3    H163943   4.896   3.228  10.930 -0.8450  1.1935  0.1752
14176TIP3    H263944   4.905   3.113  11.028  1.3544  0.6710 -0.6182
14177TIP3   OH263945   4.653   1.645  14.546 -0.0381  0.1342 -0.7529
14177TIP3    H163946   4.606   1.562  14.535  1.2385 -0.7737  0.3427
14177TIP3    H263947   4.739   1.629  14.506 -0.0669  1.2048 -1.2571
14178TIP3   OH263948   5.768   6.537  12.127 -0.0606  0.6260 -0.0076
14178TIP3    H163949   5.765   6.574  12.215  0.6463  3.1907 -1.0135
14178TIP3    H263950   5.705   6.465  12.129 -0.9448  1.4238  2.2376
14179TIP3   OH263951   0.646   2.574  16.561  0.0448 -0.5808  0.0684
14179TIP3    H163952   0.559   2.574  16.521  0.3147  2.6905 -0.6474
14179TIP3    H263953   0.630   2.557  16.654 -1.4192  0.4524  0.0138
14180TIP3   OH263954   5.505   1.198  16.617  0.0930  0.4753  0.2746
14180TIP3    H163955   5.540   1.128  16.562 -1.1009 -1.4323  1.9119
14180TIP3    H263956   5.412   1.201  16.598 -0.0252  0.9974  0.8960
14181TIP3   OH263957   5.922   2.302   5.452 -0.5320  0.3301 -0.0648
14181TIP3    H163958   5.963   2.304   5.366 -0.8828  1.3404 -0.2253
14181TIP3    H263959   5.829   2.316   5.434 -1.0086 -2.1425  0.2755
14182TIP3   OH263960   1.903   1.118   4.675 -0.0770  0.2150 -0.5057
14182TIP3    H163961   1.895   1.203   4.717 -1.8936 -0.1349 -0.0856
14182TIP3    H263962   1.882   1.055   4.744  0.2782 -0.5281 -1.0698
14183TIP3   OH263963   6.754   3.554  13.694 -0.1723 -0.2492  0.2288
14183TIP3    H163964   6.723   3.519  13.610  1.8492  0.9106 -1.0482
14183TIP3    H263965   6.793   3.479  13.738  1.5156 -0.2666 -1.2255
14184TIP3   OH263966   4.628   5.854   3.727 -0.3530 -0.5792  0.3394
14184TIP3    H163967   4.672   5.831   3.645 -1.8004 -2.9023  0.1667
14184TIP3    H263968   4.642   5.949   3.736  1.6515 -0.6593 -1.4666
14185TIP3   OH263969   1.545   6.241  11.154  0.2860 -0.8270  0.0030
14185TIP3    H163970   1.605   6.275  11.087  1.0918 -0.5550  0.8626
14185TIP3    H263971   1.589   6.163  11.188  1.1050  0.5324  2.0840
14186TIP3   OH263972   5.971   3.486   2.996 -0.2917 -0.0035  0.5085
14186TIP3    H163973   5.910   3.545   3.039 -0.0079 -0.3229  1.3564
14186TIP3    H263974   6.052   3.536   2.989 -0.4857  0.2376 -0.1590
14187TIP3   OH263975   2.633   6.081  12.034 -0.2117 -0.3283  0.0180
14187TIP3    H163976   2.618   5.987  12.033  1.1829 -0.5562 -0.2128
14187TIP3    H263977   2.712   6.094  11.982 -0.3812  0.9693  0.0560
14188TIP3   OH263978   6.760   4.265  16.177 -0.0105 -0.0600  0.6959
14188TIP3    H163979   6.797   4.260  16.265 -0.5668  1.4261  1.0369
14188TIP3    H263980   6.775   4.356  16.150 -0.9881 -0.1642 -0.2275
14189TIP3   OH263981   6.519   0.300  16.166 -0.3433 -0.6953 -0.5417
14189TIP3    H163982   6.565   0.293  16.250  1.1180  1.3006 -1.1432
14189TIP3    H263983   6.575   0.253  16.104  0.9986  1.7431 -1.2724
14190TIP3   OH263984   4.091   2.608   5.616  0.4741  0.4675 -0.5603
14190TIP3    H163985   4.148   2.654   5.678  0.3798 -0.5431  0.2905
14190TIP3    H263986   4.101   2.515   5.639 -1.1205  0.2503 -0.7448
14191TIP3   OH263987   2.150   4.049   2.647 -0.2747 -0.4138  0.3707
14191TIP3    H163988   2.079   4.007   2.598 -1.6982  1.0358  1.1407
14191TIP3    H263989   2.171   4.128   2.598 -0.6880  0.2799  1.3041
14192TIP3   OH263990   5.742   5.106  15.646  0.2946  0.1207  0.2199
14192TIP3    H163991   5.753   5.201  15.652 -0.6004  0.3397 -1.2235
14192TIP3    H263992   5.662   5.089  15.697  0.1609  0.2100  0.0409
14193TIP3   OH263993   2.544   1.773  13.569 -0.3148 -0.5274 -0.8291
14193TIP3    H163994   2.637   1.772  13.591 -0.7244 -1.0950  0.9495
14193TIP3    H263995   2.505   1.705  13.624 -2.0429  0.8288 -0.3104
14194TIP3   OH263996   0.084   1.024   5.739 -0.3445  0.1194 -0.2067
14194TIP3    H163997   0.154   1.080   5.771 -0.6120  0.0011  0.6074
14194TIP3    H263998   0.010   1.042   5.797 -1.8806  2.2617 -2.6715
14195TIP3   OH263999   0.073   6.591  12.145 -0.5306 -0.1262  0.1403
14195TIP3    H164000  -0.008   6.636  12.169 -0.6890 -0.8297  1.0008
14195TIP3    H264001   0.124   6.590  12.227  0.7924  1.2067 -0.6444
14196TIP3   OH264002   4.101   1.708   4.499 -0.2586  0.2185  0.2420
14196TIP3    H164003   4.150   1.789   4.509 -2.1297  1.0683  3.3355
14196TIP3    H264004   4.167   1.639   4.508  1.1983  1.3427 -1.4252
14197TIP3   OH264005   2.738   3.318   0.441 -0.5600 -0.1871 -0.4893
14197TIP3    H164006   2.744   3.230   0.477  1.1765 -0.2192 -0.7855
14197TIP3    H264007   2.728   3.305   0.347  2.0909 -0.1115 -0.8399
14198TIP3   OH264008   5.798   6.782  16.350  0.0663  0.7335  0.2724
14198TIP3    H164009   5.865   6.715  16.344 -2.1247 -1.3883 -1.1236
14198TIP3    H264010   5.828   6.852  16.292  1.3454  0.0968  0.1516
14199TIP3   OH264011   5.544   0.985  16.443 -0.0202  0.3435 -0.5389
14199TIP3    H164012   5.503   0.900  16.427 -0.8088  0.8708 -1.4575
14199TIP3    H264013   5.635   0.974  16.416  0.0137 -0.3670 -0.1212
14200TIP3   OH264014   5.506   1.024   3.233 -0.5204 -0.0043 -0.0912
14200TIP3    H164015   5.442   1.031   3.304  0.5060  0.5666  0.7998
14200TIP3    H264016   5.538   0.934   3.239 -1.0907 -0.2355 -0.4220
14201TIP3   OH264017   6.146   4.707   1.526 -0.5704  0.5320 -0.2732
14201TIP3    H164018   6.117   4.797   1.543 -0.0802  0.8697 -1.1698
14201TIP3    H264019   6.238   4.717   1.499  0.0669 -0.4139  1.4784
14202TIP3   OH264020   0.743   1.385  13.620  0.4380 -0.2371  0.1109
14202TIP3    H164021   0.834   1.356  13.621  1.8874  3.8096 -1.4967
14202TIP3    H264022   0.711   1.360  13.533  0.6965  0.1788 -0.1068
14203TIP3   OH264023   3.966   1.247   3.093  0.4515 -0.2004  0.0738
14203TIP3    H164024   3.946   1.157   3.119 -1.1761 -0.2027 -1.1403
14203TIP3    H264025   3.892   1.299   3.126  1.0574  0.6056  0.1919
14204TIP3   OH264026   0.099   6.081  11.235  0.0414 -0.5611  0.0692
14204TIP3    H164027   0.130   6.033  11.158 -1.5437  1.3486 -1.7950
14204TIP3    H264028   0.150   6.162  11.234  0.2487 -0.6699  1.2484
14205TIP3   OH264029   0.042   5.991   0.984  0.3486  0.3771 -0.3681
14205TIP3    H164030  -0.025   6.055   1.008  1.0009  1.1786 -0.6716
14205TIP3    H264031  -0.007   5.910   0.970 -0.3489  0.5009  1.2047
14206TIP3   OH264032   1.131   1.619   4.040 -0.2117 -0.1075  0.2971
14206TIP3    H164033   1.177   1.558   4.097 -2.8463 -1.7426  0.7530
14206TIP3    H264034   1.156   1.706   4.073 -0.8558 -1.0051  3.3175
14207TIP3   OH264035   3.864   4.291   4.727 -0.0022 -0.1891  0.5106
14207TIP3    H164036   3.834   4.297   4.818 -0.4319  1.2866  0.2767
14207TIP3    H264037   3.824   4.210   4.694  0.5593 -1.0021  1.7663
14208TIP3   OH264038   3.152   5.797  16.234  0.7807  0.3490 -0.2673
14208TIP3    H164039   3.114   5.713  16.259  0.2576  0.0639 -1.9364
14208TIP3    H264040   3.126   5.857  16.305 -1.0965 -0.3014 -0.3598
14209TIP3   OH264041   2.194   4.567  16.608 -0.1895 -0.2364  0.3838
14209TIP3    H164042   2.235   4.654  16.612 -2.4743  0.9035  0.4354
14209TIP3    H264043   2.231   4.527  16.530  0.3235  1.1331 -0.1025
14210TIP3   OH264044   5.538   5.759  17.142 -0.2798  0.0579 -0.4448
14210TIP3    H164045   5.443   5.750  17.148 -0.1352 -0.5444  1.2714
14210TIP3    H264046   5.568   5.755  17.233  1.3208  0.9909 -0.9140
14211TIP3   OH264047   6.782   6.052  15.523  0.4044  0.3270  0.0551
14211TIP3    H164048   6.732   6.125  15.487 -1.4590 -2.0279 -2.2950
14211TIP3    H264049   6.741   6.034  15.608  0.7051  1.7684  0.5318
14212TIP3   OH264050   2.296   2.091   2.230  0.6340  0.3563  0.3353
14212TIP3    H164051   2.303   2.073   2.136 -0.2543 -0.5567  0.4378
14212TIP3    H264052   2.236   2.165   2.235  0.2641  0.0643  0.2143
14213TIP3   OH264053   5.286   1.934   6.248  0.1394  0.3979 -0.2131
14213TIP3    H164054   5.304   1.916   6.156 -0.0124  3.1199 -0.7985
14213TIP3    H264055   5.210   1.880   6.268 -1.7397  2.0682 -2.5605
14214TIP3   OH264056   4.819   1.066  14.856 -0.1236  0.2603  0.1825
14214TIP3    H164057   4.902   1.072  14.809 -0.1645 -1.1220 -0.1034
14214TIP3    H264058   4.773   0.994  14.812 -0.9918  0.2856  1.0582
14215TIP3   OH264059   5.586   2.620   0.580  0.6249 -0.1761 -0.0831
14215TIP3    H164060   5.604   2.529   0.557 -0.1500 -0.7673  1.6115
14215TIP3    H264061   5.665   2.667   0.551  0.5494 -1.1838 -2.0150
14216TIP3   OH264062   2.852   6.564   1.041 -0.2366 -0.2245  0.2876
14216TIP3    H164063   2.918   6.539   0.977 -1.7824 -0.4108 -1.2698
14216TIP3    H264064   2.856   6.496   1.108  1.9254  0.3866  0.8235
14217TIP3   OH264065   3.716   1.081   4.783 -0.3372 -0.2149 -0.0805
14217TIP3    H164066   3.748   1.030   4.708 -0.3599 -0.5716  0.1527
14217TIP3    H264067   3.795   1.120   4.821 -0.0427 -1.9086  1.0981
14218TIP3   OH264068   2.258   4.998  11.697 -0.3709 -0.6970  0.0359
14218TIP3    H164069   2.297   5.085  11.706 -0.7766 -0.5389  0.2574
14218TIP3    H264070   2.303   4.959  11.622  0.5798 -0.7078  0.5995
14219TIP3   OH264071   3.103   6.139   5.366 -0.4162 -0.1184 -0.0088
14219TIP3    H164072   3.019   6.094   5.368 -0.1278 -0.8065 -2.1654
14219TIP3    H264073   3.153   6.094   5.298  0.6983  2.0169 -0.6632
14220TIP3   OH264074   0.087   3.774   1.119 -0.2923 -0.3581  0.2180
14220TIP3    H164075   0.130   3.808   1.040 -1.0404 -2.1330 -0.9862
14220TIP3    H264076  -0.006   3.789   1.103 -0.5322 -1.8102  0.2368
14221TIP3   OH264077   6.279   2.118   1.175 -0.2068 -0.0261  0.0782
14221TIP3    H164078   6.352   2.056   1.167  0.7561  1.4188 -3.0646
14221TIP3    H264079   6.207   2.076   1.129 -0.4193 -0.0600  0.4412
14222TIP3   OH264080   4.925   4.988  12.098 -0.4140  0.6253 -0.2009
14222TIP3    H164081   4.881   5.050  12.157 -3.4468 -1.7664  0.1874
14222TIP3    H264082   4.985   4.940  12.155 -0.4443  0.9659  0.1248
14223TIP3   OH264083   1.561   0.241  16.139 -0.3861 -0.3568 -0.7470
14223TIP3    H164084   1.494   0.197  16.087  1.1280 -1.4839 -1.7771
14223TIP3    H264085   1.523   0.326  16.160 -0.7276  0.4998 -4.4521
14224TIP3   OH264086   5.926   1.060  11.770 -0.7199 -0.1011 -0.0852
14224TIP3    H164087   5.910   1.054  11.675 -1.5413 -1.6490  0.1363
14224TIP3    H264088   5.838   1.066  11.808 -0.4673 -1.0662  0.6693
14225TIP3   OH264089   6.111   4.073   3.910 -0.2492  0.3976 -0.4070
14225TIP3    H164090   6.099   3.991   3.862 -0.8379  0.5523 -0.5332
14225TIP3    H264091   6.022   4.103   3.928 -0.0356  0.3828  0.7127
14226TIP3   OH264092   0.403   3.848   3.534  0.2090 -0.5266  0.1709
14226TIP3    H164093   0.334   3.820   3.595  1.2016  0.1864  1.6349
14226TIP3    H264094   0.357   3.861   3.451 -0.7205 -4.0422  0.0596
14227TIP3   OH264095   3.354   1.385  16.712  0.0076 -0.5386  0.4705
14227TIP3    H164096   3.365   1.339  16.795  1.8028  0.3079  0.7398
14227TIP3    H264097   3.338   1.316  16.648 -3.4820 -1.0708  1.8048
14228TIP3   OH264098   0.575   5.442  16.657  0.0894 -0.7699 -0.6259
14228TIP3    H164099   0.556   5.535  16.641  0.9760 -0.7463 -1.5719
14228TIP3    H264100   0.505   5.414  16.716  0.4241  0.7709  0.5551
14229TIP3   OH264101   2.732   5.246   3.588 -0.2408  0.1229  0.0206
14229TIP3    H164102   2.795   5.296   3.641  0.2000 -0.4470  0.0355
14229TIP3    H264103   2.784   5.214   3.514 -0.8507  0.9125 -0.7651
14230TIP3   OH264104   6.163   5.245   4.858 -0.0532  0.0329 -0.5483
14230TIP3    H164105   6.177   5.301   4.781  1.5217  2.5613  1.4905
14230TIP3    H264106   6.069   5.244   4.870 -0.1641  1.5931 -1.1172
14231TIP3   OH264107   4.645   4.892   0.507 -0.0054 -0.6809  0.2316
14231TIP3    H164108   4.713   4.939   0.460 -2.3780  0.2572 -2.3686
14231TIP3    H264109   4.596   4.845   0.440 -1.8647 -1.4124  2.0251
14232TIP3   OH264110   0.462   3.115  11.349  0.0288  0.0340  0.0706
14232TIP3    H164111   0.395   3.063  11.305 -0.2174  0.5391 -0.1475
14232TIP3    H264112   0.445   3.100  11.442 -0.0242 -0.2974  0.0093
14233TIP3   OH264113   3.493   2.274   0.230 -0.6362 -0.2340  0.2847
14233TIP3    H164114   3.411   2.224   0.224 -0.5536 -0.3528  0.1457
14233TIP3    H264115   3.546   2.226   0.293 -0.4441 -0.4834 -0.0630
14234TIP3   OH264116   5.384   6.620  15.127 -0.8218  0.2753 -0.0445
14234TIP3    H164117   5.406   6.620  15.034  0.0196  2.4298  0.1118
14234TIP3    H264118   5.373   6.528  15.150 -0.5207 -0.3002 -2.1594
14235TIP3   OH264119   3.638   0.472  15.478 -0.6390  0.0217  0.7329
14235TIP3    H164120   3.713   0.422  15.446 -1.5575 -1.5088  0.9177
14235TIP3    H264121   3.654   0.483  15.572 -0.3087  0.3283  0.6430
14236TIP3   OH264122   6.598   6.059  11.300 -0.8623  0.3989  0.0825
14236TIP3    H164123   6.686   6.022  11.306 -1.6507 -1.5017  0.1316
14236TIP3    H264124   6.613   6.153  11.287  1.1371  0.5423  2.9399
14237TIP3   OH264125   1.703   2.493  11.626 -0.2782 -0.5567 -0.4194
14237TIP3    H164126   1.712   2.430  11.554 -1.0110 -0.4596 -0.6005
14237TIP3    H264127   1.654   2.565  11.588  0.6925  0.2051 -0.2593
14238TIP3   OH264128   0.732   2.337  12.657 -0.4301 -0.4457 -0.4068
14238TIP3    H164129   0.783   2.324  12.737 -1.0384 -1.8828 -0.2220
14238TIP3    H264130   0.680   2.415  12.674  0.5229  0.1060  0.0216
14239TIP3   OH264131   6.448   4.802   0.100  0.4566  0.3663 -0.3641
14239TIP3    H164132   6.474   4.887   0.135  1.5400  0.8085 -2.1655
14239TIP3    H264133   6.530   4.754   0.089 -0.0829 -0.6443 -0.0351
14240TIP3   OH264134   0.382   5.162  13.484 -0.4532  0.4279  0.2280
14240TIP3    H164135   0.292   5.190  13.502 -0.4522 -0.5222  1.8177
14240TIP3    H264136   0.436   5.234  13.516 -0.5598 -0.1691  1.8127
14241TIP3   OH264137   4.794   5.075   1.613 -0.3102 -0.1446  0.2474
14241TIP3    H164138   4.806   5.109   1.702  2.1250 -0.6074  0.1314
14241TIP3    H264139   4.828   4.986   1.617 -0.9511 -0.4467 -0.9740
14242TIP3   OH264140   4.582   1.953   4.362 -0.1279 -0.0825 -0.3512
14242TIP3    H164141   4.620   1.921   4.444 -0.1820  0.5821 -0.0628
14242TIP3    H264142   4.573   2.047   4.375 -0.5837 -0.0410 -0.9423
14243TIP3   OH264143   3.116   5.964  13.502  0.2671 -0.2712  0.3466
14243TIP3    H164144   3.142   5.875  13.526  0.1015 -0.2152  0.7523
14243TIP3    H264145   3.196   6.016  13.511 -0.1735  0.0931  2.5861
14244TIP3   OH264146   3.213   3.861  15.963 -0.0235  0.3312 -0.3444
14244TIP3    H164147   3.281   3.892  16.023  0.2363 -1.6997  0.4655
14244TIP3    H264148   3.131   3.875  16.010  0.0316  0.5790 -0.3240
14245TIP3   OH264149   1.828   5.927  14.554 -0.3477 -0.0842 -0.0894
14245TIP3    H164150   1.831   5.899  14.646  0.6632 -0.1423 -0.1442
14245TIP3    H264151   1.786   5.854  14.508  0.1256 -0.5093  0.1531
14246TIP3   OH264152   5.237   0.973   3.101  0.2647 -0.1153 -0.6154
14246TIP3    H164153   5.328   0.985   3.127 -0.0099  0.6008  0.0321
14246TIP3    H264154   5.238   0.893   3.048  1.0606 -0.8475  0.4621
14247TIP3   OH264155   6.238   5.277  13.658  0.0777 -0.1097  0.1937
14247TIP3    H164156   6.257   5.190  13.693  0.1923 -0.0554  0.2624
14247TIP3    H264157   6.219   5.261  13.565 -1.4575 -0.4246  0.5488
14248TIP3   OH264158   2.174   0.477  13.967 -0.1319  0.3135  0.2213
14248TIP3    H164159   2.168   0.389  13.930  1.7683  0.6975 -1.0576
14248TIP3    H264160   2.234   0.469  14.041 -0.1774  0.4792  0.2789
14249TIP3   OH264161   0.460   0.079  16.348  0.5058  0.3709  0.1519
14249TIP3    H164162   0.462   0.019  16.274 -2.5596 -0.3329  0.5345
14249TIP3    H264163   0.531   0.050  16.405  1.6650 -0.2880 -1.5982
14250TIP3   OH264164   4.982   6.362  16.814  0.4419 -0.2561  0.5842
14250TIP3    H164165   4.983   6.318  16.729 -1.4622  1.7514 -0.5531
14250TIP3    H264166   4.909   6.323  16.861 -0.6138  0.9016 -0.0404
14251TIP3   OH264167   5.314   4.885  16.408 -0.4390 -0.9496 -0.1852
14251TIP3    H164168   5.361   4.944  16.467 -1.1368 -0.4212 -0.1552
14251TIP3    H264169   5.344   4.908  16.321 -1.0459 -0.2322 -0.2113
14252TIP3   OH264170   3.055   2.743   2.280  0.0886  0.0844 -0.6804
14252TIP3    H164171   3.068   2.806   2.351 -2.0581  0.0572 -0.2358
14252TIP3    H264172   3.129   2.682   2.288  0.2143  0.4529  1.1440
14253TIP3   OH264173   6.678   0.416  11.290 -0.7676 -0.1388 -0.3379
14253TIP3    H164174   6.665   0.367  11.371  2.1183  1.2781  1.0421
14253TIP3    H264175   6.651   0.505  11.311 -0.5201  0.1187 -1.1055
14254TIP3   OH264176   4.964   4.985  14.975  0.6564  0.2640  0.6903
14254TIP3    H164177   4.987   5.073  14.947  1.3598 -0.1373 -0.0144
14254TIP3    H264178   4.974   4.931  14.897 -1.9445 -0.0778  0.5622
14255TIP3   OH264179   5.693   1.799   5.014  0.0193  0.3729 -0.7423
14255TIP3    H164180   5.598   1.793   5.025 -0.0130  1.0636 -0.6771
14255TIP3    H264181   5.705   1.830   4.925  0.1995 -0.2106 -0.9270
14256TIP3   OH264182   5.318   3.694   2.637  0.4760 -0.3717 -0.4043
14256TIP3    H164183   5.355   3.609   2.660  1.6024  0.2248  0.0482
14256TIP3    H264184   5.376   3.758   2.680 -0.5432  0.6115 -0.4684
14257TIP3   OH264185   6.339   5.404   5.958 -0.1543  0.5042  0.0476
14257TIP3    H164186   6.359   5.492   5.925  1.7637 -0.0973 -0.4171
14257TIP3    H264187   6.264   5.376   5.905 -0.6503  1.7532  0.0469
14258TIP3   OH264188   2.506   5.303   5.974  0.0017 -0.1613 -0.3772
14258TIP3    H164189   2.488   5.234   6.039  0.2898 -0.6436 -0.8004
14258TIP3    H264190   2.515   5.255   5.892  1.2304  0.2727 -0.5093
14259TIP3   OH264191   4.231   2.958  16.510 -0.1347  0.4786 -0.3286
14259TIP3    H164192   4.274   2.889  16.458 -0.0993  0.8776 -0.8298
14259TIP3    H264193   4.144   2.923  16.528  0.6256 -0.6284  1.2682
14260TIP3   OH264194   4.011   2.551  15.164  0.1076  0.4217  0.3535
14260TIP3    H164195   4.069   2.595  15.226 -0.8994  0.3714  1.3514
14260TIP3    H264196   3.935   2.525  15.216 -0.3261 -0.4882 -0.6958
14261TIP3   OH264197   5.398   0.611  12.381  0.0967  0.2432  1.0288
14261TIP3    H164198   5.306   0.601  12.403 -0.0324  0.0166  0.4030
14261TIP3    H264199   5.425   0.691  12.426 -0.3715  0.2448  1.3117
14262TIP3   OH264200   6.139   4.258  15.002  0.9732  0.2886 -0.1538
14262TIP3    H164201   6.097   4.298  15.078 -1.5788 -0.1513 -1.2856
14262TIP3    H264202   6.137   4.326  14.935 -0.5766 -0.6673 -1.1088
14263TIP3   OH264203   1.496   1.604   3.544  0.3939  0.6516 -0.4578
14263TIP3    H164204   1.450   1.688   3.553  0.4591  0.5015  1.5726
14263TIP3    H264205   1.542   1.594   3.627  1.1427 -0.9639 -1.0575
14264TIP3   OH264206   6.384   3.116   6.140  0.3274  0.0450  0.0750
14264TIP3    H164207   6.462   3.168   6.122 -1.1907  3.0107  1.7756
14264TIP3    H264208   6.394   3.087   6.231 -0.7101  0.7399  0.4151
14265TIP3   OH264209   6.398   5.014  11.614 -0.2119 -0.6777 -0.8153
14265TIP3    H164210   6.340   4.937  11.610 -0.0167 -0.8663 -0.0449
14265TIP3    H264211   6.369   5.069  11.542 -1.7104 -0.5177 -0.1064
14266TIP3   OH264212   6.701   4.504  13.833 -0.1710 -0.0134  0.3959
14266TIP3    H164213   6.751   4.537  13.758  1.4497  2.9750  2.6317
14266TIP3    H264214   6.613   4.538  13.819 -0.2137 -0.6174 -0.8386
14267TIP3   OH264215   6.646   5.438   6.064  0.0672  0.1535  0.2472
14267TIP3    H164216   6.642   5.515   6.121  0.4781  0.4264 -0.0970
14267TIP3    H264217   6.735   5.404   6.075  0.0643  0.0568 -0.0425
14268TIP3   OH264218   1.587   2.210  14.258 -0.8830 -0.9052  0.0203
14268TIP3    H164219   1.514   2.268  14.236  0.2369  1.0121  1.1628
14268TIP3    H264220   1.548   2.142  14.313 -1.7014  0.4373  1.1315
14269TIP3   OH264221   0.974   6.308  11.432 -0.2581 -0.2800  0.3031
14269TIP3    H164222   0.886   6.345  11.434 -0.2628 -0.2591 -0.1712
14269TIP3    H264223   1.026   6.370  11.381  0.4142  0.5049  1.9051
14270TIP3   OH264224   6.642   6.717  12.243 -0.0611  0.0185  0.3165
14270TIP3    H164225   6.608   6.807  12.244 -0.6154 -0.1430 -1.6388
14270TIP3    H264226   6.613   6.680  12.326 -2.6070  0.6570 -0.2253
14271TIP3   OH264227   0.187   4.000  12.339 -0.6859 -0.0586 -0.0317
14271TIP3    H164228   0.206   3.931  12.403  1.7818  1.3094  0.7501
14271TIP3    H264229   0.091   4.000  12.333 -0.8392 -2.0451  1.6106
14272TIP3   OH264230   2.851   1.025  11.354 -0.1130  0.1227 -0.3112
14272TIP3    H164231   2.858   0.939  11.313 -1.3844  0.3088 -0.9694
14272TIP3    H264232   2.894   1.016  11.439  3.8149  0.0951 -2.2316
14273TIP3   OH264233   0.956   4.738  15.950 -0.1230 -0.0267 -0.1726
14273TIP3    H164234   0.896   4.730  15.876  0.1187  0.8166 -0.4649
14273TIP3    H264235   1.043   4.726  15.912 -0.0591 -0.5841  0.1433
14274TIP3   OH264236   6.693   3.790  16.120 -0.2101  0.6808  0.4945
14274TIP3    H164237   6.614   3.748  16.086  1.5931 -0.6842 -2.1437
14274TIP3    H264238   6.678   3.797  16.215 -3.2508 -0.0049  0.0983
14275TIP3   OH264239   5.291   3.126   5.264 -0.0671  0.1923  0.0673
14275TIP3    H164240   5.341   3.046   5.250  0.2203  0.5942 -1.2989
14275TIP3    H264241   5.239   3.109   5.342  0.7295 -0.9593  0.3514
14276TIP3   OH264242   0.432   5.022  12.595 -0.0802  0.8257  0.4689
14276TIP3    H164243   0.343   5.051  12.612 -1.0428 -1.3086 -0.6753
14276TIP3    H264244   0.447   4.950  12.657  0.3956  0.3844 -0.1425
14277TIP3   OH264245   1.100   6.053  12.098  0.4728  0.6361  0.1702
14277TIP3    H164246   1.065   6.015  12.017  1.2986 -0.3068  0.2437
14277TIP3    H264247   1.053   6.008  12.168  0.0427  1.1677  0.2253
14278TIP3   OH264248   6.177   1.624  12.214 -0.0450 -0.1092  0.2397
14278TIP3    H164249   6.227   1.555  12.172 -0.3618  1.7034 -3.2516
14278TIP3    H264250   6.121   1.660  12.146 -1.4357  2.1978  2.4679
14279TIP3   OH264251   6.702   3.379  15.756  0.1305  0.1826  0.3239
14279TIP3    H164252   6.755   3.439  15.808  0.6501  0.3654 -0.4016
14279TIP3    H264253   6.647   3.436  15.702  0.1620  0.0055  0.1007
14280TIP3   OH264254   3.380   5.374   1.771  0.3566  0.4317 -0.2651
14280TIP3    H164255   3.344   5.446   1.720 -0.3905  0.9524  0.9702
14280TIP3    H264256   3.428   5.416   1.843 -0.8127 -0.2840  0.9629
14281TIP3   OH264257   4.339   5.466   6.078 -0.4791 -0.0774 -0.0816
14281TIP3    H164258   4.314   5.373   6.076 -0.8306  0.0239 -0.7964
14281TIP3    H264259   4.292   5.502   6.152 -1.0363 -0.2840 -0.3317
14282TIP3   OH264260   6.032   0.319   5.435  0.5589 -0.1556  0.5159
14282TIP3    H164261   6.033   0.407   5.473  0.1705 -1.3444  3.3761
14282TIP3    H264262   5.947   0.312   5.393  0.0901  0.4052  1.3469
14283TIP3   OH264263   4.753   6.039  10.773 -0.3156 -0.5194 -0.1073
14283TIP3    H164264   4.818   6.060  10.840 -0.7895  0.2202  0.1246
14283TIP3    H264265   4.789   6.074  10.692 -0.3863 -0.1855  0.0055
14284TIP3   OH264266   0.461   1.930   5.395  0.5307 -0.3690 -0.2040
14284TIP3    H164267   0.500   1.986   5.328 -0.8947  2.3921  1.1805
14284TIP3    H264268   0.471   1.841   5.361  2.1113  0.7697 -2.8668
14285TIP3   OH264269   4.681   0.647   5.666 -0.2784 -0.5756  0.0140
14285TIP3    H164270   4.773   0.632   5.688 -0.7362 -2.8761  0.5862
14285TIP3    H264271   4.645   0.558   5.656 -2.8892  0.2396  1.7595
14286TIP3   OH264272   2.410   4.154   3.192  0.1389 -0.1201  0.0202
14286TIP3    H164273   2.364   4.237   3.180 -0.4020 -0.2442  1.1576
14286TIP3    H264274   2.493   4.178   3.233  0.0663 -0.1190  0.1671
14287TIP3   OH264275   2.038   6.247   4.958 -0.1846  0.4226 -0.1644
14287TIP3    H164276   2.041   6.164   4.910 -0.7897  0.1046  0.3456
14287TIP3    H264277   2.022   6.222   5.049  2.0638  0.9537  0.4062
14288TIP3   OH264278   0.317   2.932  15.480 -0.5714 -0.5140 -0.2988
14288TIP3    H164279   0.257   2.931  15.406 -1.6825  0.2386  0.5697
14288TIP3    H264280   0.302   3.016  15.523  2.7705  0.6937 -1.3618
14289TIP3   OH264281   6.695   6.705  14.413  0.7067 -0.1027 -0.6245
14289TIP3    H164282   6.713   6.777  14.474  1.3372 -0.1838 -0.7086
14289TIP3    H264283   6.605   6.720  14.385  0.3226 -0.1955  0.5026
14290TIP3   OH264284   4.400   3.120  12.209  0.5824  0.5363 -0.2825
14290TIP3    H164285   4.398   3.164  12.124  0.7820  3.1720  1.0214
14290TIP3    H264286   4.490   3.089  12.219  1.1732  2.2687 -0.0598
14291TIP3   OH264287   6.099   4.637   5.298  0.1061  0.6228 -0.0211
14291TIP3    H164288   6.080   4.568   5.234 -0.7960  0.0000  0.8935
14291TIP3    H264289   6.170   4.687   5.259 -0.0698 -0.0700 -1.2707
14292TIP3   OH264290   2.056   6.424   6.868 -0.1446  0.4624  0.6106
14292TIP3    H164291   2.058   6.520   6.862  0.3560  0.4721  0.9243
14292TIP3    H264292   1.970   6.400   6.832  0.6701  0.8659 -1.6644
14293TIP3   OH264293   0.215   4.408  15.866 -0.2104  0.3335  0.0926
14293TIP3    H164294   0.286   4.462  15.833 -1.2156 -0.0976 -2.9672
14293TIP3    H264295   0.258   4.330  15.903  0.9764  0.9331 -0.0197
14294TIP3   OH264296   6.648   2.968  14.084 -0.0541  0.3427 -0.0092
14294TIP3    H164297   6.644   2.877  14.053 -3.8333 -0.0238  1.2337
14294TIP3    H264298   6.727   2.972  14.137 -0.3178 -2.5165  0.7010
14295TIP3   OH264299   1.398   4.303   1.245 -0.4448  0.1375 -0.4161
14295TIP3    H164300   1.428   4.231   1.190 -0.8267  0.7696 -1.4591
14295TIP3    H264301   1.469   4.367   1.241  0.7010 -0.9427  1.9756
14296TIP3   OH264302   2.116   3.857  10.940 -0.4618 -0.7087  0.6808
14296TIP3    H164303   2.047   3.906  10.985  0.3437  0.1499  0.9934
14296TIP3    H264304   2.195   3.911  10.950 -0.3290 -0.3283 -2.0383
14297TIP3   OH264305   3.345   4.192   0.413  0.3738 -0.8367  0.0952
14297TIP3    H164306   3.410   4.186   0.484  0.6484 -0.9263 -0.1652
14297TIP3    H264307   3.304   4.277   0.426  1.3421 -0.2865 -0.4372
14298TIP3   OH264308   0.029   3.412   3.213 -0.6093 -0.0334 -0.2329
14298TIP3    H164309  -0.059   3.404   3.249 -0.7135 -0.3315 -0.5517
14298TIP3    H264310   0.058   3.321   3.200 -0.3744  0.0673 -0.4199
14299TIP3   OH264311   5.927   3.129   2.607 -0.6919 -0.0449 -0.5359
14299TIP3    H164312   5.904   3.174   2.525 -0.0150  0.0669 -0.6687
14299TIP3    H264313   5.882   3.178   2.675 -1.5979 -0.3880 -0.8829
14300TIP3   OH264314   0.272   1.059   1.003 -0.1217 -0.1403 -0.6381
14300TIP3    H164315   0.309   1.136   1.046  1.3409 -0.6562 -0.9456
14300TIP3    H264316   0.303   1.064   0.913 -0.4308 -0.8132 -0.7894
14301TIP3   OH264317   1.268   4.634  16.587 -0.3562 -0.1548  0.2990
14301TIP3    H164318   1.353   4.637  16.543 -2.9624 -0.7609 -5.1472
14301TIP3    H264319   1.251   4.540  16.600 -0.7458 -0.0827  0.3202
14302TIP3   OH264320   4.356   0.826  14.755 -0.2346  0.1456  0.0627
14302TIP3    H164321   4.369   0.919  14.770  0.3942 -0.2196  2.0183
14302TIP3    H264322   4.313   0.820  14.670 -0.1591  2.2009 -0.1289
14303TIP3   OH264323   5.075   1.963  14.573 -0.3536 -0.0882  0.4748
14303TIP3    H164324   5.163   1.986  14.602 -0.3363 -0.5001  0.7622
14303TIP3    H264325   5.088   1.888  14.515 -0.6617 -1.2616  1.9037
14304TIP3   OH264326   2.458   2.137   2.780 -0.6782  0.5724  0.2606
14304TIP3    H164327   2.505   2.145   2.697 -1.6586 -1.2895 -0.5112
14304TIP3    H264328   2.512   2.076   2.831  0.8870  3.0978  1.7492
14305TIP3   OH264329   3.762   6.072   5.975  0.2921  0.4992 -0.1339
14305TIP3    H164330   3.824   6.086   5.903  0.3963  0.1243 -0.1173
14305TIP3    H264331   3.686   6.126   5.952  1.9277  3.6399  1.4859
14306TIP3   OH264332   6.425   3.111   2.886  0.2138 -0.2369  0.5905
14306TIP3    H164333   6.344   3.124   2.936 -1.0542 -0.6190 -1.2877
14306TIP3    H264334   6.495   3.115   2.951 -1.1124  2.6139  1.9462
14307TIP3   OH264335   2.437   2.918  11.450 -0.2353  0.0485  0.7275
14307TIP3    H164336   2.400   2.920  11.362 -1.6629 -1.1432  1.2916
14307TIP3    H264337   2.509   2.981  11.447  0.3509 -0.6938 -1.5648
14308TIP3   OH264338   5.149   4.481   5.383 -0.3003  0.1367 -0.2331
14308TIP3    H164339   5.129   4.548   5.318 -1.2218 -2.0332 -2.2701
14308TIP3    H264340   5.066   4.466   5.428 -0.0582  0.4727  0.3236
14309TIP3   OH264341   4.296   1.852   4.825 -0.2557 -0.4435  0.8068
14309TIP3    H164342   4.319   1.923   4.885  0.7352 -0.4854  0.4921
14309TIP3    H264343   4.282   1.895   4.741  2.6168 -0.8491  0.0745
14310TIP3   OH264344   1.415   3.548   3.950 -0.4170 -0.1145  0.2317
14310TIP3    H164345   1.380   3.482   4.009  1.1456 -0.5896  0.6295
14310TIP3    H264346   1.418   3.505   3.865 -0.7733 -0.0725  0.1957
14311TIP3   OH264347   0.545   2.176  14.960 -0.4966  0.0259 -0.6452
14311TIP3    H164348   0.498   2.096  14.936 -3.1126  1.5820 -0.9002
14311TIP3    H264349   0.564   2.166  15.053 -4.0124  0.6015  0.1961
14312TIP3   OH264350   2.630   3.886   5.071  0.1905 -0.3149 -0.2733
14312TIP3    H164351   2.619   3.964   5.017 -0.6444 -0.3625 -0.1878
14312TIP3    H264352   2.666   3.820   5.013  0.4216 -0.0084 -0.4732
14313TIP3   OH264353   4.303   0.585  11.735  0.3843  0.2167 -0.0556
14313TIP3    H164354   4.266   0.673  11.729  0.3121  0.5819  4.0575
14313TIP3    H264355   4.228   0.529  11.757  0.9862 -0.3198  0.6388
14314TIP3   OH264356   5.752   6.358   0.770 -0.1650 -0.1086 -0.5479
14314TIP3    H164357   5.679   6.352   0.707 -0.0660  0.4716 -0.7228
14314TIP3    H264358   5.788   6.445   0.756 -0.2938  0.1170  0.4938
14315TIP3   OH264359   1.360   4.203   4.724  0.3160 -0.5260  0.0243
14315TIP3    H164360   1.349   4.259   4.801  0.1006 -0.7642  0.1660
14315TIP3    H264361   1.356   4.114   4.758 -1.7854 -0.6636 -0.5221
14316TIP3   OH264362   4.610   0.451   3.895  0.5708 -0.2619 -0.4793
14316TIP3    H164363   4.684   0.455   3.956  0.4113  1.9216 -0.3706
14316TIP3    H264364   4.647   0.415   3.814  1.7202  0.6291 -0.3630
14317TIP3   OH264365   1.351   2.278   0.884  0.4466  0.6047 -0.2251
14317TIP3    H164366   1.336   2.217   0.956 -2.0283  1.5405  0.0762
14317TIP3    H264367   1.306   2.358   0.909 -1.0402  0.7253 -3.0723
14318TIP3   OH264368   2.748   0.228   1.021  0.1608  0.1409  0.0369
14318TIP3    H164369   2.809   0.162   1.055  1.2543 -0.0208 -2.1814
14318TIP3    H264370   2.674   0.177   0.988 -0.3987  0.2391  1.0925
14319TIP3   OH264371   6.613   6.707   3.476 -0.0861 -0.2302  0.4722
14319TIP3    H164372   6.679   6.775   3.470  0.6330 -0.9470  0.2374
14319TIP3    H264373   6.655   6.636   3.525 -0.9776 -0.3372  1.1115
14320TIP3   OH264374   0.571   1.951   1.358 -0.0445 -0.0534  0.5501
14320TIP3    H164375   0.514   1.947   1.282 -0.3519  0.1395  0.7654
14320TIP3    H264376   0.656   1.920   1.327  0.0828  0.9173 -0.1053
14321TIP3   OH264377   6.428   3.235  11.751  0.5275  0.3461 -0.6325
14321TIP3    H164378   6.420   3.220  11.845  1.0799 -1.9280 -0.9229
14321TIP3    H264379   6.338   3.241  11.720  0.3074 -0.5069 -0.1877
14322TIP3   OH264380   4.933   3.242  12.188  0.6211 -0.2895  0.1405
14322TIP3    H164381   4.902   3.295  12.114 -0.6878 -0.9138  0.2182
14322TIP3    H264382   4.873   3.264  12.259  2.1637  0.6626  1.1709
14323TIP3   OH264383   4.356   3.250   4.823 -0.1597  0.3066 -0.4923
14323TIP3    H164384   4.267   3.221   4.803 -0.8873  2.2659 -0.2452
14323TIP3    H264385   4.401   3.172   4.853 -1.9598 -0.6095 -0.1191
14324TIP3   OH264386   1.310   3.912   5.598  0.2446  0.4458  0.3589
14324TIP3    H164387   1.232   3.858   5.610 -0.4301  0.9888 -1.4351
14324TIP3    H264388   1.305   3.978   5.667 -1.2239  0.8695 -0.1346
14325TIP3   OH264389   0.619   3.263  16.545 -0.3906  0.3414 -0.1496
14325TIP3    H164390   0.550   3.319  16.580 -0.7937  0.2008 -0.7064
14325TIP3    H264391   0.578   3.177  16.536 -0.7527  0.6931 -2.3262
14326TIP3   OH264392   2.080   5.517   4.407  0.2625 -0.1020  0.7210
14326TIP3    H164393   2.024   5.487   4.479 -0.6068 -0.3872 -0.0638
14326TIP3    H264394   2.028   5.500   4.328  0.7689  1.1840  0.0944
14327TIP3   OH264395   4.512   0.761  11.224 -0.2998 -0.1521 -0.3073
14327TIP3    H164396   4.553   0.713  11.152 -0.8191 -1.6907  0.4214
14327TIP3    H264397   4.419   0.745  11.215 -0.3520 -0.5250  0.8371
14328TIP3   OH264398   1.849   5.172   4.351  0.5873 -0.4260 -0.4554
14328TIP3    H164399   1.870   5.239   4.286 -0.0407  0.5357  0.3170
14328TIP3    H264400   1.753   5.171   4.355  0.5763 -1.7618 -0.8514
14329TIP3   OH264401   4.303   3.524  16.413  0.2297  0.8512 -0.0598
14329TIP3    H164402   4.390   3.548  16.381  1.1769 -1.5970  0.5071
14329TIP3    H264403   4.255   3.498  16.334  0.5649  0.6544 -0.2013
14330TIP3   OH264404   4.377   1.775  12.205  0.1837 -0.3277 -0.2032
14330TIP3    H164405   4.400   1.737  12.121  2.1712 -0.1802  0.2612
14330TIP3    H264406   4.385   1.703  12.267 -0.8500 -0.3308 -0.0674
14331TIP3   OH264407   0.981   1.789   4.295 -0.8715 -0.2278 -0.0718
14331TIP3    H164408   0.895   1.783   4.253 -1.2429 -1.3071  0.7965
14331TIP3    H264409   0.960   1.811   4.386 -0.2758 -1.3200  0.3306
14332TIP3   OH264410   1.742   3.780  11.441  0.2955  0.2655 -1.0799
14332TIP3    H164411   1.753   3.875  11.440 -0.1842  0.3309 -0.1818
14332TIP3    H264412   1.754   3.755  11.532  0.3128 -0.5303 -1.2975
14333TIP3   OH264413   1.815   1.698   4.557 -0.6262 -0.2293 -0.0895
14333TIP3    H164414   1.859   1.761   4.613 -1.3566  1.0146 -0.9112
14333TIP3    H264415   1.723   1.704   4.581 -0.6752 -1.1730  0.0066
14334TIP3   OH264416   5.241   0.319   2.660  0.0959  0.6597  0.6840
14334TIP3    H164417   5.321   0.369   2.646 -0.7907  1.9021 -0.0045
14334TIP3    H264418   5.242   0.299   2.754  0.6250  1.6906  0.9056
14335TIP3   OH264419   1.945   6.136   1.522 -0.0155  0.2063 -0.5436
14335TIP3    H164420   1.909   6.207   1.575  0.8497 -1.3115  2.2309
14335TIP3    H264421   1.889   6.061   1.543  0.6473 -0.5482 -1.4402
14336TIP3   OH264422   3.117   0.520  14.617  0.9271  0.0893  0.3912
14336TIP3    H164423   3.134   0.521  14.523  0.5701  0.1711  0.3273
14336TIP3    H264424   3.184   0.577  14.654  0.5979  0.6606  0.1073
14337TIP3   OH264425   4.253   4.149   5.702 -0.1474  0.2457 -1.0240
14337TIP3    H164426   4.233   4.206   5.776  2.3872  0.4832 -0.4920
14337TIP3    H264427   4.189   4.077   5.709 -1.4809  1.4971 -0.0292
14338TIP3   OH264428   0.902   1.961   5.835  0.5141 -0.2169  0.0736
14338TIP3    H164429   0.856   2.039   5.867  0.8714  0.0439 -0.0504
14338TIP3    H264430   0.876   1.892   5.896 -1.1711 -0.4051 -0.8082
14339TIP3   OH264431   3.821   4.584  14.639 -0.0313  0.2751 -0.1041
14339TIP3    H164432   3.755   4.545  14.583 -0.5394 -0.4655  0.9898
14339TIP3    H264433   3.772   4.626  14.710  0.6106  0.7493  0.0721
14340TIP3   OH264434   0.834   3.834   2.089  0.0774  0.0232 -0.0407
14340TIP3    H164435   0.751   3.786   2.094  0.0358  0.2622  2.0427
14340TIP3    H264436   0.901   3.769   2.112  0.3536  0.1249 -0.5499
14341TIP3   OH264437   0.715   4.118  11.342 -0.1306  0.3122 -0.6217
14341TIP3    H164438   0.650   4.188  11.344 -0.8106 -0.2361 -2.7071
14341TIP3    H264439   0.723   4.095  11.249  0.0740 -2.3885  0.0343
14342TIP3   OH264440   1.377   1.763   0.179  0.2858  0.5432  0.1745
14342TIP3    H164441   1.329   1.801   0.253  1.5925  0.7155  0.9362
14342TIP3    H264442   1.400   1.838   0.124  1.6486  0.7128  0.9663
14343TIP3   OH264443   3.296   5.457   3.529  0.3108  0.0362 -0.3473
14343TIP3    H164444   3.217   5.494   3.491  1.3771  2.4520 -0.2968
14343TIP3    H264445   3.276   5.364   3.541 -1.4440 -0.0150 -3.1267
14344TIP3   OH264446   5.540   3.343  13.739 -0.2413 -0.5545 -0.1292
14344TIP3    H164447   5.598   3.324  13.666  1.6054  1.0967  0.8742
14344TIP3    H264448   5.482   3.412  13.706  0.1924 -0.2443 -0.2521
14345TIP3   OH264449   4.174   2.137  11.893 -0.4888 -0.3715 -0.1902
14345TIP3    H164450   4.251   2.150  11.837 -0.2836 -3.0263 -0.6114
14345TIP3    H264451   4.210   2.104  11.975 -1.1597 -1.5866 -0.3747
14346TIP3   OH264452   1.530   0.579   4.070  0.0979  0.4492  0.0631
14346TIP3    H164453   1.585   0.579   4.148 -0.8163 -0.5304  0.7248
14346TIP3    H264454   1.455   0.634   4.093  0.0248  0.4924 -0.2739
14347TIP3   OH264455   1.799   0.669   2.298 -0.4587 -0.3959 -0.3655
14347TIP3    H164456   1.855   0.636   2.369  0.7205 -0.0563 -1.1137
14347TIP3    H264457   1.714   0.682   2.338  0.3757  0.4650  1.1640
14348TIP3   OH264458   5.873   0.213   1.290  0.1086 -0.0817  0.0639
14348TIP3    H164459   5.812   0.280   1.259 -2.8855 -1.6995  2.2544
14348TIP3    H264460   5.910   0.249   1.370 -1.2043 -0.8598  1.0296
14349TIP3   OH264461   2.794   0.748  11.481  0.0133 -0.0400 -0.1220
14349TIP3    H164462   2.798   0.678  11.545 -0.0107 -0.0810 -0.1661
14349TIP3    H264463   2.877   0.744  11.435 -0.3235 -0.5725 -0.6884
14350TIP3   OH264464   0.512   0.137  12.563 -0.1032 -0.4063  0.5380
14350TIP3    H164465   0.585   0.075  12.557  0.8933  0.8972 -1.2902
14350TIP3    H264466   0.457   0.117  12.488 -0.8615 -0.4140  1.0907
14351TIP3   OH264467   5.213   6.013   2.637 -0.4952 -0.4248 -0.1220
14351TIP3    H164468   5.236   6.031   2.546  1.3054 -0.5379  0.2846
14351TIP3    H264469   5.137   5.956   2.632 -0.6758 -0.0756 -1.5454
14352TIP3   OH264470   5.240   0.200  12.598 -0.0305 -0.4923 -0.4499
14352TIP3    H164471   5.246   0.161  12.686 -3.1860 -0.5967 -0.2254
14352TIP3    H264472   5.299   0.275  12.601 -1.5652  0.6909  2.4454
14353TIP3   OH264473   4.098   0.398  11.725  0.4512  0.9141  0.0003
14353TIP3    H164474   4.170   0.340  11.700  0.8062  1.2339  0.2835
14353TIP3    H264475   4.019   0.346  11.707  0.7167  0.9519 -1.3007
14354TIP3   OH264476   6.567   0.945  14.530  0.3763  0.2289  0.0802
14354TIP3    H164477   6.512   0.867  14.536 -1.0105  1.1042 -0.9400
14354TIP3    H264478   6.527   0.998  14.460  1.7895  1.4564  0.1672
14355TIP3   OH264479   5.285   5.913   4.779 -0.3564  0.1943  0.1869
14355TIP3    H164480   5.239   5.884   4.700  0.7800 -0.1688 -0.3577
14355TIP3    H264481   5.352   5.973   4.748 -1.3248  1.7677  1.1132
14356TIP3   OH264482   2.212   4.934   5.669 -0.3689 -0.2943 -0.0160
14356TIP3    H164483   2.306   4.928   5.685 -0.3117 -0.9044 -0.5570
14356TIP3    H264484   2.192   4.858   5.614 -1.4427 -1.0184  1.3483
14357TIP3   OH264485   2.456   6.752   1.965 -0.3538 -0.3506 -0.7686
14357TIP3    H164486   2.403   6.765   2.044  1.4882  0.9374  0.2898
14357TIP3    H264487   2.424   6.670   1.928 -2.4713 -0.0543  0.3278
14358TIP3   OH264488   6.011   5.568  12.643  0.3757 -0.2837  0.5485
14358TIP3    H164489   6.007   5.663  12.657 -0.5062 -0.0677 -1.1045
14358TIP3    H264490   6.097   5.554  12.603  0.3264 -0.1305  0.3897
14359TIP3   OH264491   5.419   2.141   1.934  1.0083 -0.0326  0.0076
14359TIP3    H164492   5.340   2.090   1.919  1.8419 -1.6825  1.1295
14359TIP3    H264493   5.459   2.149   1.847 -0.1453  0.4236 -0.4858
14360TIP3   OH264494   1.052   3.214  12.387 -0.1383 -0.3361  0.4587
14360TIP3    H164495   1.070   3.154  12.315  0.7024  0.7303 -0.2231
14360TIP3    H264496   0.978   3.175  12.433  0.4489 -1.9357  0.0661
14361TIP3   OH264497   6.543   5.731  15.135 -0.0831  0.1088  0.5734
14361TIP3    H164498   6.450   5.749  15.122  0.3800 -0.1336 -3.7097
14361TIP3    H264499   6.579   5.813  15.169 -0.9330  2.0724 -3.0668
14362TIP3   OH264500   5.295   1.110  10.414  0.3648  0.1529  0.6085
14362TIP3    H164501   5.373   1.152  10.376  0.4936 -0.2811  0.3889
14362TIP3    H264502   5.222   1.147  10.365  0.5551 -0.6828 -0.3409
14363TIP3   OH264503   2.911   1.425   4.037 -0.0932 -0.3185  0.6446
14363TIP3    H164504   3.005   1.414   4.049  0.0789  1.7236  1.4766
14363TIP3    H264505   2.901   1.446   3.944  0.2939 -0.4606  0.5722
14364TIP3   OH264506   2.144   4.739   3.542 -0.4684  0.2520  0.4503
14364TIP3    H164507   2.071   4.706   3.490  0.1278 -0.3488 -0.0094
14364TIP3    H264508   2.149   4.680   3.617  1.8095 -1.9291 -1.3347
14365TIP3   OH264509   3.912   3.905   2.180  0.0195  0.2425  0.5550
14365TIP3    H164510   3.946   3.994   2.197  0.5338 -0.1112  1.4359
14365TIP3    H264511   3.831   3.919   2.132  2.4386  1.0841 -3.5110
14366TIP3   OH264512   6.480   4.978   2.643  0.5659 -0.6609 -0.2998
14366TIP3    H164513   6.469   4.967   2.548  2.2548 -2.1053 -0.3504
14366TIP3    H264514   6.420   4.915   2.682  1.2966 -1.4551 -0.4443
14367TIP3   OH264515   5.013   2.244  13.931  0.4179 -0.1239 -0.4416
14367TIP3    H164516   5.034   2.293  14.011  0.9822 -0.8045 -0.1664
14367TIP3    H264517   4.960   2.305  13.879 -0.7142 -0.0009  0.8360
14368TIP3   OH264518   0.723   6.683   5.072 -0.1899  0.0131  0.3246
14368TIP3    H164519   0.777   6.703   5.148  1.5964 -1.9945 -0.3707
14368TIP3    H264520   0.771   6.720   4.998 -1.3327  0.9224  0.0183
14369TIP3   OH264521   4.365   3.367  12.540 -0.5837 -0.0750  0.3417
14369TIP3    H164522   4.391   3.357  12.448  1.1605  0.0445  0.8047
14369TIP3    H264523   4.332   3.457  12.546  1.5894  0.7470  0.3476
14370TIP3   OH264524   0.389   6.351   0.797  0.3804 -0.3899 -0.0284
14370TIP3    H164525   0.473   6.373   0.758 -1.0609  1.3140 -2.3209
14370TIP3    H264526   0.368   6.426   0.853 -0.9153  0.5797 -1.7474
14371TIP3   OH264527   3.483   3.415  11.267  0.5593 -0.0601 -0.0921
14371TIP3    H164528   3.502   3.437  11.176  0.6454 -0.0763 -0.0782
14371TIP3    H264529   3.566   3.425  11.312  0.3230  0.8415  0.1632
14372TIP3   OH264530   1.728   4.930  11.750  0.5760  0.1115 -0.4191
14372TIP3    H164531   1.759   5.019  11.731 -2.7589  0.9834 -2.1309
14372TIP3    H264532   1.722   4.926  11.845  0.1378  1.9268 -0.3628
14373TIP3   OH264533   2.490   2.798   0.037 -0.0139  0.3656  0.4568
14373TIP3    H164534   2.579   2.791   0.072  0.1304  0.1010  0.0369
14373TIP3    H264535   2.434   2.801   0.115  0.4708  2.2245  0.7617
14374TIP3   OH264536   5.934   0.852   2.999  0.1419  0.1555 -0.3580
14374TIP3    H164537   5.954   0.933   3.047  0.1919  0.2608 -0.5591
14374TIP3    H264538   5.844   0.864   2.969 -0.6024 -0.7364  1.4110
14375TIP3   OH264539   6.716   5.223  15.736  0.0190 -0.4072 -0.3972
14375TIP3    H164540   6.713   5.313  15.704 -0.4470  0.0630  0.9003
14375TIP3    H264541   6.749   5.172  15.663  0.5226  0.8589 -1.0686
14376TIP3   OH264542   0.739   3.151   1.313  0.2149 -0.3556  0.1004
14376TIP3    H164543   0.724   3.153   1.407 -0.8952 -0.4342 -0.0649
14376TIP3    H264544   0.651   3.157   1.275  0.5976 -1.0786 -0.9189
14377TIP3   OH264545   5.772   0.054   3.640  0.0853 -0.4092  0.5924
14377TIP3    H164546   5.802  -0.034   3.617 -1.5693 -0.5093 -1.3668
14377TIP3    H264547   5.837   0.112   3.600 -1.0589 -0.6741 -1.7310
14378TIP3   OH264548   2.690   3.213  10.620  0.3261 -0.1952  0.6028
14378TIP3    H164549   2.722   3.159  10.692  1.0236  0.2917  0.6592
14378TIP3    H264550   2.596   3.223  10.637  0.4960 -0.0369  1.4716
14379TIP3   OH264551   6.669   5.077   6.019 -0.0773 -0.4240  0.1026
14379TIP3    H164552   6.672   5.003   5.959  0.6246 -0.5626  0.3116
14379TIP3    H264553   6.760   5.091   6.046 -0.2766  0.1633  0.4874
14380TIP3   OH264554   3.556   1.663  16.985  0.5835 -0.8709 -0.2363
14380TIP3    H164555   3.469   1.624  16.990  0.8457 -1.4581 -0.2230
14380TIP3    H264556   3.607   1.618  17.052  0.5335  0.4170  0.6825
14381TIP3   OH264557   1.370   2.024  16.376 -0.2569 -0.3081 -0.2954
14381TIP3    H164558   1.279   2.047  16.392 -0.2335 -0.6994  0.4081
14381TIP3    H264559   1.372   1.998  16.284 -0.5646  1.0969 -0.7071
14382TIP3   OH264560   4.308   2.632  12.282 -0.3111  0.2714 -0.0287
14382TIP3    H164561   4.236   2.603  12.337 -1.0770  2.0466 -0.0769
14382TIP3    H264562   4.352   2.551  12.255 -1.7015 -0.7603  0.7759
14383TIP3   OH264563   4.808   2.803  11.996 -0.6933  0.3679 -0.7069
14383TIP3    H164564   4.760   2.750  11.933 -0.3571 -1.4526  0.5276
14383TIP3    H264565   4.776   2.772  12.081  1.4355  0.3060  0.0866
14384TIP3   OH264566   0.483   4.896   1.275  0.2624 -0.3333 -0.2258
14384TIP3    H164567   0.578   4.902   1.269  0.1839 -0.0375 -1.3660
14384TIP3    H264568   0.453   4.904   1.184 -0.8574 -0.2161  0.1460
14385TIP3   OH264569   2.450   1.386   0.135  0.2495  0.4296  0.1274
14385TIP3    H164570   2.440   1.452   0.204 -0.2002  0.4275  0.0642
14385TIP3    H264571   2.361   1.354   0.119  0.3852  0.2571 -0.2864
14386TIP3   OH264572   5.130   0.932   0.621 -0.7993 -0.0475  0.1553
14386TIP3    H164573   5.213   0.915   0.577  0.2792  1.4799  1.5460
14386TIP3    H264574   5.089   0.846   0.631  0.5487 -0.7914 -0.6507
14387TIP3   OH264575   1.587   4.348   3.040 -0.1278 -0.1950 -0.3104
14387TIP3    H164576   1.551   4.399   2.967 -1.0015 -0.9192 -0.3960
14387TIP3    H264577   1.666   4.395   3.066 -1.4772  1.8049  0.3064
14388TIP3   OH264578   0.546   3.814  13.731  0.2961  0.6984 -0.0097
14388TIP3    H164579   0.574   3.887  13.785  0.1614 -0.0860  1.1399
14388TIP3    H264580   0.509   3.854  13.652  2.0156  1.8014 -0.2605
14389TIP3   OH264581   4.377   5.244   1.258 -0.5808  0.2946 -0.0809
14389TIP3    H164582   4.422   5.232   1.174  0.4919 -0.0000  0.5214
14389TIP3    H264583   4.412   5.326   1.292  0.7058 -0.7403  1.1315
14390TIP3   OH264584   0.909   4.552  11.357  0.0097  0.2737  0.4761
14390TIP3    H164585   0.979   4.525  11.416 -0.4782  1.5304  1.6669
14390TIP3    H264586   0.900   4.480  11.296  0.0893 -1.3490  2.3326
14391TIP3   OH264587   5.962   3.336   0.631 -0.2853 -0.1619 -1.2655
14391TIP3    H164588   5.898   3.320   0.700  0.4260 -0.9105 -0.7564
14391TIP3    H264589   5.911   3.351   0.552 -1.2558  4.1219  0.0571
14392TIP3   OH264590   5.883   0.446  12.313  0.2128  0.2989  0.2264
14392TIP3    H164591   5.851   0.409  12.396  1.8158 -0.3515  0.5707
14392TIP3    H264592   5.896   0.370  12.256 -0.3931  0.7033 -0.4578
14393TIP3   OH264593   4.826   0.781   1.611  0.2160  0.1788  0.4036
14393TIP3    H164594   4.774   0.713   1.654  0.2475  0.6702  1.2397
14393TIP3    H264595   4.866   0.737   1.536 -0.6956 -0.4192  0.2675
14394TIP3   OH264596   1.404   0.898  14.070 -0.2913 -0.7927 -0.1902
14394TIP3    H164597   1.466   0.882  14.141  0.0350  0.3377 -0.1996
14394TIP3    H264598   1.323   0.856  14.098  0.7786 -3.2158 -0.6688
14395TIP3   OH264599   0.677   2.242  15.464 -0.4936  0.7833  0.1435
14395TIP3    H164600   0.598   2.286  15.432 -0.9243  0.0847  0.2384
14395TIP3    H264601   0.663   2.233  15.558 -0.6550 -0.0647  0.0376
14396TIP3   OH264602   4.058   4.167   4.965  0.4512 -0.2224  0.3048
14396TIP3    H164603   4.051   4.090   5.022  0.1164 -0.0021  0.5615
14396TIP3    H264604   3.968   4.198   4.957  0.5486 -0.0337 -0.0433
14397TIP3   OH264605   2.380   0.578   0.895  0.1578 -0.2890  1.0397
14397TIP3    H164606   2.419   0.604   0.812 -0.3114  0.8996  1.1753
14397TIP3    H264607   2.351   0.488   0.881  0.5488 -0.2739  0.0909
14398TIP3   OH264608   1.791   1.104   0.780 -0.2862 -0.0033  0.2390
14398TIP3    H164609   1.700   1.116   0.808 -0.1086  0.3272  0.6687
14398TIP3    H264610   1.805   1.174   0.715 -0.0881  0.4551  0.7702
14399TIP3   OH264611   4.373   2.123   0.018  0.4331  0.6097  0.0881
14399TIP3    H164612   4.315   2.051  -0.008 -1.7489  2.2800  0.1803
14399TIP3    H264613   4.342   2.149   0.105  1.2620  1.6192  0.0928
14400TIP3   OH264614   2.271   5.464   6.443  0.6310  0.1783  0.0999
14400TIP3    H164615   2.338   5.425   6.387 -0.7897  2.2564 -3.2054
14400TIP3    H264616   2.232   5.390   6.489  3.0954 -1.3970 -0.2451
14401TIP3   OH264617   3.556   3.418  16.150 -0.4565  0.7088  0.0186
14401TIP3    H164618   3.496   3.492  16.161 -0.2213  1.0953 -1.2440
14401TIP3    H264619   3.499   3.341  16.157 -1.3063  1.0918 -2.1789
14402TIP3   OH264620   2.322   2.151  12.616 -0.1930  0.3718 -0.3116
14402TIP3    H164621   2.297   2.191  12.532  0.7060  1.4971 -0.0553
14402TIP3    H264622   2.414   2.127  12.604 -0.3194 -0.2964  0.0442
14403TIP3   OH264623   3.373   6.443   4.959  0.3864  0.0292 -0.2732
14403TIP3    H164624   3.322   6.522   4.943  0.0374  0.0213  0.7709
14403TIP3    H264625   3.321   6.393   5.021  0.8850 -0.7517 -0.4770
14404TIP3   OH264626   1.021   3.294  15.618 -0.3105  0.3815 -0.0605
14404TIP3    H164627   0.972   3.293  15.700  1.4756 -1.0044  1.0390
14404TIP3    H264628   1.073   3.374  15.622  1.5872 -0.8532  1.3415
14405TIP3   OH264629   5.076   0.233  15.040 -0.1228 -0.0686 -0.0957
14405TIP3    H164630   5.101   0.147  15.074 -0.9817 -0.9201 -1.5553
14405TIP3    H264631   4.983   0.224  15.019 -0.2329  1.2445 -0.1917
14406TIP3   OH264632   1.977   1.869  14.954  0.7635 -0.2643 -0.4532
14406TIP3    H164633   2.044   1.904  14.894 -0.5827  1.3803 -1.0287
14406TIP3    H264634   1.939   1.795  14.906  1.1916 -0.3363 -0.6927
14407TIP3   OH264635   1.737   4.333  13.062  0.0574 -0.4019  0.2938
14407TIP3    H164636   1.722   4.247  13.024 -1.1146 -0.1210  0.0942
14407TIP3    H264637   1.695   4.329  13.148  1.1271 -0.4505  0.8161
14408TIP3   OH264638   2.629   5.006   2.305 -0.4176  0.2035  0.4821
14408TIP3    H164639   2.682   5.076   2.344  0.3657  0.0725 -0.3320
14408TIP3    H264640   2.624   4.940   2.374  3.5320 -1.3751 -0.5973
14409TIP3   OH264641   1.591   1.270  11.117  0.4728  0.4852 -0.4608
14409TIP3    H164642   1.566   1.270  11.025  1.2033 -1.2232 -0.6804
14409TIP3    H264643   1.656   1.340  11.124  1.1405 -0.0232 -1.4569
14410TIP3   OH264644   4.391   0.843  15.918 -0.0966 -0.3462 -0.5551
14410TIP3    H164645   4.469   0.899  15.908 -1.2016  1.4801  0.7872
14410TIP3    H264646   4.322   0.903  15.947 -1.3360 -2.4067  0.8780
14411TIP3   OH264647   2.792   2.076  11.188  0.2940 -0.1549 -0.1373
14411TIP3    H164648   2.799   1.988  11.226 -2.6566 -0.6590 -0.6083
14411TIP3    H264649   2.770   2.060  11.096  1.7977  1.0811 -0.7259
14412TIP3   OH264650   2.726   4.547  12.556  0.1282 -0.6273  0.0598
14412TIP3    H164651   2.787   4.503  12.614  0.8045  0.7925  0.4600
14412TIP3    H264652   2.780   4.584  12.487 -0.3836 -0.2034 -0.1184
14413TIP3   OH264653   2.160   3.829   2.347  0.8043  0.0225 -0.0345
14413TIP3    H164654   2.097   3.896   2.374  1.3629  1.4440 -2.1922
14413TIP3    H264655   2.107   3.750   2.337 -0.6664  1.1775 -1.7596
14414TIP3   OH264656   4.884   0.565  12.181  0.1692 -0.1513  0.0035
14414TIP3    H164657   4.823   0.614  12.126  0.5661  1.6958  1.1370
14414TIP3    H264658   4.964   0.559  12.128  0.3322  1.0356  0.0988
14415TIP3   OH264659   4.098   3.878  15.806  0.5345 -0.3539  0.1827
14415TIP3    H164660   4.182   3.844  15.838  0.6226  0.0118  0.3413
14415TIP3    H264661   4.109   3.881  15.711  0.5097 -0.8121  0.1670
14416TIP3   OH264662   1.809   3.911   1.472 -0.3623  0.1680 -0.7341
14416TIP3    H164663   1.846   3.964   1.543  0.1783 -0.9854 -0.1386
14416TIP3    H264664   1.722   3.886   1.504  0.8095 -2.3933  0.6271
14417TIP3   OH264665   2.407   2.591   4.537  0.3987 -0.0658 -0.4185
14417TIP3    H164666   2.501   2.584   4.555  0.5250 -1.7183 -1.5799
14417TIP3    H264667   2.400   2.663   4.474  0.4378  2.5816  2.4702
14418TIP3   OH264668   5.736   3.118   2.006  0.3140  0.0153  0.0242
14418TIP3    H164669   5.661   3.144   2.060 -1.2447 -1.3669 -1.4208
14418TIP3    H264670   5.701   3.052   1.946  2.5991 -0.3437 -0.9749
14419TIP3   OH264671   6.430   5.287   1.880  0.2638  0.0476  0.2450
14419TIP3    H164672   6.373   5.223   1.838 -0.4506 -1.2412  3.0387
14419TIP3    H264673   6.398   5.372   1.850 -1.3621 -0.7784 -0.3866
14420TIP3   OH264674   4.890   4.802  11.895 -0.0710 -0.8183 -0.0153
14420TIP3    H164675   4.908   4.886  11.937  1.5426 -1.4172  0.5350
14420TIP3    H264676   4.822   4.822  11.830 -3.4188 -0.0526  3.5493
14421TIP3   OH264677   2.800   2.388   1.461 -0.3034  0.5238 -0.4710
14421TIP3    H164678   2.862   2.364   1.393 -0.8116  1.8111 -1.4112
14421TIP3    H264679   2.762   2.305   1.490  1.4912 -0.2376 -0.2074
14422TIP3   OH264680   5.096   1.543   2.455 -0.0772 -0.6322 -0.1673
14422TIP3    H164681   5.037   1.521   2.383  0.2975 -1.2585 -0.2896
14422TIP3    H264682   5.178   1.498   2.433 -0.2768 -1.6613  1.1508
14423TIP3   OH264683   2.750   0.949  11.914 -0.4521 -0.2931 -0.8935
14423TIP3    H164684   2.655   0.943  11.920 -0.8958  4.8631 -0.6401
14423TIP3    H264685   2.766   1.016  11.847  2.8179  2.0747  2.0428
14424TIP3   OH264686   2.911   5.654  15.111  0.4252 -0.1062 -0.2547
14424TIP3    H164687   2.924   5.627  15.202 -2.1344 -0.8985 -0.0979
14424TIP3    H264688   2.954   5.586  15.060  0.5371 -0.4658  0.3122
14425TIP3   OH264689   1.832   4.497   3.060  0.6962 -0.6883  0.0984
14425TIP3    H164690   1.830   4.481   2.965 -0.9863  0.9793 -0.1899
14425TIP3    H264691   1.896   4.568   3.071 -0.8377  0.7773 -0.1161
14426TIP3   OH264692   1.659   4.003   0.145 -0.0120 -0.0105 -0.2050
14426TIP3    H164693   1.657   4.093   0.177 -0.5289 -0.1002  0.0280
14426TIP3    H264694   1.608   4.005   0.064  1.3554  0.2334 -1.0753
14427TIP3   OH264695   4.720   4.499   2.393  0.1707 -0.0751  0.2723
14427TIP3    H164696   4.636   4.466   2.424  0.4183  0.7028  1.8282
14427TIP3    H264697   4.742   4.570   2.454  0.6501  1.5462 -1.7230
14428TIP3   OH264698   5.658   4.987  11.348 -0.8176  0.4443  0.2550
14428TIP3    H164699   5.631   4.895  11.346 -2.2600  0.8573 -0.1979
14428TIP3    H264700   5.753   4.984  11.340 -0.9161 -0.9700 -0.6406
14429TIP3   OH264701   6.347   3.007  14.909 -0.0116 -0.5946  0.4858
14429TIP3    H164702   6.329   3.088  14.957 -1.6763 -0.2587 -0.6590
14429TIP3    H264703   6.424   3.028  14.856  0.5563 -0.3037  1.4020
14430TIP3   OH264704   5.151   4.092  11.922  0.0106  0.5086 -0.1669
14430TIP3    H164705   5.178   4.126  11.837 -1.4713  1.6237 -0.2082
14430TIP3    H264706   5.066   4.133  11.939 -0.9783 -1.7794  0.6281
14431TIP3   OH264707   4.048   5.706   3.302 -0.0212  0.2210  0.1333
14431TIP3    H164708   4.025   5.772   3.367  0.2681  0.9590 -0.5006
14431TIP3    H264709   3.967   5.691   3.253 -0.6503 -1.4700  1.6293
14432TIP3   OH264710   5.299   0.561  14.861 -0.2010  0.1751  0.2026
14432TIP3    H164711   5.346   0.481  14.840 -0.0510  0.4104 -0.3802
14432TIP3    H264712   5.301   0.612  14.780  2.3136  2.0662  1.3602
14433TIP3   OH264713   4.495   1.672   2.886  0.1158 -0.1626  0.2646
14433TIP3    H164714   4.578   1.707   2.918 -0.0012  1.0693 -0.7711
14433TIP3    H264715   4.471   1.728   2.813 -1.2356 -1.0037  0.0389
14434TIP3   OH264716   5.073   2.599  14.453 -0.2864 -0.1921  0.0466
14434TIP3    H164717   5.143   2.663  14.441 -0.4083 -0.0039  0.3256
14434TIP3    H264718   5.109   2.535  14.515 -0.2935 -0.1955  0.0468
14435TIP3   OH264719   5.784   2.239  12.333  0.0924  0.1600  0.0706
14435TIP3    H164720   5.762   2.224  12.241  1.2326  1.2813 -0.3965
14435TIP3    H264721   5.878   2.254  12.333  0.5461 -2.3467  1.7614
14436TIP3   OH264722   1.553   5.297  15.827 -0.6551  0.2159  0.3618
14436TIP3    H164723   1.489   5.326  15.892  0.5197  0.2755  1.4992
14436TIP3    H264724   1.596   5.222  15.867  2.4221  2.2721  1.1170
14437TIP3   OH264725   5.965   4.011   0.151  0.0023  0.1654  0.0465
14437TIP3    H164726   6.040   3.956   0.129  0.3682 -0.0216  1.6784
14437TIP3    H264727   5.997   4.100   0.139  0.2215  0.0723 -0.0734
14438TIP3   OH264728   2.250   3.179   4.039  0.2650 -0.1320  0.4559
14438TIP3    H164729   2.278   3.097   3.998 -1.1787  0.0126 -0.8383
14438TIP3    H264730   2.157   3.166   4.058 -0.3638  1.7584 -1.1612
14439TIP3   OH264731   6.268   6.780  11.315 -0.0908 -0.0742  0.1495
14439TIP3    H164732   6.283   6.848  11.249  1.6422 -0.3073  0.2704
14439TIP3    H264733   6.346   6.724  11.310 -0.2349 -0.4737  1.9444
14440TIP3   OH264734   4.317   3.888  14.446 -0.0740 -0.5574  0.1264
14440TIP3    H164735   4.346   3.881  14.355 -2.1760 -2.1993 -0.4545
14440TIP3    H264736   4.242   3.947  14.443  2.1043  2.4244  1.3969
14441TIP3   OH264737   0.240   5.889  14.067 -0.7819 -0.0326  0.4188
14441TIP3    H164738   0.298   5.817  14.092  0.5273  0.6466 -0.5904
14441TIP3    H264739   0.153   5.860  14.094  0.0069 -1.1142  1.8785
14442TIP3   OH264740   4.089   4.773   4.725 -0.0742  0.0096  0.9625
14442TIP3    H164741   4.082   4.805   4.635 -0.2268  0.6122  1.1839
14442TIP3    H264742   4.052   4.685   4.722  0.6018 -0.2533  0.2880
14443TIP3   OH264743   0.341   5.567  12.713  0.1904  0.0229  0.0959
14443TIP3    H164744   0.392   5.497  12.753  0.9822  0.2284 -0.5174
14443TIP3    H264745   0.352   5.553  12.619  2.1138  2.1845 -0.0594
14444TIP3   OH264746   1.596   0.957  13.741 -0.9034  0.0964 -0.0056
14444TIP3    H164747   1.644   0.895  13.795 -1.8489 -0.5484  0.1106
14444TIP3    H264748   1.594   1.037  13.793  0.6153  0.3442 -0.3040
14445TIP3   OH264749   4.242   4.887   1.926  0.2642 -0.4544  0.1542
14445TIP3    H164750   4.295   4.808   1.928 -2.8309 -2.6719 -0.5032
14445TIP3    H264751   4.184   4.879   2.002 -0.9816  0.4735 -0.6751
14446TIP3   OH264752   4.013   4.109  16.390  0.5336 -0.3300  0.2405
14446TIP3    H164753   4.090   4.107  16.333  0.2625 -0.8490 -0.1113
14446TIP3    H264754   3.996   4.017  16.411  1.1960 -0.0914  1.9250
14447TIP3   OH264755   5.597   3.867   5.254 -0.2033  0.1783 -0.0447
14447TIP3    H164756   5.531   3.798   5.244 -0.8602  0.9758 -1.3639
14447TIP3    H264757   5.556   3.945   5.216  2.3913  0.1251 -3.1545
14448TIP3   OH264758   2.783   2.866  13.094 -0.1506 -0.2997 -0.0219
14448TIP3    H164759   2.722   2.794  13.077  1.8631 -1.5609 -1.9954
14448TIP3    H264760   2.806   2.900  13.008  2.4346 -0.2570  0.6466
14449TIP3   OH264761   0.020   4.050  13.219  0.5108  0.2344 -0.1620
14449TIP3    H164762  -0.027   3.982  13.268  0.6753 -0.7936 -1.4043
14449TIP3    H264763  -0.049   4.108  13.188  0.0958 -0.9083 -1.4299
14450TIP3   OH264764   4.688   2.679   3.163  0.3989  0.3527  0.0732
14450TIP3    H164765   4.780   2.656   3.173  0.1231 -0.8051 -0.0340
14450TIP3    H264766   4.640   2.606   3.202 -0.4757  0.8461 -0.0619
14451TIP3   OH264767   5.701   4.561   1.576 -0.1881  0.1736 -0.4271
14451TIP3    H164768   5.795   4.549   1.565 -0.1937 -0.1668 -0.1230
14451TIP3    H264769   5.683   4.648   1.540 -0.0711 -0.5455 -2.2355
14452TIP3   OH264770   4.994   3.019   0.004  0.3871 -0.5464 -0.8999
14452TIP3    H164771   4.972   3.112   0.008 -0.2820 -0.6538 -2.1300
14452TIP3    H264772   4.992   2.997  -0.089 -0.7570 -2.1047 -0.5220
14453TIP3   OH264773   6.648   3.573  13.187  0.0550  0.5541  0.4215
14453TIP3    H164774   6.628   3.500  13.129 -0.3985 -0.3643  1.7156
14453TIP3    H264775   6.740   3.593  13.170 -0.0260  0.1925 -0.4752
14454TIP3   OH264776   0.717   6.237  13.856 -0.7428  0.6200 -0.1641
14454TIP3    H164777   0.633   6.278  13.879 -1.7771 -0.9089 -1.0623
14454TIP3    H264778   0.728   6.168  13.922 -0.4559  0.5049 -0.3333
14455TIP3   OH264779   3.467   6.330   0.800  0.7082 -0.3123 -0.0759
14455TIP3    H164780   3.429   6.406   0.845  0.5471  0.0219 -0.7754
14455TIP3    H264781   3.450   6.346   0.707 -1.8381 -2.5698 -0.0564
14456TIP3   OH264782   5.903   6.017   2.585 -0.4384 -0.5168 -0.5934
14456TIP3    H164783   5.985   6.002   2.631 -0.9169 -1.7577 -0.1303
14456TIP3    H264784   5.856   6.080   2.639 -0.2363 -0.6041 -0.3143
14457TIP3   OH264785   6.588   2.979  12.721 -0.2223 -0.3531 -0.4024
14457TIP3    H164786   6.495   2.972  12.701 -0.4704 -1.2337  0.9826
14457TIP3    H264787   6.632   2.949  12.642 -1.1398 -0.8781 -0.7179
14458TIP3   OH264788   4.439   1.856  13.979 -0.1866  0.2157 -0.0678
14458TIP3    H164789   4.391   1.923  13.931 -1.0121 -1.7067 -2.0225
14458TIP3    H264790   4.530   1.884  13.975 -0.4611  1.0070 -1.2173
14459TIP3   OH264791   1.007   2.920   1.068 -0.3226 -0.4021  0.0257
14459TIP3    H164792   1.059   2.852   1.026  0.2114  0.4614 -0.7021
14459TIP3    H264793   1.034   2.918   1.160 -0.1611 -1.0260 -0.0343
14460TIP3   OH264794   2.085   1.282   2.344 -0.5895 -0.4958  0.4601
14460TIP3    H164795   2.090   1.188   2.325  0.2431 -0.2972 -0.3574
14460TIP3    H264796   2.097   1.324   2.259 -1.9778  0.3451  0.6691
14461TIP3   OH264797   4.910   3.964   3.520  0.4066  0.5041 -0.8569
14461TIP3    H164798   4.978   4.026   3.491  0.9984 -0.5332 -1.7071
14461TIP3    H264799   4.845   4.020   3.563  1.8525  1.4976  0.1050
14462TIP3   OH264800   4.404   5.811   0.305 -0.0166 -0.0227  0.3107
14462TIP3    H164801   4.488   5.788   0.345  0.2463  0.8765  0.2888
14462TIP3    H264802   4.339   5.763   0.356  0.4982 -0.6361  0.4002
14463TIP3   OH264803   6.134   6.566  12.816 -0.3912 -0.8463 -0.7272
14463TIP3    H164804   6.192   6.490  12.817 -0.7810 -1.1464 -0.2477
14463TIP3    H264805   6.188   6.638  12.848 -0.4465 -1.2459  0.2841
14464TIP3   OH264806   4.804   2.981  12.566 -0.7331 -1.0531 -0.1371
14464TIP3    H164807   4.714   3.013  12.554  0.0045  0.5115 -1.7644
14464TIP3    H264808   4.838   2.971  12.477  1.1239 -0.3605  0.4691
14465TIP3   OH264809   2.312   4.961  14.735 -0.5237  0.3480  0.2928
14465TIP3    H164810   2.257   5.039  14.735 -1.4437 -0.2873 -0.5740
14465TIP3    H264811   2.258   4.895  14.779 -0.3101 -0.1699 -0.2195
14466TIP3   OH264812   0.787   4.266  13.573  0.2220  0.5951  0.2930
14466TIP3    H164813   0.767   4.357  13.598 -0.4149  0.4108  0.4789
14466TIP3    H264814   0.856   4.239  13.633 -0.8672  0.3632  1.4784
14467TIP3   OH264815   3.216   4.901  13.006  0.7325  0.1008  0.0492
14467TIP3    H164816   3.148   4.961  12.976 -0.6132 -0.3152  2.1146
14467TIP3    H264817   3.255   4.945  13.081  0.3165 -1.1969  1.0573
14468TIP3   OH264818   3.294   0.819   5.154  0.0778  0.0719  0.2131
14468TIP3    H164819   3.378   0.803   5.111  0.0751 -0.8027  0.5214
14468TIP3    H264820   3.229   0.794   5.089  0.0671 -0.6018  0.4855
14469TIP3   OH264821   1.172   0.216  11.214  1.0663  0.2330 -0.1913
14469TIP3    H164822   1.200   0.188  11.127  1.8915  1.3076 -0.2780
14469TIP3    H264823   1.163   0.135  11.263 -1.4595 -0.5632 -1.8586
14470TIP3   OH264824   4.897   2.961  16.096 -0.2177 -0.0798  0.5278
14470TIP3    H164825   4.924   3.016  16.022  0.5122  1.6641  2.0562
14470TIP3    H264826   4.972   2.906  16.114  0.5846  1.3543  1.6492
14471TIP3   OH264827   5.031   5.756   1.315  0.3545  0.2431  0.1288
14471TIP3    H164828   4.949   5.736   1.360  1.8108 -1.7905  1.9729
14471TIP3    H264829   5.031   5.698   1.239 -0.2173  0.7467 -0.2620
14472TIP3   OH264830   6.100   6.325   5.119 -0.1321 -0.1039 -0.0107
14472TIP3    H164831   6.186   6.362   5.100  0.2832 -1.3883 -0.6938
14472TIP3    H264832   6.112   6.277   5.201 -0.5718  0.9311  0.6674
14473TIP3   OH264833   3.839   5.478  11.761  0.1106 -0.9117  0.0004
14473TIP3    H164834   3.832   5.553  11.701 -2.6192 -1.4093 -0.3710
14473TIP3    H264835   3.784   5.502  11.835 -0.3052 -2.3257  0.1482
14474TIP3   OH264836   3.577   4.295   1.520  0.3037  0.4243  0.9839
14474TIP3    H164837   3.656   4.320   1.568  0.7054  0.4180  0.3266
14474TIP3    H264838   3.557   4.370   1.465 -0.0473  0.3593  1.0231
14475TIP3   OH264839   3.884   2.764   4.089 -0.1326 -0.0746  0.0525
14475TIP3    H164840   3.812   2.828   4.086  0.0231  0.1331  0.7248
14475TIP3    H264841   3.885   2.726   4.001  0.9825  2.1719 -0.9346
14476TIP3   OH264842   4.789   4.144   5.446 -0.0562 -0.2707  0.2725
14476TIP3    H164843   4.714   4.196   5.474  0.6032  1.2473 -0.6922
14476TIP3    H264844   4.859   4.169   5.506  0.1957 -0.2172 -0.0392
14477TIP3   OH264845   3.907   1.533  15.361 -0.6247 -0.2044  0.3138
14477TIP3    H164846   3.917   1.596  15.433 -0.0792 -0.2673  0.2910
14477TIP3    H264847   3.850   1.465  15.398 -1.2234  0.2998  0.3355
14478TIP3   OH264848   6.302   1.346  12.639 -0.7785 -0.1493 -0.1283
14478TIP3    H164849   6.301   1.284  12.565 -2.8799  1.0810 -1.1775
14478TIP3    H264850   6.335   1.428  12.601  3.2611 -0.8878  1.5496
14479TIP3   OH264851   2.210   1.877  16.403  0.4859 -0.1926 -0.2114
14479TIP3    H164852   2.203   1.823  16.324  0.9108 -1.2232  0.4384
14479TIP3    H264853   2.176   1.821  16.473  0.5834  0.5302  0.4127
14480TIP3   OH264854   4.408   3.953   6.424 -0.1983  0.4989 -0.7005
14480TIP3    H164855   4.465   3.902   6.368 -0.9590  1.2969 -2.2496
14480TIP3    H264856   4.362   3.889   6.478  0.9764 -0.2368 -0.5773
14481TIP3   OH264857   2.573   3.002  12.302 -0.1945 -0.0014 -0.4010
14481TIP3    H164858   2.591   3.030  12.392  0.0187  1.3444 -0.8526
14481TIP3    H264859   2.535   3.079  12.260  0.2686 -0.4348 -1.6291
14482TIP3   OH264860   6.777   2.311  12.736  0.2105  0.2441  0.2942
14482TIP3    H164861   6.783   2.358  12.819  0.4672  0.7403 -0.0065
14482TIP3    H264862   6.802   2.375  12.669  0.3639 -0.2554 -0.1359
14483TIP3   OH264863   0.967   4.023  14.522  0.2543  0.0804  0.2742
14483TIP3    H164864   0.952   4.070  14.603 -0.7603 -1.9945  1.3419
14483TIP3    H264865   0.909   3.947  14.527  0.2108 -0.1178 -2.3697
14484TIP3   OH264866   2.504   2.733  11.990  0.1896  0.3216  0.3110
14484TIP3    H164867   2.500   2.645  11.953  0.7792  0.5023 -0.2007
14484TIP3    H264868   2.594   2.742  12.021  0.5485  1.2495 -0.9397
14485TIP3   OH264869   3.674   5.383   0.004 -0.4411  0.3750 -0.1638
14485TIP3    H164870   3.596   5.330   0.018  1.1767 -1.6128  1.5287
14485TIP3    H264871   3.740   5.346   0.062  1.5126  2.6251 -0.8393
14486TIP3   OH264872   2.690   5.834  15.871 -0.3774 -0.0740 -0.2409
14486TIP3    H164873   2.705   5.785  15.791 -0.4091 -0.8452  0.2261
14486TIP3    H264874   2.693   5.926  15.843 -1.8549 -0.3539 -1.3870
14487TIP3   OH264875   3.924   4.011  17.199 -0.7412  0.2187  0.4762
14487TIP3    H164876   3.983   4.075  17.239  0.7797 -0.2736 -0.9061
14487TIP3    H264877   3.865   3.986  17.269 -1.4079  3.1774  1.0307
14488TIP3   OH264878   2.357   6.761  15.046  0.3799  0.2615 -0.5427
14488TIP3    H164879   2.408   6.748  14.966 -0.9138 -0.5584 -1.2555
14488TIP3    H264880   2.301   6.836  15.027 -0.0345 -0.0267 -0.4821
14489TIP3   OH264881   3.339   5.463   5.046  0.0937  0.2041 -0.5425
14489TIP3    H164882   3.275   5.525   5.010 -0.5794 -0.6969 -0.9286
14489TIP3    H264883   3.339   5.391   4.983  0.7587 -0.2499 -0.0163
14490TIP3   OH264884   6.463   1.007   4.338  0.0033  0.4153  0.2368
14490TIP3    H164885   6.485   0.962   4.420 -1.8150  0.2820  0.6741
14490TIP3    H264886   6.533   0.982   4.277  1.1596  0.2084  1.6298
14491TIP3   OH264887   4.515   5.661  13.440  0.1602 -0.0064 -0.1353
14491TIP3    H164888   4.458   5.687  13.368 -2.2608  0.0889  1.7367
14491TIP3    H264889   4.574   5.734  13.452  0.2372  0.1971 -1.6718
14492TIP3   OH264890   6.295   4.706   4.250  0.3532  0.1309  0.2362
14492TIP3    H164891   6.219   4.657   4.281  1.3412 -0.7153  1.3664
14492TIP3    H264892   6.284   4.793   4.288  0.3156 -0.2018  0.9950
14493TIP3   OH264893   3.142   3.149   4.202 -1.0635 -0.6233 -0.0363
14493TIP3    H164894   3.086   3.154   4.124 -0.3263 -1.7584 -0.6499
14493TIP3    H264895   3.109   3.219   4.258 -0.9726  0.8653 -1.7720
14494TIP3   OH264896   2.113   6.254  11.283  0.0429  0.3893 -0.3461
14494TIP3    H164897   2.167   6.237  11.361  0.0842  1.0923 -0.2232
14494TIP3    H264898   2.123   6.175  11.230  0.4223  0.1161  0.1243
14495TIP3   OH264899   5.672   6.733   4.684 -0.2058  0.0022  0.2281
14495TIP3    H164900   5.723   6.712   4.605 -0.7750  1.4533 -0.5378
14495TIP3    H264901   5.687   6.826   4.699 -0.9738 -0.0199  1.2110
14496TIP3   OH264902   1.747   3.552   3.777  0.3251  0.4692  0.1302
14496TIP3    H164903   1.832   3.516   3.804 -0.9638 -1.0960  2.2833
14496TIP3    H264904   1.750   3.644   3.803  1.7769  0.7143 -0.8545
14497TIP3   OH264905   3.692   2.288   2.494 -0.0667  0.2493 -0.5147
14497TIP3    H164906   3.748   2.242   2.431  1.4342 -0.3791  1.2186
14497TIP3    H264907   3.640   2.218   2.534 -1.0042  0.6419 -1.0489
14498TIP3   OH264908   1.004   2.521   1.629  0.2146 -0.4966 -0.4183
14498TIP3    H164909   0.940   2.556   1.690  0.2494  2.4635 -1.9791
14498TIP3    H264910   0.952   2.479   1.560  0.0005 -0.0516 -0.5330
14499TIP3   OH264911   2.766   4.424   1.899  0.5104 -0.9328 -0.1074
14499TIP3    H164912   2.707   4.381   1.836  0.2893 -0.0086 -0.5450
14499TIP3    H264913   2.767   4.366   1.975 -0.5566 -1.2214 -0.3085
14500TIP3   OH264914   5.025   0.160   0.260 -0.3171  0.2834  0.4878
14500TIP3    H164915   4.981   0.083   0.223 -0.1680 -0.3300  1.5735
14500TIP3    H264916   5.112   0.159   0.218 -0.7414  0.5521 -0.4055
14501TIP3   OH264917   5.176   1.916  16.034  0.2277 -0.7019 -0.7632
14501TIP3    H164918   5.242   1.930  16.102  0.7729  0.3220 -1.4841
14501TIP3    H264919   5.140   2.003  16.017 -1.6905 -1.3286 -0.0240
14502TIP3   OH264920   2.548   4.568  16.840  0.5083 -0.6937 -0.1822
14502TIP3    H164921   2.599   4.551  16.920  0.3540  1.5773  0.4131
14502TIP3    H264922   2.601   4.529  16.770  1.6965 -0.8308  0.7731
14503TIP3   OH264923   5.017   6.445  16.042  0.0399  0.1927 -0.6579
14503TIP3    H164924   5.059   6.509  15.985  1.8233  0.0047  0.3948
14503TIP3    H264925   5.090   6.400  16.085 -1.1912 -2.3924 -1.1976
14504TIP3   OH264926   1.688   5.783  13.618 -0.4966  0.2070 -0.5554
14504TIP3    H164927   1.715   5.867  13.655  0.7342 -0.3017 -0.2666
14504TIP3    H264928   1.639   5.740  13.687  0.9372 -0.3209  0.1418
14505TIP3   OH264929   2.967   4.493   5.677  0.2305  0.0527  0.3410
14505TIP3    H164930   3.007   4.494   5.590 -0.9812  0.5836 -0.2217
14505TIP3    H264931   3.041   4.489   5.738  1.1357  0.9312 -0.6806
14506TIP3   OH264932   6.612   6.732   2.708 -0.4367 -0.2674 -0.3589
14506TIP3    H164933   6.671   6.664   2.742  0.7862  0.5097 -0.8640
14506TIP3    H264934   6.629   6.807   2.764  0.2140  0.4430 -1.4876
14507TIP3   OH264935   3.673   4.044   2.312 -0.0077 -0.2042 -0.2091
14507TIP3    H164936   3.755   4.092   2.314 -1.0400  1.5810 -0.1455
14507TIP3    H264937   3.656   4.030   2.219 -0.8563  1.5935 -0.3457
14508TIP3   OH264938   4.901   6.566   6.063 -0.3290  0.4048  0.6134
14508TIP3    H164939   4.876   6.651   6.029 -1.2787  0.1385  0.6310
14508TIP3    H264940   4.908   6.579   6.158  0.7281  0.7557  0.4856
14509TIP3   OH264941   0.092   0.975   6.325  0.0827  0.1304 -0.4060
14509TIP3    H164942   0.102   1.053   6.378 -0.8481  0.6017 -0.9179
14509TIP3    H264943   0.128   0.999   6.240 -3.0508  1.0547 -1.5328
14510TIP3   OH264944   6.446   5.776   5.075  0.4509 -0.0171  0.1929
14510TIP3    H164945   6.433   5.738   4.988  1.6144 -1.0155  0.4418
14510TIP3    H264946   6.383   5.848   5.079 -0.6385 -0.8834 -0.9135
14511TIP3   OH264947   2.475   3.625   6.411 -0.0602 -0.2314 -0.1096
14511TIP3    H164948   2.560   3.651   6.376  0.1729 -2.3543 -1.1396
14511TIP3    H264949   2.491   3.613   6.505  1.2706 -2.5387 -0.6017
14512TIP3   OH264950   4.897   3.643  12.721 -0.7742 -1.0627 -0.0008
14512TIP3    H164951   4.879   3.691  12.640  2.6189 -1.2356 -0.9195
14512TIP3    H264952   4.911   3.553  12.692  2.8765 -0.6849  0.4213
14513TIP3   OH264953   3.222   2.617  14.622  0.0356 -0.3825 -0.2428
14513TIP3    H164954   3.284   2.636  14.692 -0.0060 -0.3067 -0.2265
14513TIP3    H264955   3.245   2.680  14.553  0.3533 -0.7377 -0.4637
14514TIP3   OH264956   6.448   5.370   4.194  0.1625 -0.1485 -0.1820
14514TIP3    H164957   6.397   5.420   4.258  0.9967  0.9051 -0.3437
14514TIP3    H264958   6.509   5.319   4.248  1.4792  1.4206 -0.1738
14515TIP3   OH264959   2.822   3.919   2.177  0.0627 -0.3790 -0.3753
14515TIP3    H164960   2.749   3.874   2.219  0.1652 -0.5152 -0.3436
14515TIP3    H264961   2.825   4.005   2.219 -1.9830  0.7668 -2.4255
14516TIP3   OH264962   1.014   0.593  11.412  0.1830 -0.1348 -0.3295
14516TIP3    H164963   0.996   0.525  11.348 -1.1572 -0.5141  0.4341
14516TIP3    H264964   1.054   0.546  11.486  0.1139  0.0501 -0.1736
14517TIP3   OH264965   2.478   2.472   5.403  0.2273  0.2158 -0.3186
14517TIP3    H164966   2.555   2.468   5.347  1.8939 -1.2416  1.9771
14517TIP3    H264967   2.472   2.563   5.429  2.1489  0.0631  0.7413
14518TIP3   OH264968   6.404   0.079  16.560  0.2711  0.2847 -0.3144
14518TIP3    H164969   6.366   0.021  16.494  0.5416 -2.2382  1.6847
14518TIP3    H264970   6.330   0.128  16.595 -0.9417 -3.0721  2.0501
14519TIP3   OH264971   4.828   2.143   5.437  0.0457  0.2256 -0.2387
14519TIP3    H164972   4.904   2.199   5.450 -0.6558  1.2149 -0.2998
14519TIP3    H264973   4.809   2.107   5.524  0.5656 -0.0106 -0.2211
14520TIP3   OH264974   2.385   4.332   2.864 -0.0704 -0.4016  0.3916
14520TIP3    H164975   2.333   4.336   2.783 -1.0836  0.1503  1.0625
14520TIP3    H264976   2.329   4.371   2.931  1.3761  0.6239  1.0423
14521TIP3   OH264977   1.066   0.724   1.734 -0.1651  0.2770 -0.2148
14521TIP3    H164978   1.000   0.793   1.742  0.3536  0.5100  2.6464
14521TIP3    H264979   1.025   0.647   1.773  1.4157  0.5996  2.2427
14522TIP3   OH264980   3.804   2.315  16.729 -0.7047 -0.1330 -0.2950
14522TIP3    H164981   3.805   2.275  16.815  0.7888  2.3684  0.9105
14522TIP3    H264982   3.829   2.245  16.669  0.1990 -1.3857  1.5253
14523TIP3   OH264983   0.614   3.509  16.899 -0.0511 -0.3909 -0.1845
14523TIP3    H164984   0.653   3.425  16.873  1.3910  0.1520  0.1601
14523TIP3    H264985   0.653   3.527  16.985 -1.1373  0.1364  0.2008
14524TIP3   OH264986   3.938   2.472   0.086  0.1541 -0.2224  0.9443
14524TIP3    H164987   3.850   2.436   0.078 -0.2856  0.5810  1.9621
14524TIP3    H264988   3.924   2.565   0.107  1.2530  0.1708 -0.0224
14525TIP3   OH264989   0.806   2.450   6.447 -0.8556 -0.0543  0.3036
14525TIP3    H164990   0.752   2.470   6.523 -0.0795  0.4367  0.7200
14525TIP3    H264991   0.798   2.528   6.391 -0.7595 -0.0804  0.2539
14526TIP3   OH264992   6.760   1.245   5.564  0.2369 -0.3986  0.0404
14526TIP3    H164993   6.686   1.245   5.503  0.3530 -1.0933 -0.1018
14526TIP3    H264994   6.762   1.156   5.599 -0.5156  0.2887  1.8946
14527TIP3   OH264995   5.818   3.884  15.367  0.1120 -0.2580  0.1720
14527TIP3    H164996   5.746   3.943  15.345 -0.5425 -1.2371 -0.3593
14527TIP3    H264997   5.777   3.797  15.371  0.7840 -0.5138  2.2797
14528TIP3   OH264998   5.757   4.703   4.810  0.5129  0.3394  0.4032
14528TIP3    H164999   5.765   4.620   4.858  0.7680  0.9711  1.4730
14528TIP3    H265000   5.666   4.705   4.780  0.7534 -0.7484 -0.4169
14529TIP3   OH265001   6.771   0.258  15.613 -0.4339 -0.1124 -0.5892
14529TIP3    H165002   6.815   0.313  15.678 -0.8715 -1.0192  0.5086
14529TIP3    H265003   6.828   0.182  15.603 -0.8862 -0.4690 -0.4760
14530TIP3   OH265004   0.391   5.630   0.973 -0.7408 -0.4311  0.2712
14530TIP3    H165005   0.440   5.707   1.002 -1.2840  0.1737 -0.4268
14530TIP3    H265006   0.384   5.640   0.878  2.1046 -3.0068 -0.2914
14531TIP3   OH265007   3.142   2.399  16.719 -0.2796 -0.8366  0.2971
14531TIP3    H165008   3.125   2.340  16.646  0.5572 -1.2998  0.4698
14531TIP3    H265009   3.193   2.347  16.781  0.4583  0.0454  0.4607
14532TIP3   OH265010   4.616   6.521   5.834  0.0583  0.1149  0.4956
14532TIP3    H165011   4.573   6.602   5.864 -0.1463  1.0929 -2.2858
14532TIP3    H265012   4.559   6.451   5.865 -1.5514  1.2285  0.1332
14533TIP3   OH265013   0.910   6.385  13.731  0.1316 -0.3022 -0.1189
14533TIP3    H165014   0.988   6.335  13.758  0.0473 -0.2910  0.1499
14533TIP3    H265015   0.837   6.336  13.768  0.1091  0.6119  1.0768
14534TIP3   OH265016   5.202   0.332  17.151 -0.6073  0.0605 -0.6244
14534TIP3    H165017   5.248   0.348  17.068  1.1627  0.9881  0.5074
14534TIP3    H265018   5.153   0.251  17.136  0.5527 -0.3785 -2.2168
14535TIP3   OH265019   4.392   2.142   4.689  0.3597  0.5858 -0.1779
14535TIP3    H165020   4.432   2.095   4.762 -0.9204  0.4714  0.4697
14535TIP3    H265021   4.465   2.180   4.641  1.1972  0.7845  1.2598
14536TIP3   OH265022   4.975   1.733  11.546 -0.0723 -0.0050 -0.6542
14536TIP3    H165023   5.068   1.739  11.566 -1.0180  2.4511  3.4230
14536TIP3    H265024   4.953   1.642  11.564  0.9138  0.1341  1.3467
14537TIP3   OH265025   0.256   0.522   5.174  0.2547  0.6391  0.1379
14537TIP3    H165026   0.348   0.528   5.146 -0.0296 -0.1835 -1.0383
14537TIP3    H265027   0.247   0.433   5.208  0.3270  1.3014  1.9233
14538TIP3   OH265028   2.051   4.386  16.748 -0.1867  0.7620  0.4729
14538TIP3    H165029   1.978   4.429  16.703  0.9312 -0.9405 -3.1439
14538TIP3    H265030   2.130   4.428  16.713  0.6979 -0.0944  1.3855
14539TIP3   OH265031   5.313   5.170   5.361  0.3175 -0.4337 -0.2034
14539TIP3    H165032   5.408   5.171   5.370  0.0431 -0.6298  3.1654
14539TIP3    H265033   5.289   5.262   5.347  0.9006 -0.2525 -0.0217
14540TIP3   OH265034   4.639   2.042   0.179  0.2854 -0.1939  0.1020
14540TIP3    H165035   4.692   2.118   0.155  1.7766 -1.2994 -0.1687
14540TIP3    H265036   4.555   2.057   0.135  1.1498  0.4705 -1.3703
14541TIP3   OH265037   5.754   5.061   4.723  0.3644 -0.0499 -0.0514
14541TIP3    H165038   5.676   5.072   4.778 -0.6938  0.8743 -1.7017
14541TIP3    H265039   5.773   5.149   4.690  1.8439 -0.3502 -0.0349
14542TIP3   OH265040   3.658   5.861   6.483  0.2470  0.0035 -0.5247
14542TIP3    H165041   3.567   5.843   6.510  0.3857 -1.3053 -0.8820
14542TIP3    H265042   3.651   5.935   6.424 -0.4808  0.5707  0.2562
14543TIP3   OH265043   1.683   1.279   3.672 -0.3288  0.2878  0.0185
14543TIP3    H165044   1.588   1.277   3.683 -0.2974  1.2745  0.4690
14543TIP3    H265045   1.704   1.371   3.654  0.8272  0.5711  2.5152
14544TIP3   OH265046   3.292   0.459   0.803 -0.8922  0.0745 -0.5355
14544TIP3    H165047   3.278   0.528   0.869 -3.6708 -1.3855  0.5057
14544TIP3    H265048   3.273   0.502   0.720  1.7901  1.7131 -0.3382
14545TIP3   OH265049   4.408   1.702  15.607 -0.0052 -0.2051 -0.0124
14545TIP3    H165050   4.382   1.634  15.669  0.3241 -0.5449 -0.2446
14545TIP3    H265051   4.342   1.771  15.619 -1.6852 -1.5174 -1.3796
14546TIP3   OH265052   1.007   0.415  16.226  0.3455  0.4038 -0.0078
14546TIP3    H165053   1.010   0.479  16.156  0.0907  2.3727  1.7185
14546TIP3    H265054   1.009   0.467  16.307  3.9718 -1.8561  1.5242
14547TIP3   OH265055   4.761   5.303  15.491  0.1607  0.6194  0.5693
14547TIP3    H165056   4.703   5.285  15.565 -0.3955  0.0170 -0.0168
14547TIP3    H265057   4.730   5.387  15.456 -0.9456 -0.1392 -0.3016
14548TIP3   OH265058   0.792   6.413   0.500  0.2043 -0.1521  0.0952
14548TIP3    H165059   0.802   6.388   0.408 -1.5004 -0.3219 -0.0465
14548TIP3    H265060   0.844   6.348   0.548 -0.3345 -1.1084 -0.6159
14549TIP3   OH265061   6.440   3.670  16.019 -0.3903 -0.0551  0.1087
14549TIP3    H165062   6.413   3.647  15.930  1.1635 -0.7672 -0.1929
14549TIP3    H265063   6.426   3.591  16.070  3.4020 -1.2541 -0.5825
14550TIP3   OH265064   5.063   6.495  14.713  0.6886  0.4157 -0.0363
14550TIP3    H165065   5.048   6.434  14.786 -1.2935  0.6761 -0.1908
14550TIP3    H265066   5.056   6.582  14.753  1.3843  0.5522 -0.2130
14551TIP3   OH265067   1.098   2.044  11.346 -0.2627 -0.2058 -0.2394
14551TIP3    H165068   1.038   1.973  11.365  0.9719 -1.0130  0.7589
14551TIP3    H265069   1.184   2.012  11.374  0.3407  1.6249  0.1360
14552TIP3   OH265070   2.635   6.255   3.986  0.0785  0.1645 -0.4038
14552TIP3    H165071   2.680   6.339   3.989  0.3994 -0.0324  0.3968
14552TIP3    H265072   2.705   6.191   3.973 -0.0681 -0.0506 -0.1419
14553TIP3   OH265073   1.729   6.730   6.201 -0.6827  0.1315 -0.2154
14553TIP3    H165074   1.802   6.717   6.262 -0.3216  1.2944 -0.3952
14553TIP3    H265075   1.713   6.824   6.202 -0.0231  0.3110 -2.6610
14554TIP3   OH265076   0.252   2.245  11.444 -0.1577 -0.1493  0.2183
14554TIP3    H165077   0.185   2.293  11.492 -1.3983 -0.9235 -0.7104
14554TIP3    H265078   0.205   2.173  11.402  1.8972 -3.2053  2.8990
14555TIP3   OH265079   1.629   1.315   2.202  0.3432  0.2018  0.7036
14555TIP3    H165080   1.709   1.313   2.149 -0.3933  0.0976 -0.4223
14555TIP3    H265081   1.634   1.236   2.256  0.0293 -0.8938 -0.8408
14556TIP3   OH265082   0.348   4.987   3.426 -0.3970  0.1463 -0.3728
14556TIP3    H165083   0.297   5.018   3.351  0.6925  0.4859 -0.9736
14556TIP3    H265084   0.409   4.924   3.389 -0.3138 -0.1922  0.3355
14557TIP3   OH265085   4.712   0.526   5.994  0.2260 -0.1196  0.3442
14557TIP3    H165086   4.720   0.481   5.910 -1.8750 -2.9198  1.5690
14557TIP3    H265087   4.717   0.456   6.059 -1.5118  1.6010  2.4078
14558TIP3   OH265088   0.592   0.949   1.880  0.3410 -0.1747  0.2461
14558TIP3    H165089   0.502   0.970   1.854  0.7986  0.7461 -0.6373
14558TIP3    H265090   0.594   0.854   1.882 -0.3193 -0.2258 -0.9499
14559TIP3   OH265091   0.651   6.260   5.499 -0.3927 -0.1776 -0.2132
14559TIP3    H165092   0.704   6.329   5.539  0.3067 -0.1007 -1.2503
14559TIP3    H265093   0.562   6.278   5.527  0.0048  0.2611  0.7587
14560TIP3   OH265094   2.193   1.231   0.608 -0.4796 -0.3595 -0.0167
14560TIP3    H165095   2.098   1.228   0.594 -0.5209 -2.9672  0.5268
14560TIP3    H265096   2.222   1.306   0.556 -2.6567 -0.3890 -1.3768
14561TIP3   OH265097   5.482   0.083   3.428  0.0550 -0.6502 -0.1707
14561TIP3    H165098   5.532   0.002   3.430  0.3912 -0.4268  2.5630
14561TIP3    H265099   5.405   0.067   3.483 -0.2979  0.6026 -0.2608
14562TIP3   OH265100   1.060   5.326  11.626  0.2350  0.3064  0.1008
14562TIP3    H165101   1.065   5.258  11.694 -1.5383  1.8717  1.8456
14562TIP3    H265102   0.973   5.364  11.637  0.6688  1.8887 -1.8168
14563TIP3   OH265103   1.056   6.387   3.694  0.1464  0.0750 -0.1059
14563TIP3    H165104   1.031   6.476   3.717 -2.4289 -0.0890 -2.0783
14563TIP3    H265105   1.151   6.385   3.705  0.1006  2.6727  1.1695
14564TIP3   OH265106   0.891   6.486  12.848 -0.2814 -0.2342  0.0481
14564TIP3    H165107   0.891   6.413  12.910 -1.1612 -0.1802  0.1201
14564TIP3    H265108   0.799   6.510  12.840  0.0577  1.3070  0.5531
14565TIP3   OH265109   5.911   2.505  12.931  0.5360 -0.0505 -0.5431
14565TIP3    H165110   5.850   2.435  12.908 -0.1022 -0.3588  1.9231
14565TIP3    H265111   5.859   2.585  12.923 -0.0765 -0.2667  0.9911
14566TIP3   OH265112   4.134   5.399   3.079 -0.0117 -0.5230 -0.0456
14566TIP3    H165113   4.136   5.456   3.156  1.6554 -1.2226  0.4658
14566TIP3    H265114   4.133   5.310   3.114 -2.3327 -0.8486 -0.8412
14567TIP3   OH265115   1.944   4.858  15.186  0.3345 -0.2485 -0.8963
14567TIP3    H165116   1.969   4.854  15.279  0.3464  3.5775 -0.6288
14567TIP3    H265117   1.854   4.892  15.188  0.9747  1.5515 -2.3181
14568TIP3   OH265118   2.551   6.276   2.971  0.6275 -0.6297 -0.4429
14568TIP3    H165119   2.632   6.319   3.000  0.3536 -1.7318  2.0942
14568TIP3    H265120   2.574   6.234   2.888  2.8480 -1.5025  0.5833
14569TIP3   OH265121   3.344   1.071   2.329 -0.1123  0.4824  1.0485
14569TIP3    H165122   3.348   0.977   2.310  0.6746  0.7789 -0.2958
14569TIP3    H265123   3.251   1.089   2.342 -0.2253 -0.5620  1.7598
14570TIP3   OH265124   0.102   1.392  13.187 -0.4782 -0.3513  0.0369
14570TIP3    H165125   0.016   1.363  13.156 -0.5151  1.1985 -1.3828
14570TIP3    H265126   0.162   1.370  13.116 -0.1537  1.0179 -0.1261
14571TIP3   OH265127   2.124   6.020   0.131  0.4701  0.1517  0.2381
14571TIP3    H165128   2.076   6.061   0.203  0.2472 -0.7366  0.6069
14571TIP3    H265129   2.216   6.036   0.151  0.3816  0.5057  0.3567
14572TIP3   OH265130   1.586   4.914  15.447 -0.0622 -0.0650  0.0296
14572TIP3    H165131   1.605   4.967  15.369  2.0747 -0.7329  0.0516
14572TIP3    H265132   1.666   4.919  15.499 -0.1973 -2.4765  0.5283
14573TIP3   OH265133   4.303   5.931   2.579  0.2244  0.1916 -0.3476
14573TIP3    H165134   4.310   5.951   2.673 -1.4375 -1.4102  0.1651
14573TIP3    H265135   4.337   6.009   2.535  1.1828  0.9076  1.5879
14574TIP3   OH265136   1.205   5.599   3.775 -0.1655  0.0628 -0.1334
14574TIP3    H165137   1.265   5.525   3.771 -1.0867 -0.7567  0.9818
14574TIP3    H265138   1.216   5.633   3.864 -0.3546  0.7519 -0.3739
14575TIP3   OH265139   1.821   0.991   4.150 -0.5415 -0.1965 -0.4792
14575TIP3    H165140   1.861   0.945   4.224 -1.8022 -0.6613 -0.0795
14575TIP3    H265141   1.785   0.921   4.095 -1.9524  0.2633 -0.1669
14576TIP3   OH265142   2.854   3.850   0.309  0.4061 -0.0346  0.2483
14576TIP3    H165143   2.861   3.831   0.402 -0.5982  1.9582  0.7649
14576TIP3    H265144   2.817   3.770   0.270 -3.8541  0.7524  2.3272
14577TIP3   OH265145   1.085   3.050  10.774 -0.5411 -0.4462  0.4690
14577TIP3    H165146   1.088   3.117  10.843 -0.8464 -0.1453  0.1905
14577TIP3    H265147   1.121   3.093  10.697  1.4483 -1.3348  0.8868
14578TIP3   OH265148   1.614   2.499   5.915 -0.4581 -0.0740  0.5118
14578TIP3    H165149   1.650   2.585   5.893 -3.0796  1.8870  3.4795
14578TIP3    H265150   1.620   2.494   6.010  0.7227 -3.7508  0.3642
14579TIP3   OH265151   1.661   3.262   2.310  0.1753  0.6423  0.1740
14579TIP3    H165152   1.738   3.314   2.287 -0.2890  0.4812 -1.8361
14579TIP3    H265153   1.589   3.325   2.314  0.2351  0.6562  1.1370
14580TIP3   OH265154   2.229   3.270   0.934  0.4016  0.2547 -0.0049
14580TIP3    H165155   2.172   3.347   0.934  1.1509  0.8164 -0.7410
14580TIP3    H265156   2.169   3.197   0.918 -0.3410  0.6533  0.8956
14581TIP3   OH265157   1.984   3.099   6.158 -0.1887 -0.3802 -0.1933
14581TIP3    H165158   1.935   3.144   6.090  2.1255 -0.3472 -1.9097
14581TIP3    H265159   2.025   3.170   6.209  1.2557 -0.4475 -1.2244
14582TIP3   OH265160   2.169   1.529  17.182 -0.0910  0.6226 -0.2456
14582TIP3    H165161   2.242   1.555  17.126  1.4952  0.5645  1.7347
14582TIP3    H265162   2.092   1.541  17.128  1.3557  0.9918 -2.2873
14583TIP3   OH265163   0.322   0.443  13.281 -0.8291  0.4595 -0.0772
14583TIP3    H165164   0.396   0.502  13.270 -0.6333 -0.1708 -2.3905
14583TIP3    H265165   0.250   0.485  13.235 -0.9970 -0.5385 -0.7456
14584TIP3   OH265166   6.527   4.839  16.022 -0.1990  0.2073  0.7162
14584TIP3    H165167   6.483   4.814  15.941  0.5260  1.6048 -0.1321
14584TIP3    H265168   6.538   4.757  16.070 -0.6502 -0.6302 -0.5870
14585TIP3   OH265169   0.427   2.344   3.764  0.7162 -0.1910  0.1365
14585TIP3    H165170   0.388   2.418   3.811  0.1662 -0.1750 -0.3408
14585TIP3    H265171   0.501   2.382   3.717  0.8469 -0.0725  0.4386
14586TIP3   OH265172   1.188   0.099   2.887 -0.1293  0.4789  0.6840
14586TIP3    H165173   1.165   0.041   2.814  0.1778 -0.5366  1.3775
14586TIP3    H265174   1.207   0.039   2.960  1.2661  1.4120  1.1053
14587TIP3   OH265175   1.356   3.523  12.984  0.3321  0.1745 -0.0714
14587TIP3    H165176   1.411   3.601  12.984  0.1195  0.3229  0.1526
14587TIP3    H265177   1.397   3.465  12.919  0.2635  0.6245 -0.5116
14588TIP3   OH265178   2.716   3.060   0.561 -0.2772  0.0959  0.3755
14588TIP3    H165179   2.682   3.011   0.636 -0.0044 -0.4754  0.1296
14588TIP3    H265180   2.788   3.007   0.528  0.9462  1.3600  0.9670
14589TIP3   OH265181   1.406   2.563   2.791  0.4531 -0.0051 -0.1882
14589TIP3    H165182   1.445   2.480   2.765  0.5775  0.3605 -1.1915
14589TIP3    H265183   1.408   2.562   2.887  0.2478 -1.2495 -0.1984
14590TIP3   OH265184   1.827   3.176   1.543 -0.0090 -0.2928 -0.4674
14590TIP3    H165185   1.828   3.201   1.450  0.5089 -2.1372 -0.9973
14590TIP3    H265186   1.841   3.081   1.541  0.1314 -0.3224  1.5146
14591TIP3   OH265187   4.521   6.215  12.707  0.3042 -0.4600 -0.4291
14591TIP3    H165188   4.540   6.305  12.734  1.3932 -0.3099 -1.6357
14591TIP3    H265189   4.498   6.221  12.614  1.9153 -1.5891 -0.9334
14592TIP3   OH265190   4.064   6.136   3.032  0.2167  0.4741  0.4904
14592TIP3    H165191   4.072   6.231   3.026 -0.4935  0.4861 -0.4952
14592TIP3    H265192   4.145   6.107   3.074  0.0789  1.5816  1.5477
14593TIP3   OH265193   0.632   3.270  16.129 -0.0366  0.2179  0.4330
14593TIP3    H165194   0.539   3.292  16.136  0.1829  1.2901  0.0637
14593TIP3    H265195   0.669   3.338  16.072  0.7819 -0.7682 -0.2451
14594TIP3   OH265196   5.528   5.059  15.389  0.2969 -0.0528 -0.4896
14594TIP3    H165197   5.584   4.986  15.415  0.9369  0.5845 -0.0604
14594TIP3    H265198   5.468   5.071  15.463  1.8981  1.5409  0.5926
14595TIP3   OH265199   4.394   5.467  11.387  0.3141 -0.5519 -0.0743
14595TIP3    H165200   4.417   5.379  11.357 -0.5462 -0.8576  0.1363
14595TIP3    H265201   4.317   5.454  11.443 -0.2425  0.4088 -0.5909
14596TIP3   OH265202   2.136   3.526  11.373  0.4066  0.5054  0.0946
14596TIP3    H165203   2.130   3.554  11.464  1.7581  0.7052  0.1294
14596TIP3    H265204   2.121   3.606  11.323 -1.1163  0.2467  0.1256
14597TIP3   OH265205   4.817   0.458   2.458 -0.0547 -0.2176 -0.1372
14597TIP3    H165206   4.789   0.536   2.505  1.7743  0.3159  0.1194
14597TIP3    H265207   4.741   0.400   2.460  0.0761 -0.3922  3.8674
14598TIP3   OH265208   6.665   1.219  12.571 -0.0603  0.1634 -0.4045
14598TIP3    H165209   6.717   1.171  12.635  0.5485 -0.2480 -1.1893
14598TIP3    H265210   6.579   1.177  12.573 -0.3452  0.7721  0.8158
14599TIP3   OH265211   3.941   0.525   0.644 -0.0438 -0.3018  0.0689
14599TIP3    H165212   3.933   0.593   0.711  0.1340  0.0756 -0.2919
14599TIP3    H265213   3.972   0.448   0.691 -1.0674 -0.3800  0.6325
14600TIP3   OH265214   5.357   2.376   0.822  0.4449  0.4433  0.3073
14600TIP3    H165215   5.289   2.426   0.776  0.1594  0.1538  0.4111
14600TIP3    H265216   5.376   2.428   0.900 -0.9082 -0.3268  1.1758
14601TIP3   OH265217   1.443   5.122  11.662 -0.0526  0.2980 -0.2174
14601TIP3    H165218   1.405   5.190  11.717 -0.9316  0.4539 -1.0231
14601TIP3    H265219   1.369   5.083  11.616  0.1235 -2.7370  1.8965
14602TIP3   OH265220   3.287   1.756  17.154 -0.0572 -0.0313  0.5492
14602TIP3    H165221   3.248   1.774  17.068  0.0099  3.6179  1.1819
14602TIP3    H265222   3.213   1.739  17.211 -0.1328 -1.9538 -0.0868
14603TIP3   OH265223   6.116   4.975   6.537  0.0956 -0.4110  0.3097
14603TIP3    H165224   6.111   5.071   6.535 -0.7957 -0.4709 -1.6781
14603TIP3    H265225   6.045   4.948   6.595  1.1594  0.1767  1.8939
14604TIP3   OH265226   0.204   1.322  15.883  1.0530  0.7674  0.3641
14604TIP3    H165227   0.142   1.394  15.876 -0.6288 -0.7130 -0.5180
14604TIP3    H265228   0.185   1.282  15.968 -1.6765 -1.8220 -1.3744
14605TIP3   OH265229   5.955   2.094  11.738  0.0553 -0.4291 -0.1118
14605TIP3    H165230   5.967   2.058  11.826 -2.2351 -0.2959  0.2726
14605TIP3    H265231   5.928   2.020  11.684 -1.9058  0.1365  0.0641
14606TIP3   OH265232   2.655   0.473  12.872  0.2792 -0.5195  0.2975
14606TIP3    H165233   2.706   0.466  12.791  0.5633 -1.2438  0.5332
14606TIP3    H265234   2.567   0.446  12.847  0.3686 -0.7533  0.2308
14607TIP3   OH265235   1.697   1.934   2.253 -0.0056 -0.9324  0.4673
14607TIP3    H165236   1.737   1.878   2.187  3.7679  2.1108 -0.0374
14607TIP3    H265237   1.733   1.902   2.336 -0.4937 -1.3610  0.5141
14608TIP3   OH265238   3.534   4.679  14.951 -0.1686 -0.0889 -0.7323
14608TIP3    H165239   3.477   4.727  15.010  0.8562 -0.1710  0.3488
14608TIP3    H265240   3.479   4.611  14.912 -0.8938  0.0957 -0.0208
14609TIP3   OH265241   3.513   3.661  16.719  0.0990  0.4326  0.3508
14609TIP3    H165242   3.458   3.624  16.650  0.2263 -1.6702  1.3251
14609TIP3    H265243   3.596   3.614  16.711  0.4188  0.8123  1.3344
14610TIP3   OH265244   6.300   5.640   2.774  0.5841 -0.1778 -0.2070
14610TIP3    H165245   6.301   5.596   2.859  0.6777 -0.8659 -0.5592
14610TIP3    H265246   6.393   5.649   2.750  0.5330 -0.7800 -0.6397
14611TIP3   OH265247   4.304   1.691  14.755  0.6604 -0.5486  0.4078
14611TIP3    H165248   4.329   1.649  14.837  1.8226  0.8177  0.7855
14611TIP3    H265249   4.377   1.751  14.736 -0.4132  0.4246 -0.7120
14612TIP3   OH265250   4.501   2.679   5.827 -0.1345  0.2645  0.3478
14612TIP3    H165251   4.538   2.592   5.846  0.0837  0.1964 -0.3609
14612TIP3    H265252   4.409   2.671   5.848 -0.0144  0.0105  0.7798
14613TIP3   OH265253   5.728   2.309  12.895  0.0399  0.5912 -0.2956
14613TIP3    H165254   5.640   2.308  12.933  1.2049  0.6868  2.5920
14613TIP3    H265255   5.725   2.246  12.824 -2.7618  1.7216 -1.2377
14614TIP3   OH265256   2.028   2.031   0.566 -0.1965 -0.6143 -0.5538
14614TIP3    H165257   2.084   1.953   0.561  0.6475 -0.0504  0.0515
14614TIP3    H265258   2.053   2.083   0.489 -0.8742 -1.0122 -1.0472
14615TIP3   OH265259   2.184   2.860   3.289  0.3739  0.5098 -0.1971
14615TIP3    H165260   2.136   2.879   3.209 -1.3085  0.4023  0.7675
14615TIP3    H265261   2.249   2.795   3.263  0.6034  1.3260 -1.7100
14616TIP3   OH265262   0.834   5.878   2.751  0.3271 -0.0191  0.4468
14616TIP3    H165263   0.917   5.885   2.799  0.6580 -0.1193 -0.1035
14616TIP3    H265264   0.784   5.812   2.800  1.4595 -1.5896 -0.4717
14617TIP3   OH265265   3.785   3.877  11.362  0.1485  0.0016  0.0160
14617TIP3    H165266   3.803   3.967  11.337 -0.0936 -0.0903 -0.4926
14617TIP3    H265267   3.713   3.884  11.425 -1.4006  0.0052 -1.7243
14618TIP3   OH265268   3.569   6.766  12.981 -0.3709  0.0485  0.2408
14618TIP3    H165269   3.487   6.814  12.967 -0.2208  0.2955  0.2040
14618TIP3    H265270   3.606   6.756  12.893  0.2079  0.9496  0.3744
14619TIP3   OH265271   2.669   0.842   1.875 -0.2471 -0.3420 -0.4730
14619TIP3    H165272   2.738   0.908   1.868 -0.2107 -0.4376 -1.0593
14619TIP3    H265273   2.631   0.838   1.787 -0.4196 -0.9169 -0.3740
14620TIP3   OH265274   0.991   6.017  17.027 -0.1799  0.8469  0.1436
14620TIP3    H165275   0.986   6.112  17.016  3.2244  1.2794  1.6840
14620TIP3    H265276   1.019   5.984  16.941 -0.3152  1.3399 -0.0878
14621TIP3   OH265277   3.293   3.233   0.334 -0.1611 -0.9734 -0.0651
14621TIP3    H165278   3.242   3.272   0.263 -0.3109 -0.9963  0.0298
14621TIP3    H265279   3.258   3.274   0.413 -0.2094 -1.1828  0.0218
14622TIP3   OH265280   0.871   6.107   3.001  0.0296  0.1636  0.1642
14622TIP3    H165281   0.905   6.066   2.922 -0.9200 -1.0532  0.3721
14622TIP3    H265282   0.949   6.134   3.049  0.6109  1.2782 -1.3582
14623TIP3   OH265283   5.566   4.058  15.299 -0.4195  0.5385 -0.5344
14623TIP3    H165284   5.502   3.987  15.304 -0.0027  0.1255 -0.9944
14623TIP3    H265285   5.587   4.064  15.205  0.5999  0.3358 -0.3182
14624TIP3   OH265286   4.778   5.426  13.259  0.6267  0.0977 -0.6071
14624TIP3    H165287   4.806   5.439  13.350 -0.4686 -0.7351 -0.1518
14624TIP3    H265288   4.741   5.510  13.234  2.8207  1.0035 -0.9865
14625TIP3   OH265289   5.540   3.091  16.890 -0.1987  0.4425 -0.0448
14625TIP3    H165290   5.524   3.039  16.811  1.2737 -1.1469  0.6776
14625TIP3    H265291   5.462   3.078  16.944 -0.3429 -0.0557 -0.3750
14626TIP3   OH265292   2.980   5.063  16.657 -0.2684  0.5823 -0.3681
14626TIP3    H165293   3.005   5.094  16.570  1.0986 -1.1639 -0.6480
14626TIP3    H265294   3.038   4.988  16.672 -3.0527 -1.4630  0.4747
14627TIP3   OH265295   5.262   5.675   1.440  0.5877  0.3443  0.1505
14627TIP3    H165296   5.186   5.716   1.399 -0.4253 -1.2450  0.3723
14627TIP3    H265297   5.334   5.735   1.424 -0.7689  1.9839  0.1113
14628TIP3   OH265298   4.866   5.639   2.058  0.1535  0.8268  0.0414
14628TIP3    H165299   4.958   5.614   2.067 -0.1181 -0.6181 -0.9830
14628TIP3    H265300   4.866   5.707   1.991  0.5915  1.5896  0.8094
14629TIP3   OH265301   5.560   6.412  16.142 -0.4869  0.3426  0.0804
14629TIP3    H165302   5.532   6.389  16.054 -0.5602  1.7754 -0.2788
14629TIP3    H265303   5.501   6.482  16.169 -0.2657  0.1358  1.1454
14630TIP3   OH265304   6.627   1.750   0.282  0.1209 -0.5116 -0.0404
14630TIP3    H165305   6.619   1.689   0.355 -0.5042 -1.1229 -0.6120
14630TIP3    H265306   6.712   1.792   0.295  0.4186 -1.2826  0.5215
14631TIP3   OH265307   3.684   0.480  11.201  0.3853  0.3704  0.0769
14631TIP3    H165308   3.732   0.521  11.272  1.3563 -0.4516 -0.0906
14631TIP3    H265309   3.651   0.553  11.148 -0.2688  0.9799  1.3171
14632TIP3   OH265310   5.947   6.705  13.877  0.0270 -0.0340 -0.4893
14632TIP3    H165311   5.954   6.693  13.972 -2.0493 -2.4600 -0.5782
14632TIP3    H265312   5.992   6.629  13.840  0.3291  0.6082 -1.4367
14633TIP3   OH265313   3.054   0.322  14.799 -0.2687 -0.3375  0.0140
14633TIP3    H165314   3.074   0.407  14.759 -0.9049 -0.3496 -0.3298
14633TIP3    H265315   3.117   0.262  14.758 -0.1397 -0.1274 -0.0995
14634TIP3   OH265316   4.053   2.239   1.017 -0.2450  0.5328  0.1019
14634TIP3    H165317   4.118   2.299   0.980  0.8713  0.5521  1.9945
14634TIP3    H265318   4.103   2.185   1.078 -2.0488  0.6834  1.7691
14635TIP3   OH265319   3.506   0.616   2.168  0.2363 -0.1305  0.0510
14635TIP3    H165320   3.446   0.585   2.100  0.0270 -1.9704  1.0353
14635TIP3    H265321   3.592   0.619   2.125 -0.1387  0.0807 -0.6798
14636TIP3   OH265322   1.587   2.006   2.516  0.3590  0.1296  0.0261
14636TIP3    H165323   1.576   2.051   2.432 -2.5808 -1.3645 -0.4284
14636TIP3    H265324   1.656   1.941   2.500  0.1902  0.2208 -1.0679
14637TIP3   OH265325   0.376   5.897  11.313 -0.3577  0.1015  0.0333
14637TIP3    H165326   0.443   5.924  11.376 -1.2735 -1.1850  1.5704
14637TIP3    H265327   0.300   5.952  11.334 -0.6718 -0.3459  0.0744
14638TIP3   OH265328   3.547   2.223   6.289 -0.2547  0.3471  0.3792
14638TIP3    H165329   3.634   2.184   6.278 -0.0025  1.0291 -0.0666
14638TIP3    H265330   3.486   2.159   6.253 -0.0045 -0.4808  1.4004
14639TIP3   OH265331   1.288   0.683   0.350 -0.4306 -0.4041 -0.1691
14639TIP3    H165332   1.310   0.621   0.419 -0.2270  0.2568  0.3595
14639TIP3    H265333   1.219   0.738   0.387  0.8202  1.0074  0.1110
14640TIP3   OH265334   5.954   6.248   4.372 -0.0744  0.0170  0.4135
14640TIP3    H165335   5.973   6.321   4.431 -0.1711 -0.5302  1.1233
14640TIP3    H265336   5.966   6.170   4.425  1.1542 -0.5461 -0.6560
14641TIP3   OH265337   1.385   5.267   3.288 -0.1082 -0.0807  0.3610
14641TIP3    H165338   1.304   5.275   3.238  0.8951 -1.4949 -1.5182
14641TIP3    H265339   1.360   5.216   3.365 -0.9328 -0.7916 -0.3669
14642TIP3   OH265340   0.848   6.471   5.324 -0.4430 -0.2212 -0.0737
14642TIP3    H165341   0.879   6.561   5.318  0.9780 -0.6075  0.9345
14642TIP3    H265342   0.811   6.464   5.412  0.4363 -0.8955  0.2525
14643TIP3   OH265343   3.629   1.742   3.180  0.1628 -0.0944 -0.1899
14643TIP3    H165344   3.691   1.814   3.169 -1.3302  1.1462 -0.7105
14643TIP3    H265345   3.644   1.711   3.269  1.3039  0.4048 -0.1973
14644TIP3   OH265346   4.849   4.816  15.886 -0.0575 -0.3084  0.4473
14644TIP3    H165347   4.900   4.894  15.906  0.2693 -0.2034 -0.7907
14644TIP3    H265348   4.774   4.848  15.837  0.0491 -0.7573 -0.0112
14645TIP3   OH265349   1.700   3.853  14.872  0.3094  0.3199  0.1609
14645TIP3    H165350   1.652   3.915  14.817  0.1462 -0.3176 -0.4230
14645TIP3    H265351   1.757   3.907  14.926  0.9642  0.9048 -1.1103
14646TIP3   OH265352   6.152   1.322  14.541 -0.0812  0.9808 -0.5305
14646TIP3    H165353   6.191   1.399  14.581 -2.3471  1.8183  0.1501
14646TIP3    H265354   6.190   1.319  14.453 -1.5700  4.1508 -1.3550
14647TIP3   OH265355   4.207   2.910   5.478 -0.4149  0.2845  0.8444
14647TIP3    H165356   4.247   2.978   5.533  0.9776 -1.5249  2.1162
14647TIP3    H265357   4.274   2.890   5.413 -2.4709  3.2188 -2.3335
14648TIP3   OH265358   0.292   3.442  16.157  0.2257  0.0724  0.2365
14648TIP3    H165359   0.251   3.527  16.142 -1.1889 -0.9397 -1.9647
14648TIP3    H265360   0.347   3.454  16.234 -1.0849  2.5771  0.8096
14649TIP3   OH265361   5.211   0.634   2.216  0.3824 -0.1320  0.2130
14649TIP3    H165362   5.307   0.645   2.214  0.1290  2.1517 -1.0553
14649TIP3    H265363   5.193   0.600   2.303  2.4807 -2.0964 -0.0322
14650TIP3   OH265364   1.778   4.130  15.551  0.7826 -0.1188  0.0375
14650TIP3    H165365   1.857   4.133  15.497  1.5281 -0.8157  1.0508
14650TIP3    H265366   1.777   4.041  15.586  0.2744  0.2842  1.0744
14651TIP3   OH265367   6.115   3.487   3.879 -0.1464 -0.3329 -0.1779
14651TIP3    H165368   6.082   3.414   3.931  0.0554  0.0665  0.5159
14651TIP3    H265369   6.100   3.460   3.788  0.0796 -1.3000  0.0665
14652TIP3   OH265370   3.742   5.692  14.477 -0.1703  0.2558 -0.5170
14652TIP3    H165371   3.653   5.693  14.442  0.0181  1.0526 -0.9720
14652TIP3    H265372   3.798   5.716  14.403  0.3649  0.4310 -0.0626
14653TIP3   OH265373   5.029   3.007  12.080  0.7913  0.4637  0.1813
14653TIP3    H165374   5.002   3.097  12.097  2.1929  0.9995 -0.3336
14653TIP3    H265375   4.947   2.959  12.068  0.0298  1.6646  0.4935
14654TIP3   OH265376   6.533   2.544   3.402 -0.1835  0.1607 -0.3032
14654TIP3    H165377   6.578   2.628   3.390 -1.6657  1.0693  0.3577
14654TIP3    H265378   6.567   2.510   3.485 -0.8307  0.9192  0.2741
14655TIP3   OH265379   1.284   1.386   2.069 -0.1437 -0.0293 -0.2725
14655TIP3    H165380   1.193   1.363   2.050 -0.8315  1.8915  0.6162
14655TIP3    H265381   1.298   1.468   2.022  1.0477 -0.1596 -0.1528
14656TIP3   OH265382   5.935   5.493   4.439  0.1811 -0.0211 -0.5587
14656TIP3    H165383   5.913   5.571   4.387  1.0305  0.9309  0.4896
14656TIP3    H265384   5.969   5.431   4.375 -3.1285 -0.6276 -1.8780
14657TIP3   OH265385   1.464   4.342  11.068  0.1152 -0.2485  0.1688
14657TIP3    H165386   1.530   4.320  11.003 -0.6687 -2.5796  0.1025
14657TIP3    H265387   1.483   4.433  11.092  0.8434  0.4343 -2.7678
14658TIP3   OH265388   1.407   0.767  13.649  0.1583 -0.0104 -0.1965
14658TIP3    H165389   1.416   0.714  13.728  1.1718 -0.2580 -0.4634
14658TIP3    H265390   1.450   0.850  13.671 -0.2974  0.2315 -0.2089
14659TIP3   OH265391   4.703   5.439   0.279  0.4967 -0.9364  0.3446
14659TIP3    H165392   4.708   5.367   0.216  0.2320 -0.9130  0.2977
14659TIP3    H265393   4.610   5.457   0.288  0.5889 -0.1755 -0.1240
14660TIP3   OH265394   3.237   6.204   4.301  0.1539  0.3069  0.3345
14660TIP3    H165395   3.146   6.176   4.305  0.2036  0.1188  0.1572
14660TIP3    H265396   3.233   6.292   4.262  0.1855 -0.4111 -1.3288
14661TIP3   OH265397   0.610   2.451   6.114 -0.0445 -0.2709  0.1468
14661TIP3    H165398   0.688   2.395   6.115  0.6692  0.7245  2.3439
14661TIP3    H265399   0.629   2.520   6.176 -2.4962  0.2718  0.3409
14662TIP3   OH265400   2.120   4.717   5.460 -0.3888  0.1904 -0.0618
14662TIP3    H165401   2.126   4.684   5.370  0.7831 -0.8029  0.3733
14662TIP3    H265402   2.156   4.647   5.514  0.8153  1.5932  1.0014
14663TIP3   OH265403   0.838   4.428   0.909  0.0065  0.0029  0.4915
14663TIP3    H165404   0.920   4.420   0.957 -0.1409  0.7326  0.8733
14663TIP3    H265405   0.787   4.492   0.959 -0.7156 -0.2979  0.1515
14664TIP3   OH265406   3.567   3.667   1.115  0.2984  0.0045  0.0215
14664TIP3    H165407   3.596   3.587   1.070  0.2248  0.9782 -1.8381
14664TIP3    H265408   3.609   3.738   1.066  1.3801  1.0635  2.4237
14665TIP3   OH265409   4.567   4.413  16.280  0.5045  0.5375  0.3485
14665TIP3    H165410   4.503   4.371  16.337 -1.8430  0.4009 -2.3299
14665TIP3    H265411   4.562   4.506  16.302 -0.9864  0.5885 -0.2060
14666TIP3   OH265412   1.208   3.853  16.241  0.0053  0.1440  0.2088
14666TIP3    H165413   1.172   3.798  16.171 -0.7602  2.3215 -1.1369
14666TIP3    H265414   1.133   3.870  16.298  0.1708  0.1047  0.4395
14667TIP3   OH265415   3.740   2.786  13.630 -0.3566 -0.2168  0.1371
14667TIP3    H165416   3.740   2.839  13.550 -0.1999  0.6046  0.6707
14667TIP3    H265417   3.669   2.823  13.682  0.5428  0.2716  1.0350
14668TIP3   OH265418   5.941   6.063  14.603 -0.8083 -0.0063  0.3020
14668TIP3    H165419   5.956   6.126  14.674 -0.0010  1.5159 -1.1983
14668TIP3    H265420   5.866   6.099  14.555 -0.9736 -0.7201  0.0257
14669TIP3   OH265421   3.952   0.896   0.453 -0.6555  0.2299 -0.3294
14669TIP3    H165422   3.902   0.941   0.521  0.2369  0.2419  0.3228
14669TIP3    H265423   4.032   0.868   0.496 -0.5718 -0.7374 -1.1020
14670TIP3   OH265424   2.991   2.329   0.621  0.7399 -0.3958  0.1589
14670TIP3    H165425   3.072   2.363   0.658  0.3199  0.4646  0.2987
14670TIP3    H265426   2.923   2.357   0.682  0.3273 -1.0922  0.0322
14671TIP3   OH265427   0.467   0.442   2.585  0.4158  0.5443  0.2811
14671TIP3    H165428   0.522   0.519   2.594  1.3927 -0.0171 -0.7218
14671TIP3    H265429   0.378   0.474   2.600  0.7431  1.9932 -0.7653
14672TIP3   OH265430   2.653   1.773   5.829 -0.0800  0.1402  0.5694
14672TIP3    H165431   2.747   1.760   5.840  0.2765  1.5290 -0.7824
14672TIP3    H265432   2.623   1.693   5.785  0.7455  0.3908 -0.4601
14673TIP3   OH265433   1.480   4.678   5.932 -0.6344  0.8762 -0.3005
14673TIP3    H165434   1.541   4.667   6.005 -0.8326  0.8741 -0.1353
14673TIP3    H265435   1.499   4.604   5.874 -1.0677  0.3949  0.1706
14674TIP3   OH265436   6.697   3.019   1.169 -0.9389 -0.0783 -0.7045
14674TIP3    H165437   6.755   3.092   1.147 -1.5889  0.7483  0.2569
14674TIP3    H265438   6.749   2.941   1.152  0.7912  0.6707  0.9963
14675TIP3   OH265439   4.304   2.255   5.366 -0.4682  0.2509 -0.1324
14675TIP3    H165440   4.354   2.268   5.446  0.1296 -1.1827 -0.2576
14675TIP3    H265441   4.262   2.340   5.350 -0.2731  0.6714  1.4602
14676TIP3   OH265442   2.303   4.140  16.687  0.2197 -0.7759  0.0534
14676TIP3    H165443   2.294   4.164  16.595  0.3060 -2.6650 -0.4821
14676TIP3    H265444   2.234   4.187  16.732 -0.7996 -1.0305 -1.2275
14677TIP3   OH265445   2.581   1.553  10.546 -0.5514  0.1641  0.3181
14677TIP3    H165446   2.654   1.597  10.503 -0.8561 -0.5991 -1.0039
14677TIP3    H265447   2.585   1.463  10.514 -0.7468 -0.4432  1.9457
14678TIP3   OH265448   0.787   1.850   1.197 -0.8245 -0.0600 -0.0491
14678TIP3    H165449   0.820   1.893   1.118 -1.7357  0.6533 -0.0524
14678TIP3    H265450   0.852   1.783   1.217 -0.6429 -0.3224 -1.4720
14679TIP3   OH265451   4.229   6.405   0.326  0.6263  0.3086 -0.4547
14679TIP3    H165452   4.164   6.460   0.371  0.1606 -0.7696  0.1965
14679TIP3    H265453   4.272   6.357   0.397 -0.6896 -2.0516 -1.2276
14680TIP3   OH265454   4.857   2.975   4.156  0.6275  0.5313 -0.3776
14680TIP3    H165455   4.928   3.030   4.125  1.0806  1.2657  1.9100
14680TIP3    H265456   4.866   2.894   4.105  2.0233  1.2761 -1.3428
14681TIP3   OH265457   3.662   1.952   0.459  0.4926 -0.0197  0.1790
14681TIP3    H165458   3.606   1.931   0.384  2.2493 -0.1834 -1.1268
14681TIP3    H265459   3.706   2.033   0.434  0.9896  0.0071  1.0987
14682TIP3   OH265460   5.571   1.383  13.832 -0.8608 -0.6432  0.2725
14682TIP3    H165461   5.646   1.341  13.790 -1.1165  0.7857 -1.6402
14682TIP3    H265462   5.594   1.476  13.835 -2.1827 -0.3186  0.4782
14683TIP3   OH265463   3.618   5.901  11.251  0.0660 -0.3003 -0.8033
14683TIP3    H165464   3.623   5.979  11.196 -0.5228 -0.0019 -0.4394
14683TIP3    H265465   3.563   5.840  11.202 -0.8059  0.1251 -0.3526
14684TIP3   OH265466   0.061   5.091  10.312 -0.2920 -0.0258  0.3678
14684TIP3    H165467   0.095   5.004  10.292 -1.8801 -0.6155  0.1455
14684TIP3    H265468   0.129   5.131  10.365 -0.0647 -1.8883  1.5606
14685TIP3   OH265469   1.333   0.749   4.121  0.1359 -0.4192 -0.0952
14685TIP3    H165470   1.243   0.757   4.092  0.5117  1.6159 -0.7606
14685TIP3    H265471   1.339   0.804   4.199  0.8942 -0.2294 -0.2783
14686TIP3   OH265472   0.177   0.223   2.723 -0.4443 -0.2535  0.2089
14686TIP3    H165473   0.105   0.165   2.743  0.4779 -1.6336 -0.4084
14686TIP3    H265474   0.175   0.233   2.628  1.0024 -1.3981  0.0479
14687TIP3   OH265475   1.569   0.528   3.599  0.0683  0.4419  0.1517
14687TIP3    H165476   1.519   0.484   3.669 -0.0140 -0.8843 -0.7126
14687TIP3    H265477   1.585   0.616   3.633 -0.4406 -0.0037  1.6184
14688TIP3   OH265478   0.769   5.006  16.463 -0.1070  0.3129  0.2683
14688TIP3    H165479   0.810   5.008  16.376 -0.4103  2.0016  0.1464
14688TIP3    H265480   0.753   4.913  16.479  0.6331 -0.0904 -1.1626
14689TIP3   OH265481   4.426   6.093   1.311  0.4929 -0.2468  0.2205
14689TIP3    H165482   4.336   6.076   1.285  0.8343  0.4737 -1.4717
14689TIP3    H265483   4.427   6.075   1.405 -2.0000  2.0789  0.7573
14690TIP3   OH265484   6.703   0.221   5.534 -0.3859  0.0477 -0.1946
14690TIP3    H165485   6.732   0.202   5.445  0.3106 -0.5936  0.1628
14690TIP3    H265486   6.784   0.245   5.581 -0.5875 -0.6780  0.5336
14691TIP3   OH265487   0.244   5.269   2.139 -0.1688 -0.1504 -0.3700
14691TIP3    H165488   0.283   5.267   2.226  0.1456  0.2415 -0.4956
14691TIP3    H265489   0.182   5.342   2.142 -0.5962 -0.5154 -0.2942
14692TIP3   OH265490   4.759   2.704   3.740 -0.0214 -0.4595  0.1249
14692TIP3    H165491   4.706   2.761   3.684  0.0879  0.2189  0.7038
14692TIP3    H265492   4.783   2.759   3.815 -1.3454 -1.7683  1.5565
14693TIP3   OH265493   2.175   3.321  15.875 -0.4312  0.2688 -0.1304
14693TIP3    H165494   2.099   3.297  15.928 -1.1178 -0.4614 -1.3981
14693TIP3    H265495   2.240   3.352  15.938 -1.7493  0.8236  0.9873
14694TIP3   OH265496   4.683   3.523  13.399  0.6830 -0.4559  0.1025
14694TIP3    H165497   4.650   3.506  13.487  0.9072 -0.9813  0.0843
14694TIP3    H265498   4.774   3.493  13.401  0.9044  0.1917 -0.0989
14695TIP3   OH265499   2.771   3.638  14.520  0.4147 -0.1000 -0.3317
14695TIP3    H165500   2.759   3.675  14.433  3.1449  2.8188  0.4316
14695TIP3    H265501   2.839   3.571  14.508  0.5940  0.1114 -0.4986
14696TIP3   OH265502   3.449   0.254  16.296  0.2469 -0.2365 -0.3317
14696TIP3    H165503   3.420   0.241  16.386 -2.9854  1.9303 -0.9657
14696TIP3    H265504   3.534   0.297  16.304 -0.5731  1.0846  1.7137
14697TIP3   OH265505   1.231   2.782  16.220 -0.1616  1.0771 -0.2349
14697TIP3    H165506   1.143   2.816  16.202 -0.8316  0.5636  1.8574
14697TIP3    H265507   1.216   2.707  16.278  1.6200  0.5687 -0.4131
14698TIP3   OH265508   1.897   6.636   2.856  0.8925 -0.5704  0.3715
14698TIP3    H165509   1.850   6.677   2.783  0.6887 -0.9080  0.3128
14698TIP3    H265510   1.978   6.687   2.863  0.6041 -0.1069  0.3548
14699TIP3   OH265511   5.175   3.217   0.152 -0.6222 -0.4950 -0.3075
14699TIP3    H165512   5.160   3.137   0.102  3.1527 -0.1511 -2.1446
14699TIP3    H265513   5.181   3.189   0.243  0.5159 -2.3033 -0.9253
14700TIP3   OH265514   1.796   5.646   5.712  0.2219 -0.3907 -1.2557
14700TIP3    H165515   1.887   5.671   5.728  0.0983 -1.8651  2.3154
14700TIP3    H265516   1.746   5.726   5.730  0.6519 -0.2303 -0.7585
14701TIP3   OH265517   0.228   6.036  10.998  0.4169 -0.6119 -0.5684
14701TIP3    H165518   0.283   5.959  11.012  1.0931 -0.0299  0.0811
14701TIP3    H265519   0.261   6.074  10.917 -0.4467 -1.4471 -1.3108
14702TIP3   OH265520   5.186   2.295   2.586 -0.8298  0.5536 -0.5264
14702TIP3    H165521   5.265   2.339   2.618 -1.5100  0.6521  1.1011
14702TIP3    H265522   5.175   2.220   2.645 -1.1491 -0.2820 -1.6450
14703TIP3   OH265523   4.184   6.190   1.174 -0.2595 -0.2900 -0.0847
14703TIP3    H165524   4.099   6.180   1.131 -0.6163  1.4903  0.1891
14703TIP3    H265525   4.237   6.238   1.111 -0.0855  0.3634  0.5620
14704TIP3   OH265526   0.611   1.391  13.294  0.2025 -0.2233  0.2578
14704TIP3    H165527   0.563   1.406  13.376  1.7453  1.9384  0.8060
14704TIP3    H265528   0.568   1.448  13.230  1.4797  1.1063  0.5536
14705TIP3   OH265529   5.765   1.995   2.869 -0.1739  0.3621 -0.2799
14705TIP3    H165530   5.671   1.993   2.890 -0.1685  1.9845 -0.0366
14705TIP3    H265531   5.779   2.082   2.832  1.2560  0.1463 -0.2562
14706TIP3   OH265532   2.073   0.639  16.945 -0.2247  0.2736 -0.1660
14706TIP3    H165533   2.017   0.716  16.943 -1.3341 -0.5105 -0.0212
14706TIP3    H265534   2.017   0.568  16.912  0.9763 -0.3400 -0.9510
14707TIP3   OH265535   3.958   4.235   5.301 -0.1364 -0.0809 -0.2989
14707TIP3    H165536   3.964   4.154   5.352 -0.4982  0.1699  0.1381
14707TIP3    H265537   4.049   4.253   5.275  0.5332  1.4945  2.8711
14708TIP3   OH265538   0.260   0.082   0.953 -0.0771 -0.4373 -0.0354
14708TIP3    H165539   0.240   0.110   1.043  0.1702 -0.9660  0.1871
14708TIP3    H265540   0.294   0.161   0.911 -0.5900 -0.0769  0.2120
14709TIP3   OH265541   6.027   5.575  16.139  0.1051  0.4115 -0.4156
14709TIP3    H165542   5.938   5.610  16.146  0.0876  0.4445 -0.7849
14709TIP3    H265543   6.021   5.506  16.074  0.1331 -0.3345  0.3682
14710TIP3   OH265544   5.660   4.069  11.747  0.1394  0.2413  0.1012
14710TIP3    H165545   5.737   4.020  11.777 -0.8576 -0.4222  1.6418
14710TIP3    H265546   5.628   4.019  11.672 -0.0285 -0.7058  0.7853
14711TIP3   OH265547   1.954   2.788  11.017 -0.0863  0.1005 -0.6653
14711TIP3    H165548   1.932   2.698  11.043  0.0448  0.0213 -0.8236
14711TIP3    H265549   1.871   2.836  11.024  0.1172  0.2836  0.7242
14712TIP3   OH265550   4.572   1.429   3.510  0.1420  0.0188  0.0279
14712TIP3    H165551   4.551   1.522   3.511  0.3422  0.1728 -3.4624
14712TIP3    H265552   4.494   1.387   3.473  0.3454 -1.0962  0.8608
14713TIP3   OH265553   3.163   2.737  11.506  0.1920 -0.9103 -0.2378
14713TIP3    H165554   3.154   2.780  11.421 -1.9551 -2.9249 -1.1074
14713TIP3    H265555   3.150   2.806  11.570  0.0199  0.3127 -1.5775
14714TIP3   OH265556   3.407   3.334  11.861 -0.0298 -0.1676  0.2456
14714TIP3    H165557   3.404   3.388  11.939 -1.9216 -3.3131  2.4376
14714TIP3    H265558   3.486   3.280  11.872 -1.6852 -2.4315  1.2904
14715TIP3   OH265559   5.757   1.416   5.978 -0.3173  0.4608 -0.3500
14715TIP3    H165560   5.849   1.426   5.952  0.1760 -3.6236 -0.5189
14715TIP3    H265561   5.709   1.461   5.909  1.5004  1.0615 -1.2821
14716TIP3   OH265562   1.197   1.738  16.619 -0.1898  0.3076  0.7821
14716TIP3    H165563   1.250   1.817  16.628 -0.9797  0.8662  0.5488
14716TIP3    H265564   1.200   1.697  16.705  1.0516  0.0609  0.6204
14717TIP3   OH265565   1.170   1.776  13.382 -0.1021 -0.0053 -0.3738
14717TIP3    H165566   1.101   1.840  13.401 -0.3607  0.0077 -1.3547
14717TIP3    H265567   1.251   1.827  13.385 -0.1263 -0.0166  0.7667
14718TIP3   OH265568   0.079   0.984  10.891  0.0324 -0.3822 -0.1681
14718TIP3    H165569   0.022   1.042  10.840 -0.6232 -0.4305  0.4989
14718TIP3    H265570   0.019   0.922  10.932  0.6537 -0.9838 -0.1663
14719TIP3   OH265571   6.370   2.916   0.421 -0.2091 -0.1057 -0.5233
14719TIP3    H165572   6.413   2.830   0.423  1.6445  0.8015  0.3364
14719TIP3    H265573   6.323   2.917   0.338  1.0513 -1.3587 -1.2800
14720TIP3   OH265574   5.691   0.820  11.645 -0.0005 -0.1419  0.2320
14720TIP3    H165575   5.713   0.890  11.585 -2.0070 -0.4458 -0.9314
14720TIP3    H265576   5.730   0.741  11.606  0.9016  0.0699  0.7027
14721TIP3   OH265577   4.408   0.361  12.123 -0.5015  0.1664  0.2476
14721TIP3    H165578   4.493   0.320  12.114 -0.1185  0.9028  0.4637
14721TIP3    H265579   4.369   0.357  12.036 -0.3163 -0.3081  0.1867
14722TIP3   OH265580   4.919   0.419   0.215  0.7364  0.0851  0.0958
14722TIP3    H165581   4.979   0.346   0.227  1.0288  0.3910  0.4956
14722TIP3    H265582   4.972   0.498   0.231  0.1363  0.3392  0.8989
14723TIP3   OH265583   1.613   1.522  16.535  0.3742  0.0011  0.5306
14723TIP3    H165584   1.622   1.575  16.456  0.2961  1.5010  1.5290
14723TIP3    H265585   1.542   1.461  16.514  1.5578 -0.8328 -1.2192
14724TIP3   OH265586   1.891   4.086  15.291 -0.0945  0.1221 -0.2643
14724TIP3    H165587   1.812   4.039  15.267  1.1917 -1.8965 -0.6322
14724TIP3    H265588   1.961   4.021  15.286  1.4572  1.6313  0.9821
14725TIP3   OH265589   4.212   0.069   3.778  0.6890 -0.6351 -0.4675
14725TIP3    H165590   4.225   0.154   3.736 -1.6806  0.2024  0.4173
14725TIP3    H265591   4.125   0.041   3.750 -0.3402 -0.7463  2.6227
14726TIP3   OH265592   6.552   4.043   4.785 -0.0215 -0.3589 -0.2186
14726TIP3    H165593   6.633   4.079   4.820 -0.0435 -0.8200  0.2970
14726TIP3    H265594   6.577   4.001   4.703  0.2019 -0.1969 -0.2328
14727TIP3   OH265595   0.981   6.320   0.048 -0.4008  0.2982  0.4428
14727TIP3    H165596   1.044   6.386   0.019  1.6407 -1.6173  0.3621
14727TIP3    H265597   0.946   6.283  -0.033  2.4614 -2.3922  0.3460
14728TIP3   OH265598   6.039   4.351   0.818 -0.2738  0.2279 -0.5875
14728TIP3    H165599   6.092   4.281   0.780 -0.5689 -0.4824  0.3050
14728TIP3    H265600   5.957   4.309   0.842 -0.2793  0.7793  0.3739
14729TIP3   OH265601   5.489   4.732   1.085  0.8376  0.0394 -0.0752
14729TIP3    H165602   5.549   4.801   1.113  0.0563  0.9062 -0.4920
14729TIP3    H265603   5.507   4.720   0.992  0.2080  0.4922 -0.2666
14730TIP3   OH265604   1.483   2.690   2.216 -0.0378  0.1642 -0.2811
14730TIP3    H165605   1.404   2.667   2.265  0.8293  0.5713  1.3181
14730TIP3    H265606   1.535   2.743   2.276  1.4045  0.0071 -1.3549
14731TIP3   OH265607   2.560   3.959   0.332  0.1255  0.1002 -0.0285
14731TIP3    H165608   2.618   3.968   0.408  0.2486 -0.3658 -0.0639
14731TIP3    H265609   2.619   3.963   0.257  0.2311 -1.3675 -0.0292
14732TIP3   OH265610   3.384   2.832   5.047 -0.2117 -0.0523  0.2237
14732TIP3    H165611   3.296   2.820   5.083 -0.6900 -0.8006 -1.1404
14732TIP3    H265612   3.425   2.896   5.104 -1.3099 -0.4227  1.4579
14733TIP3   OH265613   4.010   2.835   2.531  0.5820  0.4101 -0.0647
14733TIP3    H165614   3.925   2.869   2.502  0.5734  1.3691  1.0467
14733TIP3    H265615   4.062   2.827   2.451  0.2180  1.9922 -0.4680
14734TIP3   OH265616   6.168   1.616   3.408  1.2680  0.4946  0.2351
14734TIP3    H165617   6.263   1.603   3.404  1.0819 -0.2484 -2.8413
14734TIP3    H265618   6.157   1.711   3.410  2.0802  0.5889  0.4297
14735TIP3   OH265619   3.945   6.104  15.339 -0.3485  0.0310 -0.4102
14735TIP3    H165620   3.896   6.136  15.263 -0.3271 -0.1163 -0.4855
14735TIP3    H265621   3.917   6.161  15.410 -3.8865 -2.7446  0.5643
14736TIP3   OH265622   0.560   3.458  12.436  0.0051 -0.1238 -0.0177
14736TIP3    H165623   0.543   3.413  12.518  3.8555 -1.4982  0.1272
14736TIP3    H265624   0.568   3.550  12.460 -3.1795  0.0806  0.4189
14737TIP3   OH265625   0.216   1.609   0.412  0.3169  0.6374 -0.2792
14737TIP3    H165626   0.275   1.669   0.366 -0.5648  1.3007 -0.5531
14737TIP3    H265627   0.211   1.642   0.501  0.5827  0.4105 -0.1783
14738TIP3   OH265628   1.440   3.545  12.256 -0.0659  0.2618 -0.9302
14738TIP3    H165629   1.364   3.594  12.286 -0.6555 -1.5672  0.6711
14738TIP3    H265630   1.404   3.467  12.214  0.8982 -0.1708 -0.9796
14739TIP3   OH265631   4.962   2.882   1.922  0.3709  0.8252  0.1180
14739TIP3    H165632   4.949   2.967   1.965 -2.4846  0.3109  0.3818
14739TIP3    H265633   4.914   2.890   1.839 -0.6939 -0.8135  0.5469
14740TIP3   OH265634   5.427   1.785  16.970 -0.2247  0.2011  0.2658
14740TIP3    H165635   5.506   1.770  16.919 -1.1581 -1.7634 -0.6682
14740TIP3    H265636   5.456   1.780  17.061  0.6191 -1.1819 -0.0688
14741TIP3   OH265637   6.760   4.498  14.360 -0.8069 -0.3052 -1.1838
14741TIP3    H165638   6.699   4.558  14.405 -0.0067 -0.1944 -0.2197
14741TIP3    H265639   6.793   4.442  14.430  2.3408  1.4475 -1.1448
14742TIP3   OH265640   2.305   6.543  14.263 -0.1301 -0.1597 -0.3490
14742TIP3    H165641   2.248   6.469  14.240  2.3971 -1.6911 -1.8742
14742TIP3    H265642   2.351   6.563  14.182  0.4364  2.0404  0.4931
14743TIP3   OH265643   0.485   6.249   6.392 -0.2126  0.3705  0.0471
14743TIP3    H165644   0.465   6.156   6.388 -1.5072  0.6283  0.4343
14743TIP3    H265645   0.579   6.254   6.374  0.1918 -1.1382  1.6387
14744TIP3   OH265646   6.325   6.783   0.730  0.4164  0.1537 -0.4054
14744TIP3    H165647   6.318   6.797   0.636 -0.4431 -1.8406 -0.6683
14744TIP3    H265648   6.294   6.865   0.769  0.2111  0.7795 -1.8489
14745TIP3   OH265649   0.991   2.540   5.255  0.4478  0.0390 -0.2144
14745TIP3    H165650   1.040   2.601   5.200 -1.1772  1.6139  0.0075
14745TIP3    H265651   0.945   2.482   5.194 -0.2552  0.8932 -0.5120
14746TIP3   OH265652   2.899   1.980   2.977 -0.6452 -0.3934  0.4190
14746TIP3    H165653   2.911   2.074   2.959 -1.2752  0.0004  1.9776
14746TIP3    H265654   2.987   1.949   2.999 -0.1567 -0.5264 -1.6031
14747TIP3   OH265655   0.902   5.828  10.743  0.1876 -0.1604 -0.0476
14747TIP3    H165656   0.855   5.879  10.676  0.2261 -0.0294  0.0248
14747TIP3    H265657   0.916   5.890  10.814 -1.7080 -0.8568  0.9666
14748TIP3   OH265658   5.310   2.999   3.292 -0.3784  0.4609 -0.3897
14748TIP3    H165659   5.233   2.964   3.336 -1.0807  0.3002 -1.7284
14748TIP3    H265660   5.280   3.078   3.248  0.1460  0.2714 -1.1178
14749TIP3   OH265661   6.288   3.298  16.541  0.6991  0.0309  0.7357
14749TIP3    H165662   6.336   3.256  16.612  3.4702  0.7614 -0.6422
14749TIP3    H265663   6.299   3.239  16.467 -2.3359 -0.8181  0.8625
14750TIP3   OH265664   0.199   4.480  15.005 -0.1859 -0.9314 -0.3725
14750TIP3    H165665   0.150   4.398  15.001 -0.7428 -0.6008 -0.3780
14750TIP3    H265666   0.182   4.523  14.921 -0.4240 -0.5100 -0.1123
14751TIP3   OH265667   2.719   0.322  12.056 -0.5779  0.1344 -0.1256
14751TIP3    H165668   2.764   0.406  12.056 -0.7799  0.2519 -1.4334
14751TIP3    H265669   2.741   0.283  12.141  1.8379  0.2754 -0.6436
14752TIP3   OH265670   4.042   2.852   5.262  0.0791  0.2378 -0.3128
14752TIP3    H165671   4.094   2.880   5.337  1.0637 -0.0198 -0.8794
14752TIP3    H265672   4.079   2.900   5.188 -1.2340  0.8988 -0.5507
14753TIP3   OH265673   2.226   5.071   4.023  0.1397  0.0008  0.3170
14753TIP3    H165674   2.263   5.085   3.936 -0.7957 -1.3514 -0.3098
14753TIP3    H265675   2.135   5.098   4.015  0.5875  1.9799  1.4876
14754TIP3   OH265676   4.122   1.790  15.543  0.1654 -1.3504 -0.7978
14754TIP3    H165677   4.054   1.836  15.493  0.7275 -1.5000 -1.6974
14754TIP3    H265678   4.116   1.828  15.631 -1.1143 -1.3879 -0.8607
14755TIP3   OH265679   2.793   1.495   3.473 -0.3361 -0.0891 -0.7021
14755TIP3    H165680   2.731   1.567   3.464 -0.7820 -0.3387  0.3268
14755TIP3    H265681   2.877   1.538   3.491 -1.0669  0.1485  2.5328
14756TIP3   OH265682   3.653   2.738  14.386  0.0717 -0.0606  0.0483
14756TIP3    H165683   3.715   2.774  14.449  0.1038 -0.7069  0.3906
14756TIP3    H265684   3.658   2.797  14.311  2.5486 -1.1759 -0.7174
14757TIP3   OH265685   0.496   5.754  10.617 -0.5706  0.2510 -0.1497
14757TIP3    H165686   0.479   5.848  10.604  0.4994  0.5768  0.7580
14757TIP3    H265687   0.419   5.711  10.580 -0.9059  1.4724 -0.9093
14758TIP3   OH265688   1.176   3.401   2.243  0.2292 -0.0961  0.6534
14758TIP3    H165689   1.183   3.375   2.335 -1.8123 -2.6287  0.1573
14758TIP3    H265690   1.220   3.332   2.194 -2.0690 -0.8147 -0.4874
14759TIP3   OH265691   0.445   6.772   3.874 -0.5016 -0.1331  0.1077
14759TIP3    H165692   0.476   6.738   3.958  0.8724 -0.3963 -0.4954
14759TIP3    H265693   0.520   6.765   3.815 -0.8390  1.9124 -0.6298
14760TIP3   OH265694   1.316   1.863   3.775  0.2343  0.8581  0.0520
14760TIP3    H165695   1.229   1.860   3.735  1.0312  2.3549 -1.8524
14760TIP3    H265696   1.309   1.933   3.841  0.2144  1.5479 -0.6704
14761TIP3   OH265697   0.771   2.204  13.836  0.3015  0.3381  0.6875
14761TIP3    H165698   0.812   2.250  13.763  0.2624 -0.5877  0.0720
14761TIP3    H265699   0.741   2.274  13.894  0.2740  1.0908 -0.2144
14762TIP3   OH265700   0.189   4.826  16.722 -0.1515  0.6946 -0.1096
14762TIP3    H165701   0.260   4.800  16.663 -0.5157 -1.1936  0.2597
14762TIP3    H265702   0.202   4.920  16.734  1.8391  0.5232 -0.6376
14763TIP3   OH265703   2.054   1.881  12.347  0.0833  0.2005  0.5935
14763TIP3    H165704   2.081   1.880  12.255  0.5502  2.8261  0.6759
14763TIP3    H265705   2.038   1.973  12.367 -1.8863 -0.5399  2.6203
14764TIP3   OH265706   5.539   6.392   4.093 -0.3934 -0.1637 -0.2415
14764TIP3    H165707   5.504   6.349   4.015  0.3780  0.5147 -0.9690
14764TIP3    H265708   5.623   6.427   4.065  0.4038 -0.8706  1.2030
14765TIP3   OH265709   6.090   4.263   4.244  0.2619  0.5145 -0.0400
14765TIP3    H165710   6.029   4.219   4.184  0.2088  1.2001 -0.4985
14765TIP3    H265711   6.059   4.240   4.331 -1.3369  1.7713 -0.2555
14766TIP3   OH265712   0.614   2.191  15.960 -0.0601  0.1606 -1.0115
14766TIP3    H165713   0.549   2.154  16.019  1.3654 -2.8479 -1.2390
14766TIP3    H265714   0.684   2.222  16.018  0.1081 -0.2950 -0.9674
14767TIP3   OH265715   6.442   3.863   4.298  0.4035 -0.7378  0.2659
14767TIP3    H165716   6.375   3.854   4.230 -0.6511  0.2598  1.1502
14767TIP3    H265717   6.479   3.776   4.307 -1.8146 -1.6615  0.7965
14768TIP3   OH265718   3.558   1.751  16.303  0.0347 -0.1726 -0.6060
14768TIP3    H165719   3.567   1.752  16.208  0.6305  0.2473 -0.5406
14768TIP3    H265720   3.467   1.724  16.318 -0.2648  0.4489 -1.3019
14769TIP3   OH265721   4.933   1.944  15.642 -0.0195 -0.6815  0.3552
14769TIP3    H165722   4.857   1.998  15.618 -0.9324 -1.4921  1.3734
14769TIP3    H265723   4.936   1.876  15.575 -1.0377 -1.4546  1.0730
14770TIP3   OH265724   5.395   2.069   4.700  0.1238 -0.0042  0.0741
14770TIP3    H165725   5.306   2.056   4.668  0.3401 -0.3346 -0.4034
14770TIP3    H265726   5.387   2.067   4.796 -0.4032  0.1511  0.0345
14771TIP3   OH265727   5.032   6.648  16.869  0.4373  0.1016 -0.4921
14771TIP3    H165728   4.967   6.717  16.884  0.6327  0.0609  0.6099
14771TIP3    H265729   4.981   6.572  16.843  0.0534  0.1352  0.1487
14772TIP3   OH265730   3.728   3.974  15.869  0.8731  0.3709 -0.4670
14772TIP3    H165731   3.785   4.043  15.836  1.7270 -1.1036 -2.1790
14772TIP3    H265732   3.787   3.905  15.899  0.0358  0.0146  0.3957
14773TIP3   OH265733   3.118   1.837   0.330 -0.5211  0.3950  0.1625
14773TIP3    H165734   3.193   1.777   0.334  0.1564  1.1632 -0.9357
14773TIP3    H265735   3.144   1.911   0.385 -1.3077 -0.2406  1.4176
14774TIP3   OH265736   2.540   0.348   2.480 -0.7279  0.6350 -0.4982
14774TIP3    H165737   2.631   0.320   2.485 -1.1801 -0.8402 -0.2362
14774TIP3    H265738   2.497   0.303   2.552 -2.2909 -1.1971 -2.4998
14775TIP3   OH265739   1.143   6.339  15.349 -0.1096  0.3653 -0.1449
14775TIP3    H165740   1.085   6.413  15.367 -1.1206 -0.7729  1.4004
14775TIP3    H265741   1.148   6.335  15.253  0.9304  3.1599 -0.2457
14776TIP3   OH265742   0.765   1.115   2.286  0.1786 -0.0713  0.4464
14776TIP3    H165743   0.812   1.165   2.352 -0.8298  1.2803  0.1567
14776TIP3    H265744   0.834   1.086   2.225  0.7560  1.0651  0.5445
14777TIP3   OH265745   1.329   6.578  15.192  1.0338 -0.0100  0.1467
14777TIP3    H165746   1.312   6.628  15.272  0.0110  0.2046 -0.1943
14777TIP3    H265747   1.248   6.530  15.177  0.7775  0.9054 -1.4507
14778TIP3   OH265748   1.740   6.213   4.834 -0.2405  0.2118  0.4740
14778TIP3    H165749   1.695   6.131   4.856  0.3486  0.2063  1.7003
14778TIP3    H265750   1.821   6.211   4.885 -1.4325  2.7642  2.5862
14779TIP3   OH265751   6.440   2.155   3.103 -0.3490 -0.3553 -0.4805
14779TIP3    H165752   6.397   2.225   3.055  0.8105  0.7634  0.0922
14779TIP3    H265753   6.501   2.199   3.162  2.3364 -1.9214 -1.9627
14780TIP3   OH265754   4.799   0.212   0.891 -0.0977 -0.0569 -0.3553
14780TIP3    H165755   4.774   0.119   0.884  0.4820 -0.3355  0.9949
14780TIP3    H265756   4.720   0.260   0.867 -0.5696 -0.9098 -0.5361
14781TIP3   OH265757   2.019   3.525   5.867  0.1841  0.1604 -0.3069
14781TIP3    H165758   2.052   3.498   5.953 -0.1673 -0.0121 -0.2243
14781TIP3    H265759   2.037   3.450   5.810 -0.5514 -0.1468 -0.1387
14782TIP3   OH265760   0.947   3.171  16.145 -0.4472  0.9172  0.2822
14782TIP3    H165761   0.932   3.082  16.175  1.4760  0.3674 -0.3331
14782TIP3    H265762   0.874   3.221  16.181 -0.6564 -0.5881  2.0140
14783TIP3   OH265763   4.461   0.640  10.908 -0.4242  0.0819  0.3852
14783TIP3    H165764   4.488   0.731  10.915 -0.5012  0.0688  0.8586
14783TIP3    H265765   4.543   0.592  10.891 -0.6047  0.4311 -1.6719
14784TIP3   OH265766   2.802   0.224   1.635  0.7672 -0.5226  0.3675
14784TIP3    H165767   2.856   0.187   1.566 -0.0953  0.3543 -0.8017
14784TIP3    H265768   2.782   0.313   1.606 -2.9961 -1.4802 -0.2699
14785TIP3   OH265769   5.189   3.444   0.869 -0.1332  0.9675  0.1994
14785TIP3    H165770   5.203   3.358   0.829 -0.4300  1.0515 -0.0886
14785TIP3    H265771   5.177   3.503   0.795 -0.7373  1.1176  0.4088
14786TIP3   OH265772   4.866   2.144  11.043  0.3999  0.4611  0.4360
14786TIP3    H165773   4.838   2.227  11.004  0.8171  0.3594 -0.0824
14786TIP3    H265774   4.803   2.080  11.011 -0.2418  0.6689  1.2689
14787TIP3   OH265775   3.389   3.362  15.533  0.1376 -0.8736  0.1519
14787TIP3    H165776   3.411   3.416  15.457 -1.5214  0.6727  0.7498
14787TIP3    H265777   3.311   3.314  15.507 -0.5092 -0.2469  0.9182
14788TIP3   OH265778   5.378   3.147  14.056 -0.3796  0.9160  0.0947
14788TIP3    H165779   5.380   3.053  14.076 -0.6130  0.8930  0.0011
14788TIP3    H265780   5.308   3.157  13.992 -2.3304  1.5895  2.2572
14789TIP3   OH265781   3.801   6.683  11.422  0.5621 -0.5735 -0.1511
14789TIP3    H165782   3.822   6.766  11.380 -0.5008 -1.0737 -1.7104
14789TIP3    H265783   3.880   6.629  11.409  0.2944 -0.6765 -1.4117
14790TIP3   OH265784   1.741   2.053   5.922  0.4775 -0.0476  0.3290
14790TIP3    H165785   1.738   1.981   5.985 -1.3414 -0.2381  0.0549
14790TIP3    H265786   1.699   2.126   5.967  1.7807  0.6917  0.3814
14791TIP3   OH265787   3.397   2.659  14.276  0.5532  0.4611  0.6258
14791TIP3    H165788   3.488   2.660  14.307  0.6332  2.2209  0.3832
14791TIP3    H265789   3.351   2.717  14.338 -0.1415  0.5778 -0.0027
14792TIP3   OH265790   4.334   6.376   1.480  0.1178  0.8679 -0.2002
14792TIP3    H165791   4.292   6.383   1.566 -1.0578  0.9817 -0.7778
14792TIP3    H265792   4.262   6.383   1.417  0.8349 -0.2820 -1.1718
14793TIP3   OH265793   6.655   0.828  11.015 -0.0305  0.4205 -0.0251
14793TIP3    H165794   6.597   0.788  10.951  0.0348  0.6490 -0.2282
14793TIP3    H265795   6.597   0.882  11.069 -0.1324 -0.0332  0.3145
14794TIP3   OH265796   3.621   3.032  11.497 -0.0640 -0.0804 -0.7131
14794TIP3    H165797   3.663   3.076  11.571  2.6023 -1.1145 -1.5601
14794TIP3    H265798   3.584   2.952  11.536 -0.0114  0.1279 -0.2291
14795TIP3   OH265799   4.075   2.666   6.098  0.4296  0.0923 -0.2511
14795TIP3    H165800   4.002   2.624   6.052 -0.5288 -1.2773  2.4075
14795TIP3    H265801   4.100   2.604   6.166  0.8883  2.6023  1.9465
14796TIP3   OH265802   4.367   0.648  13.834 -0.4505 -0.4059  0.0664
14796TIP3    H165803   4.307   0.670  13.763  0.5338  0.7327 -0.4234
14796TIP3    H265804   4.386   0.555  13.821 -0.2800 -0.2100 -1.1493
14797TIP3   OH265805   0.822   2.662  14.592  0.1083  0.0919 -0.0327
14797TIP3    H165806   0.874   2.692  14.667 -1.9509  2.4274  0.5188
14797TIP3    H265807   0.752   2.609  14.631 -0.3125  0.3699 -0.4116
14798TIP3   OH265808   0.346   5.112  15.463  0.3036 -0.2375  0.0899
14798TIP3    H165809   0.261   5.083  15.495  0.5033 -0.5040  0.3720
14798TIP3    H265810   0.325   5.160  15.382 -0.0102 -1.2622 -0.4443
14799TIP3   OH265811   0.574   4.894  11.438  0.1015  0.3681 -0.3731
14799TIP3    H165812   0.646   4.871  11.379 -0.3422 -1.1974 -0.3233
14799TIP3    H265813   0.543   4.810  11.472 -1.4180  1.0598  0.0016
14800TIP3   OH265814   1.759   4.149  12.316  0.0760  0.5973  0.9113
14800TIP3    H165815   1.847   4.119  12.340 -0.1993 -0.7975  0.2673
14800TIP3    H265816   1.703   4.117  12.387 -0.0433  0.6693  0.8479
14801TIP3   OH265817   2.880   4.426  14.558 -0.3455  0.2149 -0.1093
14801TIP3    H165818   2.944   4.468  14.500 -1.3844  0.3488 -1.1679
14801TIP3    H265819   2.919   4.341  14.578  0.0909  0.2279 -0.8886
14802TIP3   OH265820   0.818   2.136   2.283 -0.3808  0.0811  0.4649
14802TIP3    H165821   0.804   2.126   2.189 -2.4650 -1.1997  0.8706
14802TIP3    H265822   0.855   2.223   2.293  0.4204  0.0033 -1.5893
14803TIP3   OH265823   3.234   4.136   1.008  0.2924 -0.2894 -0.1115
14803TIP3    H165824   3.274   4.076   1.071 -2.1145 -1.0095  0.8253
14803TIP3    H265825   3.224   4.084   0.928  0.8121 -0.2442 -0.2058
14804TIP3   OH265826   1.118   2.239  10.873  0.2513  0.0768  0.1983
14804TIP3    H165827   1.088   2.169  10.932 -0.2228 -0.5639 -0.8022
14804TIP3    H265828   1.163   2.194  10.802  0.1910  0.8050 -0.3090
14805TIP3   OH265829   5.044   5.408   2.243 -0.0220  0.0747  0.4039
14805TIP3    H165830   5.083   5.420   2.156 -1.7068 -0.4569 -0.4352
14805TIP3    H265831   4.974   5.473   2.247  2.2899  2.5729  2.7729
14806TIP3   OH265832   0.438   1.911  14.838 -0.0028 -0.2062 -0.1793
14806TIP3    H165833   0.486   1.879  14.761  0.7138  1.9563 -0.6588
14806TIP3    H265834   0.452   1.844  14.905 -0.0352 -1.7705 -1.6930
14807TIP3   OH265835   2.649   0.470  14.971  0.1657  0.2959  0.1178
14807TIP3    H165836   2.671   0.379  14.987  0.0099  0.0902 -0.8147
14807TIP3    H265837   2.724   0.520  15.003  1.4989 -0.3271 -1.9434
14808TIP3   OH265838   2.416   2.723   3.191  0.9846 -0.1321 -0.5672
14808TIP3    H165839   2.502   2.750   3.159  1.0269  0.2218 -0.1564
14808TIP3    H265840   2.431   2.698   3.283  0.4880  0.7398 -0.2446
14809TIP3   OH265841   0.840   4.304   0.651  0.2873  0.4637  0.1373
14809TIP3    H165842   0.935   4.310   0.641  0.3506  0.1102  0.5264
14809TIP3    H265843   0.820   4.355   0.729  0.1348  0.6721 -0.0341
14810TIP3   OH265844   2.451   1.042   4.998  0.4933  0.4325  0.3515
14810TIP3    H165845   2.413   1.029   4.911  0.6943  0.1244  0.3101
14810TIP3    H265846   2.543   1.021   4.987  0.3663 -0.4134  0.8241
14811TIP3   OH265847   6.651   1.469  15.210 -0.1914 -0.0248  0.2845
14811TIP3    H165848   6.648   1.381  15.173  0.6940  0.6896 -1.5192
14811TIP3    H265849   6.589   1.466  15.283 -0.9513 -1.8389 -0.4125
14812TIP3   OH265850   5.209   6.182  11.067 -0.3224  0.1702  0.4807
14812TIP3    H165851   5.190   6.143  10.982  0.3621  0.1698  0.3210
14812TIP3    H265852   5.249   6.111  11.118 -0.7176  0.1744  0.7959
14813TIP3   OH265853   2.035   0.403   1.013 -0.4931 -0.5909 -0.0852
14813TIP3    H165854   2.081   0.426   1.094  0.0378  0.0615 -0.5668
14813TIP3    H265855   2.099   0.420   0.944 -1.3810  0.0934 -0.7493
14814TIP3   OH265856   6.081   1.040   4.628 -0.4115 -0.2878  0.0289
14814TIP3    H165857   6.096   0.971   4.564  2.1554  1.5016 -1.3883
14814TIP3    H265858   6.156   1.036   4.687 -0.5138  0.8967  0.2710
14815TIP3   OH265859   6.639   5.532   3.111 -0.1979 -0.1680  0.0986
14815TIP3    H165860   6.659   5.623   3.089 -0.5767 -0.3145 -0.8524
14815TIP3    H265861   6.707   5.481   3.068 -0.9872 -0.4594 -0.8214
14816TIP3   OH265862   6.049   3.726   5.363  0.6299 -0.5188  0.1305
14816TIP3    H165863   6.000   3.677   5.428  3.0941 -3.9452 -0.4920
14816TIP3    H265864   6.001   3.713   5.281 -0.3516  0.6294  0.5073
14817TIP3   OH265865   2.262   0.772   4.870 -0.4003  0.4978  0.4374
14817TIP3    H165866   2.289   0.854   4.829  3.5790 -1.2293 -0.6359
14817TIP3    H265867   2.199   0.734   4.809 -1.7303  2.3347  0.6066
14818TIP3   OH265868   4.164   6.457   5.270 -0.2700  0.3584 -0.1439
14818TIP3    H165869   4.069   6.448   5.262 -0.0006 -1.3612 -1.8768
14818TIP3    H265870   4.189   6.387   5.330  0.1019 -0.4100 -1.1870
14819TIP3   OH265871   0.144   6.621   0.446  0.1111 -0.3386 -0.4610
14819TIP3    H165872   0.225   6.576   0.470  0.0180 -0.5416 -0.5311
14819TIP3    H265873   0.084   6.603   0.517  0.9596  1.9975  0.8970
14820TIP3   OH265874   6.079   4.264   0.191  0.0213  0.5044 -0.4907
14820TIP3    H165875   6.131   4.212   0.253 -0.3558 -0.7065 -1.1819
14820TIP3    H265876   6.078   4.352   0.229  0.0752 -0.1507  1.0523
14821TIP3   OH265877   3.876   0.361  16.133  0.0550  0.4175  0.2296
14821TIP3    H165878   3.870   0.454  16.113  0.3344  0.5756  0.8544
14821TIP3    H265879   3.790   0.325  16.111  0.4435  0.5251 -1.5079
14822TIP3   OH265880   2.081   1.609  11.789  0.0517  0.0258 -0.3319
14822TIP3    H165881   2.157   1.581  11.840 -0.9182 -1.6988  0.2110
14822TIP3    H265882   2.007   1.598  11.848 -0.6145  1.9569 -0.7688
14823TIP3   OH265883   5.805   5.251   3.598  0.1152 -0.6464 -0.7896
14823TIP3    H165884   5.875   5.209   3.548  2.7835  2.5633  0.1034
14823TIP3    H265885   5.760   5.306   3.533 -0.2433 -1.0786 -0.9105
14824TIP3   OH265886   2.570   4.111   2.881 -0.3587 -0.0168  0.2723
14824TIP3    H165887   2.482   4.145   2.866 -0.1647 -0.3858 -1.7102
14824TIP3    H265888   2.557   4.027   2.925 -0.9729  0.0448  0.2007
14825TIP3   OH265889   2.913   5.117   2.146 -0.0809  0.4239  0.0540
14825TIP3    H165890   2.915   5.077   2.059 -0.5129  0.0525  0.2186
14825TIP3    H265891   2.837   5.175   2.145 -1.2135 -1.0350  0.8349
14826TIP3   OH265892   6.104   2.816   0.312 -0.4313 -0.4767  0.2709
14826TIP3    H165893   6.068   2.900   0.339 -0.5016 -0.6698  0.8018
14826TIP3    H265894   6.096   2.815   0.217  1.1217  0.8147  0.1095
14827TIP3   OH265895   2.604   4.268   0.958 -0.5850 -0.1608  0.3978
14827TIP3    H165896   2.597   4.278   0.863 -0.7784 -2.5858  0.1081
14827TIP3    H265897   2.698   4.271   0.975 -0.5126 -0.3621  0.0448
14828TIP3   OH265898   1.583   1.643   0.327 -0.0822  0.2066 -0.2823
14828TIP3    H165899   1.521   1.685   0.267 -0.2628  1.4104  0.7251
14828TIP3    H265900   1.553   1.669   0.414 -1.0262 -3.1711  0.4708
14829TIP3   OH265901   5.643   1.692   4.061  0.0174  0.2466 -0.2758
14829TIP3    H165902   5.677   1.652   3.981  1.8620 -0.7491  0.9860
14829TIP3    H265903   5.657   1.627   4.129 -0.1354  1.6818  1.1604
14830TIP3   OH265904   2.718   0.395   3.898 -0.1276  0.5762 -0.2780
14830TIP3    H165905   2.636   0.425   3.938 -2.0070 -2.0629 -1.9244
14830TIP3    H265906   2.711   0.423   3.806  1.1255  0.9145 -0.2730
14831TIP3   OH265907   5.176   6.079  15.323 -0.0293  0.5108  0.2910
14831TIP3    H165908   5.224   6.046  15.247 -0.1785 -0.5638  0.6536
14831TIP3    H265909   5.231   6.058  15.398 -0.1438  1.0576  0.5306
14832TIP3   OH265910   1.086   2.929   3.166  0.4813 -0.3761 -0.4840
14832TIP3    H165911   0.994   2.905   3.168  0.7543 -1.3178  1.4130
14832TIP3    H265912   1.088   3.011   3.117 -1.6168  0.7317  1.1915
14833TIP3   OH265913   5.759   3.475   2.610  0.2584 -0.5136 -0.2039
14833TIP3    H165914   5.768   3.436   2.523 -1.5184 -0.4666 -0.4240
14833TIP3    H265915   5.727   3.404   2.666  0.3652 -0.2713  0.1712
14834TIP3   OH265916   6.400   1.307   5.695 -0.8838  0.0641 -0.3566
14834TIP3    H165917   6.390   1.219   5.660 -0.5359  0.4194 -1.4014
14834TIP3    H265918   6.440   1.357   5.623 -0.1921  0.8430  0.5419
14835TIP3   OH265919   2.373   6.158  17.172 -0.3807  0.1760 -0.2232
14835TIP3    H165920   2.462   6.125  17.159 -0.5045 -0.2561  0.0254
14835TIP3    H265921   2.328   6.139  17.090 -0.4607 -0.3083 -0.0708
14836TIP3   OH265922   1.739   3.971   3.054 -0.3736  0.4086 -0.1660
14836TIP3    H165923   1.809   3.928   3.103 -2.1232 -3.6065 -0.9783
14836TIP3    H265924   1.690   4.021   3.120  1.3631  0.7485  0.9061
14837TIP3   OH265925   1.377   0.854  12.433  0.5049  0.0774  0.6190
14837TIP3    H165926   1.432   0.929  12.457  1.5068 -0.3727 -0.2050
14837TIP3    H265927   1.331   0.883  12.354  0.5220  0.0095  0.5840
14838TIP3   OH265928   6.628   0.214  14.992 -0.1004 -0.4341 -0.1990
14838TIP3    H165929   6.552   0.228  15.048 -0.4976 -0.0036 -0.8443
14838TIP3    H265930   6.592   0.188  14.908  0.5284 -2.0120  0.0046
14839TIP3   OH265931   2.772   3.282  14.968 -0.2762 -0.2646  0.4739
14839TIP3    H165932   2.757   3.187  14.966 -0.8367 -0.1836  0.7915
14839TIP3    H265933   2.786   3.306  14.877  2.1810 -1.0260  0.6240
14840TIP3   OH265934   1.285   3.978  16.691  0.7246 -0.2888 -0.1142
14840TIP3    H165935   1.238   3.961  16.773  1.2140 -0.3840  0.1465
14840TIP3    H265936   1.240   4.054  16.654 -1.2212 -1.8827 -1.0973
14841TIP3   OH265937   2.918   1.248   4.342  0.4374  0.1488 -0.0642
14841TIP3    H165938   2.946   1.192   4.414  0.3075  0.4056  0.1848
14841TIP3    H265939   2.838   1.207   4.310 -0.0369  0.5749  0.5650
14842TIP3   OH265940   2.411   3.594   4.516  0.4670  0.0297 -0.1354
14842TIP3    H165941   2.360   3.671   4.492 -0.6420 -0.1337  1.6103
14842TIP3    H265942   2.347   3.534   4.555  1.7381 -0.7568  0.7798
14843TIP3   OH265943   4.002   6.585  14.950  0.4267  0.1604 -0.0624
14843TIP3    H165944   4.001   6.635  14.868  0.1633 -2.0613 -1.4603
14843TIP3    H265945   3.912   6.555  14.961  0.1137  1.7160  1.8824
14844TIP3   OH265946   2.734   4.476  16.577  0.1538  0.0574  0.3053
14844TIP3    H165947   2.817   4.519  16.595 -0.5128  1.4409  0.0993
14844TIP3    H265948   2.759   4.392  16.537  1.4452  0.3338  0.5117
14845TIP3   OH265949   0.650   4.194  15.444 -0.0269  0.7147 -0.3011
14845TIP3    H165950   0.645   4.260  15.375 -2.0828  1.3920  0.4646
14845TIP3    H265951   0.573   4.210  15.499  0.7112 -0.8306  1.2382
14846TIP3   OH265952   5.556   0.615  14.208  0.3682  0.1126 -0.0049
14846TIP3    H165953   5.622   0.613  14.139 -0.5490 -2.2686 -0.8486
14846TIP3    H265954   5.474   0.632  14.163 -0.6483 -4.0296  0.0665
14847TIP3   OH265955   0.899   1.890   3.881  0.0693 -0.4893  0.0704
14847TIP3    H165956   0.879   1.797   3.890  0.4003 -0.6019 -0.3344
14847TIP3    H265957   0.981   1.892   3.832  1.5315 -0.0814  2.4373
14848TIP3   OH265958   4.225   5.760  13.775 -0.0254  0.0727 -0.0506
14848TIP3    H165959   4.165   5.797  13.841  0.9205 -1.1658  1.5273
14848TIP3    H265960   4.283   5.833  13.753 -2.5446  1.5514 -2.2130
14849TIP3   OH265961   6.615   0.221  16.412 -0.2205  0.9961  0.2019
14849TIP3    H165962   6.539   0.223  16.471 -0.6351 -2.3457 -0.1196
14849TIP3    H265963   6.689   0.200  16.469 -0.5069 -1.5432 -0.3434
14850TIP3   OH265964   4.998   0.803   4.072 -0.1287 -0.2169 -0.5682
14850TIP3    H165965   5.034   0.786   4.159 -1.4348  1.0723  0.2405
14850TIP3    H265966   4.912   0.762   4.073 -0.8827  1.3389 -0.6247
14851TIP3   OH265967   5.516   1.443  14.360 -0.1267 -0.3516 -0.5657
14851TIP3    H165968   5.544   1.353  14.374 -1.0406 -0.3519  1.4595
14851TIP3    H265969   5.556   1.492  14.432 -0.8063  0.5949 -0.8166
14852TIP3   OH265970   0.686   0.917   4.654 -0.8352  0.2770  0.4604
14852TIP3    H165971   0.639   0.993   4.689  0.3770  0.2727  2.1804
14852TIP3    H265972   0.762   0.954   4.609 -1.1283  0.1536 -0.1452
14853TIP3   OH265973   0.933   3.354   1.371  0.1337 -0.4378 -0.0599
14853TIP3    H165974   0.877   3.383   1.443 -1.3303  0.1623 -1.3944
14853TIP3    H265975   0.886   3.280   1.333  2.0269 -2.2209  1.0033
14854TIP3   OH265976   3.763   1.041  14.034  0.6812  0.4856 -0.2178
14854TIP3    H165977   3.775   1.124  14.080 -0.3264  0.0196  0.9096
14854TIP3    H265978   3.668   1.032  14.025  0.7510 -0.8614  0.2696
14855TIP3   OH265979   6.383   5.995  13.937  0.2540 -0.2057 -0.0474
14855TIP3    H165980   6.460   5.963  13.983  0.3733 -0.0036 -0.1034
14855TIP3    H265981   6.332   5.916  13.917  0.0880 -0.2748  0.6306
14856TIP3   OH265982   0.294   1.282  13.034 -0.2753  0.5148 -0.2761
14856TIP3    H165983   0.372   1.289  12.980 -0.3520  0.1109 -0.4429
14856TIP3    H265984   0.327   1.271  13.123 -0.1308 -0.1269 -0.4037
14857TIP3   OH265985   1.644   1.700   1.480 -0.0517  0.0354 -0.5485
14857TIP3    H165986   1.553   1.675   1.497  0.4033 -0.8196  0.7099
14857TIP3    H265987   1.663   1.766   1.547  0.2008  0.3389 -0.9203
14858TIP3   OH265988   1.181   3.675   0.659  0.2815 -0.5581 -0.2669
14858TIP3    H165989   1.271   3.705   0.666  0.8551 -2.7255  1.7787
14858TIP3    H265990   1.181   3.586   0.694 -2.3418 -1.1883 -1.7174
14859TIP3   OH265991   1.509   3.797  16.652 -0.1831 -0.0080 -0.4319
14859TIP3    H165992   1.500   3.732  16.722 -0.6201 -1.5732 -1.9277
14859TIP3    H265993   1.444   3.864  16.674 -1.7617 -1.5004 -0.4439
14860TIP3   OH265994   4.428   3.507   5.610  0.0568  0.4213 -0.0220
14860TIP3    H165995   4.416   3.597   5.641  0.2744  1.1022 -1.8658
14860TIP3    H265996   4.349   3.461   5.639  0.4063  0.9427  1.8163
14861TIP3   OH265997   3.397   1.215   0.272 -0.7363  0.3687 -0.1318
14861TIP3    H165998   3.301   1.212   0.274 -0.7612  0.3580 -1.1081
14861TIP3    H265999   3.420   1.174   0.189  0.1323  0.0793  0.2497
14862TIP3   OH266000   6.108   3.203   6.764  0.1128 -0.2998  0.4911
14862TIP3    H166001   6.022   3.240   6.785  1.4694  2.4337  1.5074
14862TIP3    H266002   6.147   3.184   6.849  0.4861 -1.6134  0.0326
14863TIP3   OH266003   4.458   0.522   2.019 -0.4586 -0.3307  0.8971
14863TIP3    H166004   4.473   0.593   2.081  0.9332  1.2311 -1.1669
14863TIP3    H266005   4.526   0.458   2.040 -0.4760 -0.1714  1.4650
14864TIP3   OH266006   5.438   6.301  14.965  0.4015  0.4116 -0.0145
14864TIP3    H166007   5.346   6.320  14.948 -0.5050 -1.3536  2.5955
14864TIP3    H266008   5.484   6.381  14.940 -1.7723  1.2421 -1.5771
14865TIP3   OH266009   4.157   1.483  16.800 -0.0156  0.9250  0.3680
14865TIP3    H166010   4.066   1.479  16.768  0.2818  0.8462 -0.4822
14865TIP3    H266011   4.168   1.402  16.848 -0.0899  0.4661 -0.3767
14866TIP3   OH266012   1.612   2.798   2.420 -0.7071  0.5339 -0.7271
14866TIP3    H166013   1.572   2.880   2.446  0.5005  0.8806  0.0923
14866TIP3    H266014   1.680   2.782   2.486  0.9267  0.2899 -2.4109
14867TIP3   OH266015   0.870   3.044   2.011 -0.2313 -0.0531 -0.6356
14867TIP3    H166016   0.899   2.968   2.062 -0.7677 -0.0756 -0.3562
14867TIP3    H266017   0.860   3.114   2.075 -0.3482  0.0787 -0.7972
14868TIP3   OH266018   0.278   5.802   4.326 -0.1515  0.6049 -0.1737
14868TIP3    H166019   0.190   5.829   4.353 -0.0925  1.5488 -0.9020
14868TIP3    H266020   0.334   5.826   4.400 -0.1216  2.4074 -0.7558
14869TIP3   OH266021   2.613   4.873  13.647  0.0949  0.0578 -0.1836
14869TIP3    H166022   2.659   4.920  13.716 -0.1369 -0.2769  0.2029
14869TIP3    H266023   2.682   4.845  13.587  0.5550 -1.5148  1.0337
14870TIP3   OH266024   5.025   3.115   3.989  0.3748  0.0635 -0.9338
14870TIP3    H166025   5.019   3.051   3.917  2.8993  0.4104 -1.5064
14870TIP3    H266026   5.037   3.199   3.945 -3.9627  1.1676 -0.2078
14871TIP3   OH266027   0.355   1.582   5.524 -0.6600  0.3353 -0.1923
14871TIP3    H166028   0.387   1.492   5.516 -0.4280  0.2276  1.7637
14871TIP3    H266029   0.412   1.633   5.467  0.7994 -0.3864  0.6075
14872TIP3   OH266030   5.625   4.002  16.901  0.1205 -0.3113  0.2898
14872TIP3    H166031   5.602   3.935  16.837  1.0655  1.7856 -2.3336
14872TIP3    H266032   5.720   3.995  16.910  0.1881  0.4503  0.2201
14873TIP3   OH266033   0.215   3.797   6.087  0.2109 -0.4625 -0.2598
14873TIP3    H166034   0.170   3.785   6.170  1.7236 -2.6965  0.2853
14873TIP3    H266035   0.299   3.837   6.110  0.0315  0.2828 -0.8755
14874TIP3   OH266036   6.653   0.018  11.936 -0.5149 -0.2869 -0.0097
14874TIP3    H166037   6.597   0.088  11.968  0.9789  1.0344 -0.2056
14874TIP3    H266038   6.627  -0.059  11.987 -0.3730  1.0248  2.1068
14875TIP3   OH266039   5.846   1.054  14.279  0.0549 -0.4234  0.1471
14875TIP3    H166040   5.849   0.978  14.221  1.2077 -0.6293  0.4745
14875TIP3    H266041   5.795   1.119  14.230  2.8832  0.2279 -2.1123
14876TIP3   OH266042   1.256   0.545  13.182  0.1923  0.2224 -0.0028
14876TIP3    H166043   1.312   0.491  13.238 -0.8699  0.0800  0.9653
14876TIP3    H266044   1.179   0.490  13.167 -0.3809  1.0202  0.0233
14877TIP3   OH266045   1.409   1.809  15.061 -0.0402  0.1826 -0.2676
14877TIP3    H166046   1.417   1.894  15.105  1.4332 -1.1712  2.1735
14877TIP3    H266047   1.346   1.761  15.113  2.9396 -2.0436  1.4161
14878TIP3   OH266048   2.991   2.922   4.517 -0.2917  0.0886  0.4244
14878TIP3    H166049   3.010   2.894   4.428 -1.2480  0.1112  0.2157
14878TIP3    H266050   2.921   2.987   4.508 -0.8352 -0.3825  1.2426
14879TIP3   OH266051   3.609   3.073  13.165 -0.5215  0.1434  0.4817
14879TIP3    H166052   3.578   3.077  13.255 -0.8134  0.8259  0.3544
14879TIP3    H266053   3.588   3.159  13.129 -1.0513 -0.3714 -0.4520
14880TIP3   OH266054   2.275   3.911   0.366 -0.4851  0.2551  0.0237
14880TIP3    H166055   2.198   3.941   0.319  0.8190  2.7883 -0.5728
14880TIP3    H266056   2.349   3.948   0.317  1.1648 -2.5173  0.2668
14881TIP3   OH266057   5.654   5.301   0.493 -0.4402  0.2230  1.0970
14881TIP3    H166058   5.583   5.324   0.553 -2.7082  0.0666 -1.4259
14881TIP3    H266059   5.629   5.341   0.410  1.2659 -1.7849 -0.4318
14882TIP3   OH266060   6.391   0.688  13.895 -0.0885  0.5979 -0.8568
14882TIP3    H166061   6.398   0.759  13.959  0.9620 -0.2644  0.0070
14882TIP3    H266062   6.424   0.726  13.813  0.4269  1.1204 -0.4081
14883TIP3   OH266063   3.658   4.478   4.643  0.0488  0.2877  0.0500
14883TIP3    H166064   3.694   4.552   4.594  0.0010 -0.6328 -1.4083
14883TIP3    H266065   3.733   4.423   4.664  0.4154  1.8283  3.1298
14884TIP3   OH266066   2.312   1.789  13.379 -0.2492  0.2199 -0.4876
14884TIP3    H166067   2.251   1.754  13.444 -0.7977 -1.1426 -1.7000
14884TIP3    H266068   2.384   1.827  13.430 -0.9395 -0.3442  0.9055
14885TIP3   OH266069   0.504   6.604  16.030 -0.5356  0.1097 -0.0365
14885TIP3    H166070   0.510   6.509  16.023 -0.0470  0.0032  1.7033
14885TIP3    H266071   0.424   6.620  16.080 -1.5054  0.6955 -1.7185
14886TIP3   OH266072   1.079   5.719   2.430 -0.4273  0.2906  0.2805
14886TIP3    H166073   1.026   5.786   2.474  1.6885 -0.4696  4.2561
14886TIP3    H266074   1.165   5.726   2.471  0.6278 -2.9991 -1.1940
14887TIP3   OH266075   1.747   4.771  11.237 -0.5478  0.0785  0.0343
14887TIP3    H166076   1.674   4.708  11.235  1.3451 -2.1825 -0.8463
14887TIP3    H266077   1.754   4.797  11.328 -2.2497  0.0652  0.1791
14888TIP3   OH266078   0.494   3.607  11.570 -0.3727  0.1419  0.1837
14888TIP3    H166079   0.587   3.592  11.590 -0.6283 -0.4186  0.9435
14888TIP3    H266080   0.480   3.699  11.590 -0.0462  0.1647  0.3103
14889TIP3   OH266081   6.567   1.174   0.918 -0.0895  0.5226 -0.4695
14889TIP3    H166082   6.489   1.119   0.913  0.1103  0.2058 -0.1596
14889TIP3    H266083   6.539   1.250   0.970  0.2769 -0.4248  1.1481
14890TIP3   OH266084   6.363   6.636   2.583 -0.0935  0.2801  0.2469
14890TIP3    H166085   6.376   6.607   2.492  0.6376 -1.1457  0.7759
14890TIP3    H266086   6.449   6.626   2.623  0.1310  3.1187  0.5171
14891TIP3   OH266087   6.376   6.088  13.530  0.0321 -0.4642 -0.4252
14891TIP3    H166088   6.406   6.172  13.565  0.1031 -0.5666 -0.2399
14891TIP3    H266089   6.448   6.058  13.475  0.0076 -0.4051 -0.4895
14892TIP3   OH266090   3.629   2.027   1.528  0.0629 -0.5782  0.2196
14892TIP3    H166091   3.639   1.934   1.508 -0.0148 -0.6449  0.4863
14892TIP3    H266092   3.670   2.038   1.614 -0.1093 -0.4047  0.2820
14893TIP3   OH266093   4.052   5.862  14.001  0.2643 -0.2608 -0.0780
14893TIP3    H166094   4.023   5.825  14.084 -2.5691  0.4353 -0.7025
14893TIP3    H266095   4.044   5.957  14.012  1.0083 -0.1066 -0.7550
14894TIP3   OH266096   1.482   4.356   0.843 -0.0614  0.0059  0.0691
14894TIP3    H166097   1.459   4.449   0.840 -0.6764 -0.1893 -1.4005
14894TIP3    H266098   1.553   4.351   0.908  0.0650  1.5133  0.0543
14895TIP3   OH266099   2.346   2.478  12.205  0.1813  0.6932  0.5240
14895TIP3    H166100   2.286   2.502  12.133 -0.6477  0.4635  1.1308
14895TIP3    H266101   2.293   2.487  12.284  0.7202 -0.2955  1.0020
14896TIP3   OH266102   2.492   5.622  15.732  0.3714  0.1097  0.5714
14896TIP3    H166103   2.581   5.610  15.699  0.3972 -0.9562  1.0190
14896TIP3    H266104   2.485   5.560  15.805 -2.1076 -2.8339 -2.0722
14897TIP3   OH266105   0.927   0.227   1.415 -0.4631 -0.3193 -0.1662
14897TIP3    H166106   0.949   0.200   1.504  1.7069  0.3110 -0.4618
14897TIP3    H266107   0.868   0.301   1.426 -0.5494 -0.5214  0.7549
14898TIP3   OH266108   1.386   1.931  13.393 -0.2688  0.5247 -0.0234
14898TIP3    H166109   1.401   1.895  13.480 -0.4660  0.0732 -0.1708
14898TIP3    H266110   1.385   2.026  13.406  2.0315  0.5630  0.0854
14899TIP3   OH266111   3.344   1.453   0.598 -0.2710  0.1972 -0.0351
14899TIP3    H166112   3.408   1.508   0.643 -0.0535 -1.0200  1.1792
14899TIP3    H266113   3.330   1.497   0.514 -0.3777  2.2950  1.0382
14900TIP3   OH266114   5.378   6.040  12.783 -0.4237  0.0547  0.4494
14900TIP3    H166115   5.464   6.019  12.822 -0.0722 -1.1905 -0.9439
14900TIP3    H266116   5.393   6.032  12.689 -1.7866  1.0175  0.1520
14901TIP3   OH266117   5.356   2.459   3.618  0.0281 -0.6010  0.4479
14901TIP3    H166118   5.438   2.438   3.663 -0.1994 -2.7040 -0.0627
14901TIP3    H266119   5.288   2.420   3.673 -0.5302 -0.1381  0.0968
14902TIP3   OH266120   4.094   5.671  12.098 -0.0570 -0.1299  0.0691
14902TIP3    H166121   4.076   5.586  12.139 -1.1456  0.9146  1.7992
14902TIP3    H266122   4.008   5.707  12.078  0.4291  0.0367 -1.8455
14903TIP3   OH266123   4.256   1.736  16.687  0.1632  0.0437 -0.0408
14903TIP3    H166124   4.168   1.767  16.706  0.2580  0.4131 -0.1989
14903TIP3    H266125   4.255   1.643  16.709  0.5823  0.6937  2.8674
14904TIP3   OH266126   2.739   5.360  14.349  0.6562  0.1932 -0.7652
14904TIP3    H166127   2.742   5.264  14.351 -1.7493  0.0994 -1.1075
14904TIP3    H266128   2.715   5.385  14.438 -0.2589  0.4246 -1.0799
14905TIP3   OH266129   5.127   6.561  13.431 -0.0840 -0.6440 -0.1134
14905TIP3    H166130   5.186   6.486  13.430 -0.3296 -0.8418  0.0535
14905TIP3    H266131   5.071   6.546  13.507  0.0892 -0.1182  0.1205
14906TIP3   OH266132   6.526   6.627   0.910  0.0790  0.0873 -0.6047
14906TIP3    H166133   6.504   6.706   0.860 -0.9128 -0.2751 -0.7643
14906TIP3    H266134   6.596   6.654   0.969 -0.2089  1.0742 -0.7076
14907TIP3   OH266135   1.890   5.665  15.740  0.2703  0.1508  0.0088
14907TIP3    H166136   1.899   5.760  15.726  0.2366  0.3707  1.4293
14907TIP3    H266137   1.832   5.657  15.815 -0.9595 -1.0418 -1.0499
14908TIP3   OH266138   6.744   0.855   1.666  0.1443 -0.2654 -0.3302
14908TIP3    H166139   6.670   0.795   1.654 -0.8132  1.0734 -1.2097
14908TIP3    H266140   6.736   0.884   1.756 -1.1066  0.7849 -0.7685
14909TIP3   OH266141   3.286   1.131   2.054 -0.4712  0.0650  0.0617
14909TIP3    H166142   3.192   1.147   2.045 -0.5961 -1.8513 -2.4468
14909TIP3    H266143   3.295   1.080   2.135 -1.6952 -0.5069 -0.1612
14910TIP3   OH266144   2.354   0.085   5.540  0.1014  0.0519 -0.1939
14910TIP3    H166145   2.363   0.160   5.598  3.2412 -0.2195 -0.2233
14910TIP3    H266146   2.417   0.021   5.573  0.0414 -1.1486 -2.2880
14911TIP3   OH266147   2.223   3.464   3.542 -0.7705 -0.2929  0.0702
14911TIP3    H166148   2.218   3.460   3.447  1.5058  1.7834 -0.1704
14911TIP3    H266149   2.172   3.542   3.565 -0.8238 -0.4586  0.5183
14912TIP3   OH266150   4.280   5.265  16.767 -0.2671  0.1247 -0.8705
14912TIP3    H166151   4.261   5.359  16.770 -1.6067 -0.1912  0.6436
14912TIP3    H266152   4.201   5.222  16.798  0.8747 -1.4560 -0.0380
14913TIP3   OH266153   1.473   4.554  13.399 -0.1109  0.2385  0.2176
14913TIP3    H166154   1.440   4.609  13.329  0.9255  0.8176  0.1782
14913TIP3    H266155   1.566   4.578  13.407  0.0447 -0.6115  1.0277
14914TIP3   OH266156   1.158   1.359   0.544  0.5614 -0.7763 -0.4899
14914TIP3    H166157   1.167   1.440   0.494  1.5029 -0.2570  0.5136
14914TIP3    H266158   1.242   1.315   0.534  0.7843 -0.6410  0.6760
14915TIP3   OH266159   3.218   3.282  12.566 -0.4541  0.8389  0.5032
14915TIP3    H166160   3.127   3.294  12.538 -0.6986 -0.8563  0.5572
14915TIP3    H266161   3.217   3.202  12.618  1.1362  0.6108  0.2011
14916TIP3   OH266162   0.112   5.623  13.152 -0.0583  0.0868 -0.1864
14916TIP3    H166163   0.066   5.684  13.093  0.9355 -0.1298 -1.2085
14916TIP3    H266164   0.198   5.612  13.111  1.4247  1.5482  2.3818
14917TIP3   OH266165   6.095   2.136   1.813 -0.6176 -0.4881 -0.0311
14917TIP3    H166166   6.110   2.063   1.873  1.4622  0.4560  0.6458
14917TIP3    H266167   6.005   2.164   1.831 -0.5622 -1.2615  1.4987
14918TIP3   OH266168   4.159   4.842   3.858 -0.5550  0.1903 -0.2103
14918TIP3    H166169   4.110   4.911   3.903  0.1101  0.1253  0.6200
14918TIP3    H266170   4.176   4.878   3.771 -1.1874  0.6168 -0.1664
14919TIP3   OH266171   6.581   3.042  12.135 -0.5112 -0.0106  0.2964
14919TIP3    H166172   6.604   3.135  12.132  0.7801 -0.3686 -1.9843
14919TIP3    H266173   6.503   3.035  12.080  1.5892 -0.8017 -2.7507
14920TIP3   OH266174   6.605   2.039   4.767 -0.2299  0.5086  0.6526
14920TIP3    H166175   6.528   2.031   4.823 -0.7303 -0.1014 -0.1116
14920TIP3    H266176   6.620   2.133   4.759  0.5816  0.5779  2.7891
14921TIP3   OH266177   4.473   4.443  15.197 -0.2865  0.1092 -0.5383
14921TIP3    H166178   4.393   4.406  15.234  0.9111 -0.7913  1.1819
14921TIP3    H266179   4.513   4.492  15.268  1.1667 -0.2255 -1.1019
14922TIP3   OH266180   1.017   5.225   1.205  0.5352 -0.4993  0.2587
14922TIP3    H166181   1.111   5.243   1.209  0.7870 -1.9592  1.1768
14922TIP3    H266182   1.010   5.130   1.208 -0.9338 -0.4429 -1.0114
14923TIP3   OH266183   5.156   1.448  11.244 -0.0853  0.1451 -0.1559
14923TIP3    H166184   5.220   1.500  11.291 -0.7925  0.1587  0.8084
14923TIP3    H266185   5.156   1.485  11.155  1.2758  0.0955 -0.1886
14924TIP3   OH266186   0.758   0.694  15.989  0.5017  0.0195  0.0673
14924TIP3    H166187   0.782   0.685  16.082 -0.9989  0.7214  0.5371
14924TIP3    H266188   0.804   0.623  15.946  0.6618 -0.7495  1.4651
14925TIP3   OH266189   3.387   1.198   0.714 -0.5600  0.4584  0.4682
14925TIP3    H166190   3.371   1.226   0.804 -1.2587 -0.5956  0.6829
14925TIP3    H266191   3.378   1.278   0.662 -0.8989  0.9375  1.2516
14926TIP3   OH266192   2.293   2.268   0.839  0.2304  0.3605 -0.4101
14926TIP3    H166193   2.208   2.224   0.834 -0.2952  1.6000 -3.1410
14926TIP3    H266194   2.355   2.203   0.807  0.1377 -0.0445  0.2093
14927TIP3   OH266195   1.100   4.553   4.417  0.1285  0.4343 -1.0848
14927TIP3    H166196   1.090   4.472   4.468  0.3362  0.3646 -1.1562
14927TIP3    H266197   1.065   4.621   4.475  0.6306  0.3963 -0.7346
14928TIP3   OH266198   0.665   1.165  16.299  0.0994 -0.2587  0.0129
14928TIP3    H166199   0.653   1.121  16.215 -0.9711  0.2224 -0.0891
14928TIP3    H266200   0.670   1.258  16.276  1.5737 -0.2514  0.3050
14929TIP3   OH266201   0.970   0.060  11.490  0.4674 -0.2832  0.1221
14929TIP3    H166202   1.028  -0.014  11.510  0.4392 -0.7234 -1.3310
14929TIP3    H266203   0.996   0.128  11.552 -0.1194 -1.8162  2.0836
14930TIP3   OH266204   4.244   3.003  15.327  0.0448  0.2903  0.6414
14930TIP3    H166205   4.179   2.982  15.260 -1.0740 -1.1027  2.1306
14930TIP3    H266206   4.218   3.090  15.358  1.2741  1.4829 -1.5145
14931TIP3   OH266207   4.697   0.687  12.347  0.5148 -0.1185  0.4868
14931TIP3    H166208   4.761   0.631  12.305  0.0254 -0.4739  0.2110
14931TIP3    H266209   4.618   0.678  12.294  0.2820  0.4394  0.7299
14932TIP3   OH266210   4.288   3.194   5.130  0.2261 -0.5543 -0.2450
14932TIP3    H166211   4.248   3.116   5.092 -0.7931  0.2835 -0.9085
14932TIP3    H266212   4.381   3.173   5.135 -0.3357 -2.6859  1.7445
14933TIP3   OH266213   1.503   2.333  15.290 -0.2300 -0.2705  0.4844
14933TIP3    H166214   1.425   2.386  15.273  0.3440  0.4259 -0.0157
14933TIP3    H266215   1.542   2.371  15.369 -0.7757 -1.0670  1.1476
14934TIP3   OH266216   5.824   4.033   1.786  0.0612  0.1341 -0.2776
14934TIP3    H166217   5.817   4.114   1.736 -0.8365  0.7654  0.8688
14934TIP3    H266218   5.805   4.058   1.876 -0.9068 -1.4647 -0.0143
14935TIP3   OH266219   5.511   6.217   4.326 -0.0339 -0.0256 -0.6742
14935TIP3    H166220   5.416   6.234   4.325 -0.3635 -1.7049  0.1387
14935TIP3    H266221   5.543   6.259   4.247 -1.5406  0.1873 -1.1994
14936TIP3   OH266222   4.192   1.461   1.176  0.1146  0.2284 -0.0515
14936TIP3    H166223   4.210   1.480   1.268  2.2395 -1.0593 -0.1455
14936TIP3    H266224   4.128   1.389   1.178  1.6124 -1.1315  0.4934
14937TIP3   OH266225   2.424   0.404  16.955 -0.3661 -0.1474  0.3408
14937TIP3    H166226   2.431   0.478  16.895 -2.3493 -1.4077 -1.5147
14937TIP3    H266227   2.497   0.347  16.931 -0.1145  0.1890  0.3076
14938TIP3   OH266228   1.132   0.745  15.600 -0.4569 -0.0104 -0.3083
14938TIP3    H166229   1.212   0.745  15.547  0.1579  0.6015  0.6035
14938TIP3    H266230   1.112   0.838  15.612 -1.1058 -0.1590 -0.2113
14939TIP3   OH266231   5.794   0.807  15.351  0.0916  0.3017  0.1234
14939TIP3    H166232   5.779   0.882  15.293  1.3259 -1.1362 -2.1256
14939TIP3    H266233   5.713   0.799  15.402 -1.7765  0.4518 -2.7294
14940TIP3   OH266234   6.383   2.524  11.406 -0.0924 -0.2689  0.0484
14940TIP3    H166235   6.418   2.556  11.323 -0.1461 -0.4265 -0.0348
14940TIP3    H266236   6.307   2.472  11.382  0.3891 -1.0150  0.1376
14941TIP3   OH266237   1.784   0.381  14.465 -0.0738  0.2781  0.4507
14941TIP3    H166238   1.704   0.410  14.509 -0.8890  0.5574 -1.1710
14941TIP3    H266239   1.757   0.363  14.375  1.6690  0.2585 -0.0950
14942TIP3   OH266240   0.817   2.119  16.911 -0.6659 -0.4287  0.4484
14942TIP3    H166241   0.848   2.203  16.878 -0.4749  0.3471  2.5050
14942TIP3    H266242   0.896   2.069  16.931 -0.7415 -0.0625  1.7273
14943TIP3   OH266243   1.142   6.402  11.149 -0.1574  0.1654  0.1273
14943TIP3    H166244   1.084   6.460  11.199 -0.4909 -0.0260 -0.0346
14943TIP3    H266245   1.205   6.461  11.108 -0.1703  0.3660  0.3896
14944TIP3   OH266246   0.624   4.493  17.136  0.4071  0.0827 -0.7749
14944TIP3    H166247   0.651   4.469  17.048 -0.3623 -0.1702 -0.9427
14944TIP3    H266248   0.702   4.478  17.190  0.9495  0.4655 -1.4468
14945TIP3   OH266249   5.657   6.144  13.107  0.0309  0.8823  0.4187
14945TIP3    H166250   5.615   6.207  13.166 -3.4605 -2.0492  1.2242
14945TIP3    H266251   5.704   6.084  13.165 -0.2872  0.1955 -0.0264
14946TIP3   OH266252   4.378   5.127  13.890 -0.0019  0.5898  0.1063
14946TIP3    H166253   4.356   5.104  13.980  0.0457 -1.3586 -0.3702
14946TIP3    H266254   4.403   5.219  13.894  3.1388 -0.3052  2.6311
14947TIP3   OH266255   4.456   4.209   4.822  0.1692  0.6485  0.1640
14947TIP3    H166256   4.472   4.138   4.884  3.5614  0.4214 -0.8957
14947TIP3    H266257   4.520   4.276   4.845 -0.2468  1.6374 -1.4506
14948TIP3   OH266258   2.399   6.192   1.910  0.4137  0.3047  0.0656
14948TIP3    H166259   2.405   6.237   1.826 -0.3904  2.7844  1.3003
14948TIP3    H266260   2.433   6.255   1.973 -0.1699 -1.0614  1.7575
14949TIP3   OH266261   3.731   2.205  16.967 -0.0248  0.0644  0.4251
14949TIP3    H166262   3.671   2.267  17.010 -1.3054  0.0092 -1.2082
14949TIP3    H266263   3.682   2.123  16.964  0.3906 -0.1616 -0.3263
14950TIP3   OH266264   6.657   1.140  16.725 -0.2212  0.1461 -0.7579
14950TIP3    H166265   6.642   1.081  16.651  0.8692  0.2578 -1.0621
14950TIP3    H266266   6.624   1.091  16.801  2.1796 -1.5506 -0.7750
14951TIP3   OH266267   5.836   5.614   3.339  0.0452 -0.1358  0.1437
14951TIP3    H166268   5.899   5.612   3.411 -1.7089 -2.1075  1.6472
14951TIP3    H266269   5.876   5.558   3.272  1.2660  1.0153 -0.1260
14952TIP3   OH266270   3.903   5.677   2.655  0.3909  0.0614  0.1510
14952TIP3    H166271   3.918   5.586   2.628 -0.3062  0.0071 -0.0742
14952TIP3    H266272   3.947   5.729   2.587 -3.0774 -0.0410 -2.2965
14953TIP3   OH266273   2.484   1.281  15.172 -0.5240  0.4086 -0.0709
14953TIP3    H166274   2.554   1.243  15.225 -0.4698  0.9279  0.2287
14953TIP3    H266275   2.412   1.219  15.179 -0.3167  0.1955  0.1448
14954TIP3   OH266276   4.507   3.668   5.077  0.5158  0.1223  0.1621
14954TIP3    H166277   4.421   3.701   5.101  0.8478  0.8176  0.4068
14954TIP3    H266278   4.543   3.634   5.159  1.4448  2.0335  0.5763
14955TIP3   OH266279   6.747   1.273  11.980  0.0133  0.4018  0.1237
14955TIP3    H166280   6.734   1.260  11.886  0.0256  0.8601  0.0574
14955TIP3    H266281   6.753   1.367  11.991 -0.3484  0.3705  0.6339
14956TIP3   OH266282   2.965   0.004  16.442  0.2577 -0.6024 -0.1508
14956TIP3    H166283   2.887  -0.043  16.411  0.2633 -0.6313 -0.1192
14956TIP3    H266284   2.938   0.042  16.526 -0.5460  1.5633 -1.3597
14957TIP3   OH266285   5.108   2.570   1.920  0.5730 -1.1868 -0.0356
14957TIP3    H166286   5.171   2.502   1.944  1.5139 -0.8655 -1.5030
14957TIP3    H266287   5.159   2.651   1.925  0.2268 -0.9004 -1.0195
14958TIP3   OH266288   4.622   0.002   0.873 -0.1367  0.1787 -0.2740
14958TIP3    H166289   4.590  -0.048   0.798 -2.2402  1.0916 -0.0161
14958TIP3    H266290   4.613  -0.057   0.948  1.3298 -0.4990 -0.6217
14959TIP3   OH266291   4.943   1.149   2.771  0.4718 -0.2038 -0.5747
14959TIP3    H166292   4.922   1.187   2.686  0.9174  0.1007 -0.5487
14959TIP3    H266293   5.033   1.117   2.762 -0.0094 -1.5614 -0.7094
14960TIP3   OH266294   6.063   2.238  12.269  0.1268 -0.6350 -0.4918
14960TIP3    H166295   6.087   2.160  12.319  1.2050 -0.5862 -0.9429
14960TIP3    H266296   6.139   2.296  12.275 -1.2582  1.0853  1.2003
14961TIP3   OH266297   2.873   1.586  15.590  0.1027  0.6009 -0.0402
14961TIP3    H166298   2.947   1.534  15.620 -1.6785 -1.0605  1.6492
14961TIP3    H266299   2.822   1.525  15.536 -0.5639  1.3969 -0.3215
14962TIP3   OH266300   3.569   0.466  12.476  0.4439 -0.0638  0.6891
14962TIP3    H166301   3.524   0.459  12.560 -1.5974  2.3472 -0.1533
14962TIP3    H266302   3.503   0.442  12.411  1.8454 -1.3636 -0.2883
14963TIP3   OH266303   0.861   6.782   1.717  0.6902  0.0436  0.9352
14963TIP3    H166304   0.796   6.729   1.671  2.1420 -0.7696 -0.1952
14963TIP3    H266305   0.811   6.859   1.747 -0.4301  0.3349 -1.5166
14964TIP3   OH266306   5.144   1.590  16.257 -0.5007 -0.1646  0.1810
14964TIP3    H166307   5.110   1.637  16.180  0.1032  1.3085  0.7991
14964TIP3    H266308   5.152   1.657  16.324  0.9083 -1.0654  0.9209
14965TIP3   OH266309   5.789   0.566  13.591 -0.0377  0.5390  0.2840
14965TIP3    H166310   5.859   0.596  13.533  2.0010 -1.4667  1.6088
14965TIP3    H266311   5.710   0.569  13.537  1.7798 -1.1938 -2.5897
14966TIP3   OH266312   3.917   2.115  12.005  0.5139 -0.2192 -0.1868
14966TIP3    H166313   3.882   2.201  11.981  1.6117 -0.3857 -2.4743
14966TIP3    H266314   4.010   2.121  11.987  0.4337 -2.2349 -1.4506
14967TIP3   OH266315   3.450   6.775   0.378  0.0461  0.2043  0.0356
14967TIP3    H166316   3.363   6.759   0.341 -0.1332  0.7151  0.2354
14967TIP3    H266317   3.433   6.815   0.463  0.4752  1.8625 -0.6259
14968TIP3   OH266318   5.532   0.184  14.525  0.2309 -0.5219  0.0974
14968TIP3    H166319   5.565   0.135  14.450  2.8543 -0.0080  0.8357
14968TIP3    H266320   5.444   0.212  14.500  0.5178 -1.5895 -2.1814
14969TIP3   OH266321   4.884   5.791   0.982 -0.2054 -0.3258  0.0564
14969TIP3    H166322   4.814   5.734   0.950 -1.8794  0.5290  2.0614
14969TIP3    H266323   4.965   5.754   0.946 -1.4251 -3.0008  0.0166
14970TIP3   OH266324   1.481   2.263   2.664  0.5447 -0.3114 -0.1706
14970TIP3    H166325   1.567   2.259   2.623  2.0407 -1.7359  2.9901
14970TIP3    H266326   1.474   2.182   2.713 -1.2090  1.2856  2.3098
14971TIP3   OH266327   4.803   4.568  15.219  0.3120  0.3759 -0.0216
14971TIP3    H166328   4.743   4.640  15.198  1.1957  1.4695  1.0938
14971TIP3    H266329   4.797   4.559  15.314 -0.3140 -1.5116 -0.2291
14972TIP3   OH266330   0.770   4.766  13.135  0.2720  0.3014 -0.0616
14972TIP3    H166331   0.852   4.798  13.096 -0.0562  1.9861  0.5771
14972TIP3    H266332   0.798   4.703  13.201  0.9733 -0.3597 -0.9805
14973TIP3   OH266333   0.531   3.517   0.527 -0.3696 -0.5576 -0.3821
14973TIP3    H166334   0.620   3.538   0.501 -0.4560  0.7387  0.3537
14973TIP3    H266335   0.501   3.454   0.462  1.1485 -1.1522 -0.5124
14974TIP3   OH266336   0.961   3.814  15.305  0.1462 -0.2980 -0.1956
14974TIP3    H166337   0.995   3.867  15.377 -1.7083 -0.3650  0.7715
14974TIP3    H266338   1.027   3.747  15.291  0.9675  0.2806  0.8184
14975TIP3   OH266339   6.696   4.004  15.623  0.9133  0.4933  0.4504
14975TIP3    H166340   6.608   3.968  15.631  0.6191  1.1613  0.1724
14975TIP3    H266341   6.712   4.010  15.529  0.4237  2.4127  0.4830
14976TIP3   OH266342   4.710   2.407  14.269 -0.0104 -0.3523 -0.2102
14976TIP3    H166343   4.803   2.430  14.267  0.5076 -1.7367  3.4287
14976TIP3    H266344   4.675   2.456  14.344 -2.0477 -0.4313 -1.0730
14977TIP3   OH266345   4.307   0.230  11.006  0.2775 -0.3194 -0.2546
14977TIP3    H166346   4.352   0.245  11.089 -0.6471  0.0362  0.1932
14977TIP3    H266347   4.258   0.311  10.990  0.0911 -0.5568 -0.9101
14978TIP3   OH266348   2.554   4.714  15.860  0.1302  0.3252  0.3650
14978TIP3    H166349   2.544   4.629  15.902  2.3948 -0.7589 -1.1691
14978TIP3    H266350   2.474   4.726  15.809 -0.0497 -1.0496  0.3201
14979TIP3   OH266351   0.361   0.725  13.219  0.2690  0.3165  0.3828
14979TIP3    H166352   0.367   0.752  13.127  0.8024 -0.8861  0.0512
14979TIP3    H266353   0.404   0.796  13.267  1.1337  0.3581 -0.4219
14980TIP3   OH266354   2.086   3.795  13.287  0.1527 -0.1858  0.3263
14980TIP3    H166355   2.060   3.803  13.378  1.6805  2.1784  0.5971
14980TIP3    H266356   2.065   3.705  13.264 -0.8594 -0.6211  2.8139
14981TIP3   OH266357   0.170   5.306   0.878 -0.0157 -0.5930 -1.0241
14981TIP3    H166358   0.223   5.376   0.839 -0.7883  0.7285  0.2284
14981TIP3    H266359   0.101   5.353   0.925  0.4484 -2.1605  1.2682
14982TIP3   OH266360   0.898   5.479   1.645 -0.2663 -0.1953 -0.2297
14982TIP3    H166361   0.953   5.415   1.600 -1.1787 -0.7417 -0.5861
14982TIP3    H266362   0.897   5.555   1.588 -1.4628 -0.9057 -1.1783
14983TIP3   OH266363   6.603   1.047  12.843  0.4335 -0.7007 -0.2675
14983TIP3    H166364   6.588   0.965  12.889 -1.5963  0.2004  0.7295
14983TIP3    H266365   6.553   1.039  12.762  1.6357 -1.1234 -0.9763
14984TIP3   OH266366   6.307   5.607  13.359  0.0339  0.2269  0.2558
14984TIP3    H166367   6.277   5.539  13.299  3.2412 -1.3944  0.3700
14984TIP3    H266368   6.237   5.615  13.424 -0.4146 -3.0141  0.2601
14985TIP3   OH266369   1.665   5.284   3.837  0.1593  0.0764  0.0688
14985TIP3    H166370   1.704   5.354   3.784 -1.2718  1.2828  0.5917
14985TIP3    H266371   1.612   5.233   3.775  1.2895 -0.6407 -0.3340
14986TIP3   OH266372   0.620   0.658  14.142 -0.0011 -0.5064 -0.7406
14986TIP3    H166373   0.702   0.631  14.101  0.1772  0.2935 -0.9098
14986TIP3    H266374   0.612   0.751  14.122 -1.5213 -0.8220 -1.6919
14987TIP3   OH266375   0.858   2.979  14.454  0.4190 -0.0459  0.0367
14987TIP3    H166376   0.882   3.023  14.535 -1.0409  0.1071  0.3848
14987TIP3    H266377   0.773   2.938  14.472 -0.0497  0.2193 -1.4966
14988TIP3   OH266378   5.760   1.511   4.721  0.0310  0.4587  0.5102
14988TIP3    H166379   5.770   1.427   4.676 -0.0999 -0.0317  1.3785
14988TIP3    H266380   5.704   1.563   4.663  0.4266  0.0875 -0.2135
14989TIP3   OH266381   1.189   1.605  13.795 -0.0488 -0.2548 -0.3415
14989TIP3    H166382   1.269   1.553  13.799  0.6451  0.7085 -1.5594
14989TIP3    H266383   1.137   1.564  13.726 -0.5256 -0.7539  0.3072
14990TIP3   OH266384   2.168   4.074   4.573 -0.5185  0.1107 -0.2136
14990TIP3    H166385   2.076   4.079   4.599 -0.4336 -0.0068  0.1047
14990TIP3    H266386   2.211   4.143   4.623 -0.1261 -0.9463  0.9354
14991TIP3   OH266387   3.469   0.485  11.470 -0.4731 -0.4614  0.0133
14991TIP3    H166388   3.413   0.446  11.404  2.5056  1.7577 -4.0554
14991TIP3    H266389   3.434   0.574  11.482 -1.2807 -0.9995  1.8518
14992TIP3   OH266390   6.659   4.835   5.797  0.3267  0.0103 -0.5618
14992TIP3    H166391   6.701   4.758   5.833 -0.8278 -0.7038 -0.7110
14992TIP3    H266392   6.565   4.817   5.804  0.0238  1.7046  0.0835
14993TIP3   OH266393   5.828   0.115  13.754  0.5097 -0.0330 -0.1563
14993TIP3    H166394   5.868   0.037  13.793 -0.8954  0.5867  2.6588
14993TIP3    H266395   5.882   0.187  13.785  0.0174  0.3663 -0.2235
14994TIP3   OH266396   0.857   4.772  13.945  0.0972  0.1583  0.2886
14994TIP3    H166397   0.947   4.752  13.971  0.3561  0.2522 -0.5439
14994TIP3    H266398   0.812   4.688  13.948  0.3615  0.0109  0.0935
14995TIP3   OH266399   1.435   3.280   0.993 -0.1441  0.5308 -0.0134
14995TIP3    H166400   1.407   3.188   0.991  0.6020  0.3112 -2.2339
14995TIP3    H266401   1.386   3.318   1.066 -0.7308 -1.5413  0.7219
14996TIP3   OH266402   4.479   5.367   6.848 -0.1450  0.0111 -0.2621
14996TIP3    H166403   4.531   5.304   6.898  0.5480 -0.1130 -1.1254
14996TIP3    H266404   4.390   5.331   6.850  0.2784 -1.1055 -0.9112
14997TIP3   OH266405   3.631   0.398   0.188  0.2025 -0.0017 -0.5619
14997TIP3    H166406   3.558   0.338   0.203  0.0680  0.5666  1.2041
14997TIP3    H266407   3.708   0.342   0.189  0.2115 -0.0515  2.4917
14998TIP3   OH266408   0.705   3.053   0.116 -0.1459  0.3130  0.0895
14998TIP3    H166409   0.716   2.959   0.134  0.1476  0.4196  0.4732
14998TIP3    H266410   0.655   3.056   0.035 -0.6252 -0.1802  0.3620
14999TIP3   OH266411   5.457   4.463   0.200  0.2174 -0.3125 -0.1065
14999TIP3    H166412   5.493   4.411   0.127 -1.1921 -2.2639  0.5290
14999TIP3    H266413   5.491   4.420   0.278 -0.4588  0.1119  0.4209
15000TIP3   OH266414   4.141   3.283  16.461  0.1666 -0.3903  0.1540
15000TIP3    H166415   4.229   3.319  16.449  0.2472  0.0892  2.0044
15000TIP3    H266416   4.147   3.230  16.541 -1.4852  0.5398  0.9240
15001TIP3   OH266417   6.269   5.972   2.014 -0.0732 -0.0374  0.0851
15001TIP3    H166418   6.249   5.889   1.971  0.9580  0.1589 -0.7779
15001TIP3    H266419   6.183   6.013   2.028 -0.6830 -1.7486  1.5800
15002TIP3   OH266420   3.358   1.682   1.777 -0.1241 -0.0691  0.0178
15002TIP3    H166421   3.310   1.744   1.832 -1.1007  0.5822 -1.5288
15002TIP3    H266422   3.374   1.729   1.695  0.9020 -1.1743 -0.4327
15003TIP3   OH266423   4.288   2.768   1.653  0.5797 -0.1416 -0.1716
15003TIP3    H166424   4.277   2.841   1.593  1.3592 -1.1309 -1.5519
15003TIP3    H266425   4.293   2.691   1.597  0.4009 -1.1911  1.2147
15004TIP3   OH266426   2.636   1.270  14.955 -0.1983  0.4903  1.3913
15004TIP3    H166427   2.564   1.301  15.010  0.3661 -0.2356  2.5694
15004TIP3    H266428   2.593   1.227  14.881 -0.9900 -0.0359  2.1417
15005TIP3   OH266429   3.081   5.597  13.405 -0.2185 -0.4337  0.0276
15005TIP3    H166430   3.027   5.599  13.484 -0.3284 -0.8914 -0.0383
15005TIP3    H266431   3.159   5.548  13.430  1.2558  2.2117  0.8122
15006TIP3   OH266432   6.003   0.911   5.336  0.4312  0.3619 -0.4953
15006TIP3    H166433   6.043   0.856   5.268 -0.6480 -1.0351 -0.0258
15006TIP3    H266434   6.076   0.963   5.370  1.3195 -0.1775 -1.5297
15007TIP3   OH266435   1.704   0.338   4.794  0.6608 -0.3756  0.3509
15007TIP3    H166436   1.732   0.250   4.823 -0.3305 -0.7156  0.2945
15007TIP3    H266437   1.624   0.322   4.745  0.9952  0.4764 -0.4825
15008TIP3   OH266438   2.319   5.416  16.697  0.1511 -0.2438 -0.1012
15008TIP3    H166439   2.334   5.459  16.781  0.0390  0.4998 -0.4597
15008TIP3    H266440   2.262   5.476  16.649  0.9640 -0.2306 -1.0646
15009TIP3   OH266441   0.693   1.256   4.379 -0.4195 -0.2231 -0.0148
15009TIP3    H166442   0.757   1.287   4.444 -1.7174  1.3780  0.5431
15009TIP3    H266443   0.619   1.225   4.432  0.4964 -3.5341 -0.6084
15010TIP3   OH266444   5.674   4.544   3.608  0.5216 -0.5711  0.1903
15010TIP3    H166445   5.717   4.594   3.539  0.2143  1.1390  1.2178
15010TIP3    H266446   5.599   4.597   3.633 -0.3277 -1.9761  0.6900
15011TIP3   OH266447   5.844   4.038  15.606 -0.2161 -0.2566 -0.4736
15011TIP3    H166448   5.829   4.123  15.563  1.0248  0.2970  0.1699
15011TIP3    H266449   5.857   3.977  15.534  1.8455  0.6681 -0.9403
15012TIP3   OH266450   4.366   3.642   4.513  0.2309 -0.3095 -0.0057
15012TIP3    H166451   4.446   3.694   4.516 -0.0606  0.0909  1.8802
15012TIP3    H266452   4.365   3.596   4.597 -1.1193 -0.9047 -0.3360
15013TIP3   OH266453   6.652   3.518   5.924  0.4036 -0.1378 -0.0537
15013TIP3    H166454   6.738   3.561   5.921  0.0952  0.5222  0.2835
15013TIP3    H266455   6.651   3.461   5.847  0.2360  1.6006 -1.3691
15014TIP3   OH266456   0.263   1.362  11.805 -0.4285  0.3033 -0.2517
15014TIP3    H166457   0.269   1.339  11.898 -0.6769  1.8075  0.1432
15014TIP3    H266458   0.212   1.290  11.767  0.9406 -1.0926  0.4856
15015TIP3   OH266459   5.981   5.894  15.671  0.1317  0.2126  0.0435
15015TIP3    H166460   5.941   5.869  15.587  2.1276 -2.5182 -0.1759
15015TIP3    H266461   6.048   5.957  15.647  0.3739 -0.1959 -0.3771
15016TIP3   OH266462   2.918   6.316   4.544  0.3453 -0.0856 -0.1193
15016TIP3    H166463   2.943   6.274   4.626  2.4961  1.1277 -0.0855
15016TIP3    H266464   2.893   6.405   4.569 -1.9330 -0.6129 -0.4476
15017TIP3   OH266465   5.524   3.694  12.349 -0.1521  0.0377 -0.2823
15017TIP3    H166466   5.439   3.678  12.308 -0.2976  0.0031  0.0388
15017TIP3    H266467   5.551   3.780  12.316  0.5831 -0.8060 -1.9404
15018TIP3   OH266468   0.484   1.613   1.948  0.0654 -0.1424 -0.4438
15018TIP3    H166469   0.470   1.553   1.875 -0.6482  1.1768 -1.4156
15018TIP3    H266470   0.556   1.669   1.920  0.3920 -0.2053  0.2489
15019TIP3   OH266471   0.730   1.354  14.864 -0.0510  0.9063 -0.1851
15019TIP3    H166472   0.769   1.283  14.813  0.4473  1.0191  0.0374
15019TIP3    H266473   0.645   1.321  14.891  0.1416  0.4310 -0.1612
15020TIP3   OH266474   0.703   1.889   4.275  0.1559  0.0956  0.5441
15020TIP3    H166475   0.641   1.880   4.202 -1.4415 -0.6872  1.9470
15020TIP3    H266476   0.721   1.982   4.280 -0.4039  0.2586 -0.3195
15021TIP3   OH266477   6.149   1.904  12.738 -0.0949 -0.3372  0.0081
15021TIP3    H166478   6.178   1.993  12.758  0.0632  0.0571 -1.8694
15021TIP3    H266479   6.072   1.891  12.793  0.3495  0.6601  0.8868
15022TIP3   OH266480   5.869   1.227   4.284 -0.4843 -0.2441 -0.1560
15022TIP3    H166481   5.953   1.229   4.238 -0.9294 -1.3395 -1.0577
15022TIP3    H266482   5.826   1.149   4.250 -2.2072  0.7467 -0.3151
15023TIP3   OH266483   0.970   4.141   1.287 -0.1006  0.3105  0.1625
15023TIP3    H166484   1.005   4.106   1.206 -2.9643 -1.2614 -0.4253
15023TIP3    H266485   1.002   4.082   1.355  0.5260  0.4151 -0.0332
15024TIP3   OH266486   6.584   6.409   3.393 -0.2537  0.6710 -0.5996
15024TIP3    H166487   6.668   6.364   3.383 -1.3738 -1.6548 -0.0025
15024TIP3    H266488   6.606   6.494   3.430  1.8342  0.0953 -0.4806
15025TIP3   OH266489   2.005   1.568  16.970 -0.2776  0.5078  0.2237
15025TIP3    H166490   1.910   1.555  16.977 -0.0051 -1.8175 -0.0146
15025TIP3    H266491   2.017   1.663  16.976 -2.5357  0.7525  1.2221
15026TIP3   OH266492   5.510   0.705   2.439  0.8162 -0.3339 -0.4544
15026TIP3    H166493   5.526   0.628   2.383  1.3112 -0.6814  0.1588
15026TIP3    H266494   5.427   0.741   2.407 -0.6453 -2.4962  0.7760
15027TIP3   OH266495   2.456   0.405  11.440 -0.4200 -0.2694  0.5263
15027TIP3    H166496   2.410   0.488  11.440  1.5087  0.8246 -0.0136
15027TIP3    H266497   2.548   0.428  11.457  0.0552 -2.3136  0.8741
15028TIP3   OH266498   6.117   5.980  13.519  0.5247  0.5910  0.6718
15028TIP3    H166499   6.209   6.007  13.516  0.7017 -0.1524 -1.2688
15028TIP3    H266500   6.078   6.021  13.442 -0.7809  0.8425  1.4422
15029TIP3   OH266501   3.684   5.146   0.543 -0.3930 -0.4340 -0.1796
15029TIP3    H166502   3.674   5.239   0.520 -0.9760 -0.6583 -0.8606
15029TIP3    H266503   3.703   5.147   0.636  0.6849  0.4303 -0.3913
15030TIP3   OH266504   5.785   3.272  11.413 -0.4373  0.2157  0.2496
15030TIP3    H166505   5.795   3.367  11.415  0.7808  0.1581 -1.6978
15030TIP3    H266506   5.746   3.254  11.328 -0.6550 -1.0438  0.6040
15031TIP3   OH266507   4.559   2.848   0.526 -0.3191 -0.6633 -0.1068
15031TIP3    H166508   4.579   2.939   0.504  0.4417 -0.9871 -0.7768
15031TIP3    H266509   4.597   2.797   0.454 -1.3584 -1.4621 -0.0882
15032TIP3   OH266510   3.995   2.449   3.921 -0.1465  0.0824 -0.0800
15032TIP3    H166511   3.932   2.515   3.891 -1.0888 -1.3273 -1.2832
15032TIP3    H266512   3.977   2.439   4.014 -0.8584  0.5954 -0.1572
15033TIP3   OH266513   6.698   6.745  10.724 -0.0535  0.1065  0.6694
15033TIP3    H166514   6.625   6.727  10.664  0.8178 -1.2608 -0.0032
15033TIP3    H266515   6.674   6.827  10.767 -1.9142 -0.2429  0.3408
15034TIP3   OH266516   5.855   5.348   1.124  0.4643 -0.0757  0.4306
15034TIP3    H166517   5.827   5.259   1.103  0.6707  0.5260 -2.7011
15034TIP3    H266518   5.775   5.394   1.148  0.1060 -0.6764  0.3942
15035TIP3   OH266519   1.309   2.096   3.888  0.7191  0.3822 -0.3969
15035TIP3    H166520   1.333   2.158   3.820 -0.4286  0.4462 -0.7607
15035TIP3    H266521   1.352   2.128   3.967 -1.4995  2.7995 -0.1175
15036TIP3   OH266522   2.933   4.415   0.316  0.2589  0.2887 -0.1022
15036TIP3    H166523   2.894   4.435   0.230 -0.4684  0.3726  0.2411
15036TIP3    H266524   2.901   4.328   0.337 -0.4064  0.6873  0.5554
15037TIP3   OH266525   6.446   1.570   1.388  0.2046 -0.1277  0.4892
15037TIP3    H166526   6.406   1.528   1.312  0.1123 -0.2405  0.5990
15037TIP3    H266527   6.518   1.513   1.412  0.5247  0.1546  0.2006
15038TIP3   OH266528   1.481   2.911  12.181 -0.5333 -0.6393 -0.3661
15038TIP3    H166529   1.501   2.862  12.101  2.0177  1.0230 -0.8052
15038TIP3    H266530   1.547   2.884  12.244 -1.7355 -0.9611  0.7688
15039TIP3   OH266531   2.620   2.276  16.385  0.3363  0.1382 -0.0146
15039TIP3    H166532   2.704   2.241  16.416  2.0192  2.6466 -1.5207
15039TIP3    H266533   2.620   2.260  16.291 -0.9120  0.1502 -0.0281
15040TIP3   OH266534   5.171   3.591  12.022  0.2219  0.0159  0.7293
15040TIP3    H166535   5.208   3.506  12.047 -0.7303 -0.3328  0.9634
15040TIP3    H266536   5.200   3.604  11.931  0.7249 -0.3514  0.8326
15041TIP3   OH266537   4.686   4.112  14.607 -0.0128  0.1976 -0.1601
15041TIP3    H166538   4.665   4.150  14.523  2.2565 -0.6959 -1.1836
15041TIP3    H266539   4.633   4.032  14.612 -1.4388  1.1453  0.0477
15042TIP3   OH266540   2.281   5.825  16.161 -0.0373 -0.0954 -0.5196
15042TIP3    H166541   2.287   5.764  16.088 -2.4596 -0.2373 -0.6118
15042TIP3    H266542   2.287   5.769  16.239 -1.3780 -0.3594 -0.6037
15043TIP3   OH266543   5.727   2.957   2.702  0.2344 -0.1501 -0.0645
15043TIP3    H166544   5.661   2.949   2.634 -0.3510  0.1658  0.4542
15043TIP3    H266545   5.794   3.015   2.665  0.1935 -0.4311 -0.5723
15044TIP3   OH266546   4.291   4.579   3.767 -0.3710  0.3312  0.2870
15044TIP3    H166547   4.258   4.662   3.731  0.6211 -0.0913 -1.6836
15044TIP3    H266548   4.386   4.587   3.762 -0.2401 -2.3701 -3.4794
15045TIP3   OH266549   5.808   2.513   4.630 -0.2767  0.3331  0.7740
15045TIP3    H166550   5.858   2.433   4.645 -0.9620 -0.3118 -0.3193
15045TIP3    H266551   5.805   2.522   4.535 -2.0280  0.4981  0.8313
15046TIP3   OH266552   6.103   4.254  17.139  0.8141 -0.2368  0.0582
15046TIP3    H166553   6.147   4.182  17.185  1.2294  0.0939  0.1815
15046TIP3    H266554   6.107   4.327  17.200 -1.7629 -0.7830  0.9211
15047TIP3   OH266555   0.438   0.612   2.036 -0.1626 -0.2566  0.0665
15047TIP3    H166556   0.402   0.544   1.979  0.9380 -2.0693  1.5215
15047TIP3    H266557   0.515   0.644   1.990  0.5886 -1.5551  0.4098
15048TIP3   OH266558   1.636   2.014  11.306  0.0773 -0.1377 -0.2815
15048TIP3    H166559   1.685   2.016  11.224 -2.3077  0.2268 -1.7409
15048TIP3    H266560   1.665   2.092  11.354  1.5071 -0.3770 -0.7340
15049TIP3   OH266561   2.093   0.927   3.205  0.1151  0.2419  0.2257
15049TIP3    H166562   2.115   0.848   3.254 -1.0864  0.5162  1.2211
15049TIP3    H266563   2.127   0.999   3.258 -0.8230  0.5142  0.4718
15050TIP3   OH266564   2.750   4.195  14.783 -0.1560 -0.3955 -0.6389
15050TIP3    H166565   2.660   4.168  14.766 -0.5388  0.2530  0.3201
15050TIP3    H266566   2.756   4.284  14.748 -0.1659 -0.0817  0.1397
15051TIP3   OH266567   2.600   3.849   3.824  0.2619 -0.2504 -0.2285
15051TIP3    H166568   2.601   3.780   3.758  0.4688  1.7821 -2.3980
15051TIP3    H266569   2.689   3.885   3.823 -0.0017  0.4396  0.4346
15052TIP3   OH266570   4.940   1.225   3.840 -0.1533  0.1072  0.3140
15052TIP3    H166571   4.894   1.291   3.892 -0.9389  0.1642 -0.4371
15052TIP3    H266572   4.907   1.238   3.751  2.9059  1.5411 -0.6709
15053TIP3   OH266573   4.942   0.095  16.313  0.0992 -0.4506 -0.1823
15053TIP3    H166574   4.913   0.006  16.334 -0.3392 -0.1848  0.3576
15053TIP3    H266575   4.912   0.148  16.387 -0.9874  0.4117 -1.2302
15054TIP3   OH266576   0.742   4.042   4.187 -0.7016  0.0990 -0.5142
15054TIP3    H166577   0.725   4.044   4.282 -0.3428 -0.2203 -0.4459
15054TIP3    H266578   0.796   4.119   4.171 -0.9419  0.2719 -0.4938
15055TIP3   OH266579   4.368   4.848   5.205  0.0300  0.0827  0.4864
15055TIP3    H166580   4.411   4.891   5.279 -0.3919 -1.2556  1.5151
15055TIP3    H266581   4.289   4.901   5.190 -1.3742 -1.2271  2.8383
15056TIP3   OH266582   6.477   6.228  14.117  0.5175  0.2147  0.3533
15056TIP3    H166583   6.419   6.168  14.163 -0.4791 -1.0917 -2.4519
15056TIP3    H266584   6.450   6.315  14.145  0.2395 -0.5365  2.5071
15057TIP3   OH266585   5.181   5.315   5.617  0.0772 -0.2576 -0.3225
15057TIP3    H166586   5.174   5.228   5.577  0.1877 -0.1690 -0.5377
15057TIP3    H266587   5.249   5.305   5.684  0.3242 -0.2531 -0.5731
15058TIP3   OH266588   2.530   2.741  13.685  0.4308 -0.7119 -0.1560
15058TIP3    H166589   2.573   2.693  13.614 -0.1369  0.1718 -1.1104
15058TIP3    H266590   2.554   2.833  13.671  1.0163 -0.6137  1.3072
15059TIP3   OH266591   4.212   3.080  11.820  0.4710 -0.0711 -0.2345
15059TIP3    H166592   4.197   2.993  11.855  0.2605  0.3414  0.7076
15059TIP3    H266593   4.265   3.066  11.741  1.1288 -0.9750  0.3661
15060TIP3   OH266594   2.675   4.974  12.157  0.3655  0.1559  0.3031
15060TIP3    H166595   2.640   5.011  12.238  0.9322 -0.9456  1.0701
15060TIP3    H266596   2.620   4.897  12.140  1.0461 -0.3350  0.3261
15061TIP3   OH266597   6.465   6.479   6.495  0.3475  0.0341 -0.2038
15061TIP3    H166598   6.498   6.557   6.451  0.6246  0.7074  1.1604
15061TIP3    H266599   6.495   6.406   6.442  0.4538  0.8388 -1.2565
15062TIP3   OH266600   3.371   2.642  11.228  0.4211 -0.2145  0.7601
15062TIP3    H166601   3.406   2.715  11.178 -0.6451  0.5507  1.1067
15062TIP3    H266602   3.420   2.566  11.197  1.2065  0.5677  0.0539
15063TIP3   OH266603   2.521   4.808   5.014  0.0745  0.6762 -0.1609
15063TIP3    H166604   2.489   4.852   5.093  0.7461 -1.1972  1.1862
15063TIP3    H266605   2.462   4.734   5.003  0.5767  0.3801 -0.8662
15064TIP3   OH266606   0.366   3.523   6.703  0.3596 -0.2811  0.0425
15064TIP3    H166607   0.387   3.609   6.666  1.4133 -0.9923 -1.0872
15064TIP3    H266608   0.309   3.541   6.777 -0.0104  1.3460 -0.6239
15065TIP3   OH266609   5.686   4.271  14.837  0.1343 -0.2345  0.1251
15065TIP3    H166610   5.626   4.346  14.832 -0.5381 -0.7976 -0.4425
15065TIP3    H266611   5.649   4.208  14.775 -0.7069 -2.0223  2.3848
15066TIP3   OH266612   4.885   3.382  12.609 -0.7233 -0.0497 -0.3309
15066TIP3    H166613   4.871   3.386  12.515 -1.8588  0.5119 -0.1491
15066TIP3    H266614   4.917   3.294  12.626 -0.9813 -0.3041 -1.1859
15067TIP3   OH266615   2.741   2.483  12.876 -0.0951  0.2478  0.2579
15067TIP3    H166616   2.724   2.428  12.800 -1.1045 -0.7978  1.2231
15067TIP3    H266617   2.797   2.430  12.932 -0.8564  0.2953  1.0739
15068TIP3   OH266618   4.117   3.867   5.647  0.3852 -0.2747 -0.1336
15068TIP3    H166619   4.072   3.826   5.722 -0.4894  1.0647  0.0898
15068TIP3    H266620   4.145   3.793   5.593 -0.2887 -1.2095  0.7661
15069TIP3   OH266621   6.088   5.054   5.529  0.1545  0.0418  0.1334
15069TIP3    H166622   6.146   5.120   5.567  0.1785 -0.3767  0.8285
15069TIP3    H266623   6.089   5.073   5.435  0.3272  0.8999  0.3011
15070TIP3   OH266624   4.891   2.500   1.188 -0.3105 -0.4465 -0.2628
15070TIP3    H166625   4.810   2.452   1.207 -0.7110  0.8584  1.4623
15070TIP3    H266626   4.875   2.588   1.222  1.6815 -0.0573 -0.2795
15071TIP3   OH266627   0.766   5.003   4.365 -0.1536 -0.3297 -0.8262
15071TIP3    H166628   0.801   5.057   4.437  0.1130 -0.9580 -0.4787
15071TIP3    H266629   0.812   5.035   4.288  0.5756 -0.5816 -0.5010
15072TIP3   OH266630   4.578   6.385   4.992 -0.8891  0.5212 -0.3935
15072TIP3    H166631   4.628   6.375   5.073  0.6722  3.1814 -0.9530
15072TIP3    H266632   4.487   6.368   5.017 -0.0417 -2.0403  1.1627
15073TIP3   OH266633   4.735   2.810   0.886  1.0729  0.2785  0.4420
15073TIP3    H166634   4.812   2.822   0.942  0.5173 -2.7840  1.9484
15073TIP3    H266635   4.734   2.716   0.866 -1.1927  0.6060 -1.1401
15074TIP3   OH266636   2.192   6.061   1.483  0.1356 -0.4472  0.4505
15074TIP3    H166637   2.188   5.988   1.421  0.3591 -0.6265  0.6438
15074TIP3    H266638   2.101   6.090   1.492 -0.1775 -1.7011  1.5403
15075TIP3   OH266639   0.807   5.849  15.905  0.3321  0.0397  0.0601
15075TIP3    H166640   0.896   5.860  15.871  0.5902 -0.5300  0.5559
15075TIP3    H266641   0.817   5.858  16.000 -0.0893 -0.3719  0.1410
15076TIP3   OH266642   2.488   6.225   5.493  0.1694 -0.0800 -0.2962
15076TIP3    H166643   2.534   6.150   5.531 -4.0033 -3.2745 -1.1852
15076TIP3    H266644   2.441   6.265   5.567  0.1399 -0.0738 -0.3178
15077TIP3   OH266645   3.013   4.751   0.973  0.0558 -0.0384 -1.1592
15077TIP3    H166646   3.067   4.680   1.008  0.2675  0.1042 -1.1991
15077TIP3    H266647   2.980   4.796   1.051 -0.6357 -0.5997 -1.1205
15078TIP3   OH266648   5.314   0.498   1.697 -0.4744  0.0129  0.4155
15078TIP3    H166649   5.314   0.403   1.691  0.4935 -0.0106  0.7295
15078TIP3    H266650   5.314   0.516   1.791  0.0468  0.3178  0.3577
15079TIP3   OH266651   3.316   6.237  11.323 -0.0496 -0.0370  0.4164
15079TIP3    H166652   3.265   6.160  11.298 -0.6606  0.5680 -0.2744
15079TIP3    H266653   3.380   6.205  11.387 -0.2429 -1.1219  0.0798
15080TIP3   OH266654   4.396   1.967  16.649  0.0619  0.1771 -0.2479
15080TIP3    H166655   4.404   1.995  16.740  1.0026 -0.9205  0.0182
15080TIP3    H266656   4.367   1.876  16.654 -0.9396  0.4320 -1.0710
15081TIP3   OH266657   2.965   4.499   1.412  0.0154  0.9626  0.1917
15081TIP3    H166658   2.933   4.439   1.345  1.7320  0.3783 -0.1283
15081TIP3    H266659   2.887   4.547   1.441 -1.3501 -1.3447  0.4016
15082TIP3   OH266660   2.563   4.939   3.197 -0.1233 -0.3421  0.1560
15082TIP3    H166661   2.493   4.943   3.262  0.2422 -0.7630  0.5789
15082TIP3    H266662   2.553   4.853   3.157  0.6241 -0.7075  0.7488
15083TIP3   OH266663   1.642   5.367   1.816 -0.4530  0.2901  0.2866
15083TIP3    H166664   1.688   5.449   1.832 -0.6905  0.6326 -0.7311
15083TIP3    H266665   1.551   5.387   1.835 -0.3337 -0.0915  1.2635
15084TIP3   OH266666   4.518   4.714   4.080  0.2575  0.0296  0.1432
15084TIP3    H166667   4.507   4.693   3.987  0.1609  1.3996 -0.1598
15084TIP3    H266668   4.503   4.630   4.125 -3.2067  0.0539 -0.8174
15085TIP3   OH266669   1.988   3.804   1.301 -0.0023  0.2450 -0.2028
15085TIP3    H166670   1.933   3.848   1.367  1.4028  1.3495  0.2471
15085TIP3    H266671   2.069   3.855   1.300  0.3523 -0.3405 -2.1151
15086TIP3   OH266672   1.376   2.533   3.357 -0.1925 -0.3784  0.3279
15086TIP3    H166673   1.383   2.569   3.445 -1.3219 -2.3935  1.2815
15086TIP3    H266674   1.306   2.583   3.316  1.2846  1.5277  0.0471
15087TIP3   OH266675   3.349   5.062  16.334  0.7321  0.3234 -0.0418
15087TIP3    H166676   3.350   5.020  16.248  2.1833  1.6130 -0.6742
15087TIP3    H266677   3.356   5.156  16.315 -1.7218  0.8413  1.3727
15088TIP3   OH266678   5.824   5.607  14.831 -0.3481  0.3924  0.0421
15088TIP3    H166679   5.882   5.682  14.845 -0.6984  0.2605  2.3673
15088TIP3    H266680   5.750   5.644  14.782 -0.4006  1.5256  0.9440
15089TIP3   OH266681   1.605   1.398  16.130  0.1752 -0.4860  0.2241
15089TIP3    H166682   1.642   1.458  16.195  0.6973 -1.0495  0.4537
15089TIP3    H266683   1.677   1.341  16.106  0.3077  0.4837 -1.7855
15090TIP3   OH266684   1.344   4.014  13.067 -0.0300  0.4447 -0.1307
15090TIP3    H166685   1.414   4.020  13.133  0.5334  0.3627 -0.7183
15090TIP3    H266686   1.267   3.987  13.117  0.6679 -0.7551  0.3221
15091TIP3   OH266687   4.826   2.337  12.697  0.4108 -0.6043  0.0843
15091TIP3    H166688   4.791   2.248  12.686  0.6959 -0.5672 -1.2975
15091TIP3    H266689   4.921   2.326  12.683  0.4800 -0.1258  0.1922
15092TIP3   OH266690   4.566   5.016   5.328 -0.1044  0.0426 -0.9556
15092TIP3    H166691   4.580   5.110   5.338 -0.2218 -0.0535  0.1378
15092TIP3    H266692   4.650   4.983   5.297  0.4159  0.2801  0.1867
15093TIP3   OH266693   1.056   5.633  11.055 -0.6818 -0.5383 -0.0989
15093TIP3    H166694   1.127   5.644  10.992 -1.6462 -0.4732 -1.1870
15093TIP3    H266695   1.060   5.541  11.081 -1.0026 -0.8388 -1.1221
15094TIP3   OH266696   0.572   0.954   3.056  0.4721  0.1982 -0.6275
15094TIP3    H166697   0.630   1.024   3.025  1.3984  0.4342  1.4729
15094TIP3    H266698   0.625   0.874   3.050  0.7214  0.2684  0.3944
15095TIP3   OH266699   0.523   1.336   5.524  0.5163  0.1514 -0.0708
15095TIP3    H166700   0.505   1.248   5.558  0.7832  0.5527  1.1096
15095TIP3    H266701   0.618   1.341   5.521  0.5225 -0.5374 -2.6274
15096TIP3   OH266702   0.449   1.400   1.797 -0.2308  0.3960 -0.1886
15096TIP3    H166703   0.520   1.336   1.804  0.0236  0.5815 -1.0262
15096TIP3    H266704   0.376   1.351   1.760 -1.3877 -0.4376  3.0332
15097TIP3   OH266705   1.064   0.540   6.558  0.2714 -0.3021  0.6141
15097TIP3    H166706   0.981   0.587   6.562  0.8092  0.6703  0.4275
15097TIP3    H266707   1.075   0.518   6.465  1.2304  1.4169  0.2971
15098TIP3   OH266708   4.408   0.902   5.828  0.5159 -0.0116  0.2529
15098TIP3    H166709   4.391   0.920   5.735 -1.2278 -1.4776  0.2805
15098TIP3    H266710   4.389   0.985   5.872 -0.0198  0.2805 -0.5238
15099TIP3   OH266711   5.015   3.835   0.142  0.0344  0.2535  0.2035
15099TIP3    H166712   4.963   3.880   0.076  0.3246 -0.6394 -0.6382
15099TIP3    H266713   5.083   3.789   0.093 -0.4499 -1.3640  1.0088
15100TIP3   OH266714   1.654   5.713  16.939 -0.2279 -0.5591  0.3755
15100TIP3    H166715   1.702   5.792  16.962  0.4422 -1.2725  1.4494
15100TIP3    H266716   1.605   5.691  17.017 -0.8183 -0.9125 -0.0921
15101TIP3   OH266717   1.387   3.899   5.971 -0.2859 -0.2720 -0.3012
15101TIP3    H166718   1.393   3.840   5.896  1.3669  0.3193 -0.6651
15101TIP3    H266719   1.398   3.842   6.048 -2.0950 -0.8943 -0.4711
15102TIP3   OH266720   3.307   3.536  12.551  0.2663 -0.2845  0.0973
15102TIP3    H166721   3.364   3.504  12.621 -0.6383 -0.5599  0.7280
15102TIP3    H266722   3.252   3.461  12.529  0.2211 -0.0568 -0.5730
15103TIP3   OH266723   3.351   6.501   5.848  0.1478  0.3877  0.3226
15103TIP3    H166724   3.413   6.565   5.812  2.3292 -1.6064  0.4075
15103TIP3    H266725   3.265   6.535   5.824  1.2708  3.0014 -0.2019
15104TIP3   OH266726   1.631   6.497   4.815 -0.8823  0.0402  0.4883
15104TIP3    H166727   1.710   6.536   4.853 -1.4881 -0.6219  2.4874
15104TIP3    H266728   1.650   6.403   4.812 -1.0387  0.0318 -0.4106
15105TIP3   OH266729   5.656   3.457  12.394  0.1263  0.0878  0.4051
15105TIP3    H166730   5.599   3.394  12.349  1.0294 -0.2814 -0.2270
15105TIP3    H266731   5.612   3.542  12.381  0.1618 -0.0746 -0.8295
15106TIP3   OH266732   3.211   3.919   4.975 -0.5107 -0.5324  0.3815
15106TIP3    H166733   3.211   3.879   4.888  0.8465  0.4707 -0.0968
15106TIP3    H266734   3.125   3.897   5.011 -0.9889 -1.1944 -1.1038
15107TIP3   OH266735   0.843   0.741   4.995  0.8487  0.1862  0.0736
15107TIP3    H166736   0.826   0.688   5.073  1.5148 -1.4547 -0.8727
15107TIP3    H266737   0.884   0.820   5.028  3.0994 -1.4083  1.2236
15108TIP3   OH266738   5.958   5.486  16.812 -0.1393 -0.1281  0.2317
15108TIP3    H166739   5.907   5.564  16.835 -1.8057 -1.2126  0.2983
15108TIP3    H266740   6.038   5.493  16.865 -0.5878  1.1625  0.7618
15109TIP3   OH266741   6.152   4.314   2.492 -0.3037 -0.4276 -0.3047
15109TIP3    H166742   6.200   4.234   2.513  1.0091  0.1307 -1.1120
15109TIP3    H266743   6.080   4.317   2.556 -0.5663 -2.4202 -0.5019
15110TIP3   OH266744   1.977   2.500  16.598 -0.7776 -0.8097  0.4900
15110TIP3    H166745   1.965   2.405  16.602  0.5991 -1.0216 -0.1956
15110TIP3    H266746   2.044   2.513  16.530 -0.8203  0.6347  0.7101
15111TIP3   OH266747   5.320   3.576   5.034  0.2711  0.6406 -0.3231
15111TIP3    H166748   5.312   3.482   5.018  1.8961  0.5519 -0.7862
15111TIP3    H266749   5.261   3.617   4.971  1.4285  0.0076 -1.8647
15112TIP3   OH266750   1.364   1.860   2.544  0.7928  0.1280  0.5085
15112TIP3    H166751   1.321   1.895   2.622 -2.3469 -1.3854 -0.4519
15112TIP3    H266752   1.448   1.905   2.540  0.3447  1.3764  3.8773
15113TIP3   OH266753   0.704   2.189  14.732  0.2329  0.3935  0.1287
15113TIP3    H166754   0.643   2.176  14.805 -0.7559  0.0687 -0.7447
15113TIP3    H266755   0.765   2.116  14.738  0.2298  0.4372  0.7030
15114TIP3   OH266756   3.800   5.859   1.631 -0.0366 -0.2621 -0.3327
15114TIP3    H166757   3.842   5.830   1.550 -1.6576 -0.9747 -0.9577
15114TIP3    H266758   3.736   5.790   1.650 -0.5784  0.5446  0.8402
15115TIP3   OH266759   2.918   6.415  13.101  0.8600 -0.3779 -0.2470
15115TIP3    H166760   2.857   6.484  13.128  1.0411 -0.3374  0.0614
15115TIP3    H266761   2.949   6.377  13.184  1.1969 -0.4469 -0.4069
15116TIP3   OH266762   0.068   3.213   2.867 -0.0736  0.2020 -0.5182
15116TIP3    H166763   0.048   3.135   2.918 -0.8138  0.9159  0.3123
15116TIP3    H266764  -0.018   3.249   2.844  0.2522  1.2008 -0.2148
15117TIP3   OH266765   1.687   0.022   0.526  0.0316  0.1123 -0.0412
15117TIP3    H166766   1.635   0.025   0.607  0.5141  1.5634  0.2337
15117TIP3    H266767   1.670   0.106   0.484  2.7344  0.9617  0.4500
15118TIP3   OH266768   0.957   0.265   1.147  0.7835  0.3833  0.4479
15118TIP3    H166769   0.949   0.257   1.242  1.8368 -1.4443  0.4054
15118TIP3    H266770   1.025   0.331   1.135  0.0897  1.1979  0.9548
15119TIP3   OH266771   6.128   6.317  13.006 -0.2559 -0.3379  0.1911
15119TIP3    H166772   6.130   6.392  13.065 -1.0092  0.1060 -0.3482
15119TIP3    H266773   6.081   6.347  12.929 -0.0729 -1.1922 -0.2666
15120TIP3   OH266774   1.756   5.634  15.968 -0.3128  0.1169 -0.3077
15120TIP3    H166775   1.679   5.586  15.938 -0.5597 -0.2459  0.8674
15120TIP3    H266776   1.771   5.601  16.057  0.4609  1.0733 -0.0788
15121TIP3   OH266777   3.796   6.310   5.331 -0.1022  0.8078  0.0167
15121TIP3    H166778   3.790   6.388   5.386 -0.0772  0.5660  0.3591
15121TIP3    H266779   3.759   6.338   5.247  1.4696  1.6948 -0.4028
15122TIP3   OH266780   3.333   3.706   0.012  0.0987 -0.0548  0.1929
15122TIP3    H166781   3.301   3.625  -0.028  0.9931 -1.6572  2.6181
15122TIP3    H266782   3.263   3.733   0.071  0.2925  0.2792  0.2694
15123TIP3   OH266783   5.259   1.624  16.600 -0.1372  0.5779 -0.3986
15123TIP3    H166784   5.186   1.673  16.562 -1.5047  0.7040  2.3404
15123TIP3    H266785   5.242   1.622  16.694  1.5021 -2.5097 -0.0781
15124TIP3   OH266786   2.097   2.903  15.800  0.3214 -0.1675 -0.1766
15124TIP3    H166787   2.189   2.907  15.777  0.8485  0.1910  1.8404
15124TIP3    H266788   2.095   2.921  15.894 -1.8296  0.1455 -0.2422
15125TIP3   OH266789   5.607   3.366  16.735 -0.2618 -0.0035  0.4320
15125TIP3    H166790   5.563   3.310  16.800 -2.2058  2.5443  1.4272
15125TIP3    H266791   5.541   3.432  16.712  1.3655  0.8397 -2.0074
15126TIP3   OH266792   5.563   1.406   0.499  0.3869  0.5720  0.1571
15126TIP3    H166793   5.549   1.349   0.424 -0.2110  0.9535 -0.0304
15126TIP3    H266794   5.474   1.433   0.525  0.6789  1.7211 -0.0102
15127TIP3   OH266795   2.642   2.331  15.869  0.3163  0.1179 -0.3270
15127TIP3    H166796   2.683   2.404  15.822  1.1225  0.0444  0.2442
15127TIP3    H266797   2.596   2.372  15.942 -1.5865  0.3030 -1.6074
15128TIP3   OH266798   0.995   5.634  13.656  0.0150  0.7877 -0.3285
15128TIP3    H166799   0.919   5.653  13.601 -2.3286 -0.3284  2.3937
15128TIP3    H266800   1.002   5.538  13.654  1.4355  0.8796 -0.5985
15129TIP3   OH266801   3.244   0.567   2.824  0.0037  0.0433  0.3973
15129TIP3    H166802   3.320   0.547   2.769  0.1470  0.0715  0.5841
15129TIP3    H266803   3.169   0.539   2.772  0.1802 -0.6499  0.5069
15130TIP3   OH266804   2.013   6.058  11.833  0.5250 -0.0636  0.6488
15130TIP3    H166805   2.079   6.008  11.786  2.4399  2.4158  0.5930
15130TIP3    H266806   1.965   6.105  11.765 -0.3378 -0.7368  0.7912
15131TIP3   OH266807   6.151   4.481  10.298  0.1803  0.2721 -0.0652
15131TIP3    H166808   6.183   4.469  10.388 -0.7062  0.5968  0.3049
15131TIP3    H266809   6.161   4.574  10.280 -0.2230  0.3206 -0.0649
15132TIP3   OH266810   0.474   3.290   2.935  0.1134 -0.4472 -0.0312
15132TIP3    H166811   0.488   3.385   2.934  1.0084 -0.5580 -3.0776
15132TIP3    H266812   0.415   3.275   3.009 -0.7565  2.5767 -0.0444
15133TIP3   OH266813   2.310   2.437   0.134 -0.3082 -0.3669 -0.0431
15133TIP3    H166814   2.388   2.439   0.190 -0.5529  0.0420  0.2862
15133TIP3    H266815   2.308   2.348   0.099  1.7255  0.3522 -2.0527
15134TIP3   OH266816   3.062   5.504  14.920  0.0744 -0.5923 -0.3899
15134TIP3    H166817   3.018   5.502  14.835  2.9013 -2.9617 -1.8696
15134TIP3    H266818   3.146   5.547  14.903  1.0939 -2.0067  0.9659
15135TIP3   OH266819   2.602   3.610  11.611  0.0231 -0.2828 -0.2578
15135TIP3    H166820   2.678   3.639  11.661 -0.1851  2.4605 -1.4261
15135TIP3    H266821   2.528   3.654  11.653 -0.2987  1.0256 -2.1276
15136TIP3   OH266822   1.546   5.229  13.748  0.2296  0.0158  0.3052
15136TIP3    H166823   1.482   5.193  13.688  0.5936  1.0936 -0.7533
15136TIP3    H266824   1.594   5.153  13.782 -0.5390 -0.6596 -0.1240
15137TIP3   OH266825   4.049   0.149  15.794  0.6033  0.0879  0.0008
15137TIP3    H166826   4.144   0.150  15.781  0.3004 -1.5075 -2.7999
15137TIP3    H266827   4.016   0.216  15.733 -0.0610  0.9375  1.2699
15138TIP3   OH266828   4.648   3.820  17.163 -0.0260 -0.0437 -0.1576
15138TIP3    H166829   4.678   3.893  17.217  0.3672 -0.3399  0.0282
15138TIP3    H266830   4.554   3.816  17.178  0.3266 -1.2481  1.8927
15139TIP3   OH266831   3.119   5.086  17.014 -0.1128 -0.3013  0.3493
15139TIP3    H166832   3.205   5.127  17.017 -0.1742 -0.0408 -1.4400
15139TIP3    H266833   3.060   5.155  16.985 -0.4364 -1.2924 -1.3747
15140TIP3   OH266834   6.051   5.622   6.587 -0.3599 -0.6785  0.0157
15140TIP3    H166835   6.093   5.571   6.518  2.1298  1.5770 -0.2451
15140TIP3    H266836   6.075   5.578   6.668  0.7260 -0.6371 -0.2777
15141TIP3   OH266837   3.094   3.421  16.572  0.5911 -0.8283  0.0143
15141TIP3    H166838   3.174   3.470  16.552  0.5738 -0.6331  0.4090
15141TIP3    H266839   3.025   3.468  16.525  0.3400  0.4252  1.5795
15142TIP3   OH266840   5.535   4.166   2.341 -0.0349  0.4117 -0.2162
15142TIP3    H166841   5.466   4.105   2.317  0.3482 -0.7388  1.5035
15142TIP3    H266842   5.610   4.110   2.362  0.0791  1.4131  2.1872
15143TIP3   OH266843   3.816   5.441  14.176  0.2794 -0.0135 -0.2214
15143TIP3    H166844   3.861   5.524  14.193 -1.5514  0.7487  1.0822
15143TIP3    H266845   3.723   5.465  14.170 -0.4028 -2.0949  1.2534
15144TIP3   OH266846   0.267   4.958  11.667 -0.0289 -0.1285 -0.1348
15144TIP3    H166847   0.304   4.902  11.599  1.4615 -0.4242  0.9196
15144TIP3    H266848   0.250   5.041  11.622 -0.2637 -0.7332 -1.1801
15145TIP3   OH266849   1.373   1.401   3.412 -0.2886 -0.2174  0.3935
15145TIP3    H166850   1.428   1.376   3.337 -0.6672 -1.9570  0.6610
15145TIP3    H266851   1.424   1.468   3.458  0.0055  0.7652 -1.3441
15146TIP3   OH266852   4.823   6.702  12.816  0.0475  0.0675 -0.2023
15146TIP3    H166853   4.913   6.672  12.801  0.9003  1.7653  1.3783
15146TIP3    H266854   4.796   6.659  12.897 -0.5263 -0.3065 -0.5846
15147TIP3   OH266855   1.490   4.910  11.344 -0.5680  0.2990  0.1895
15147TIP3    H166856   1.451   4.952  11.268 -1.8132  0.7135  1.0340
15147TIP3    H266857   1.500   4.818  11.319  0.2369  0.6868 -0.9269
15148TIP3   OH266858   3.079   2.897  10.306  0.2910 -0.3343  0.5281
15148TIP3    H166859   3.154   2.879  10.362 -0.0574 -1.3016  0.6908
15148TIP3    H266860   3.039   2.811  10.291 -0.1776  0.0412 -0.4039
15149TIP3   OH266861   1.360   1.034  10.968  0.7636  0.1999 -0.3996
15149TIP3    H166862   1.423   1.066  10.904  0.1776  2.8849  0.3072
15149TIP3    H266863   1.340   1.110  11.022 -3.3653 -0.5139 -0.8234
15150TIP3   OH266864   6.533   5.727  13.059 -0.0805  0.7213  0.3374
15150TIP3    H166865   6.445   5.747  13.027  0.2457  1.4853 -0.0850
15150TIP3    H266866   6.592   5.769  12.997  0.6293 -1.0916 -0.2596
15151TIP3   OH266867   0.637   0.364  11.845 -0.1795 -0.5909 -0.1339
15151TIP3    H166868   0.649   0.269  11.852 -0.3990 -0.4812  2.4330
15151TIP3    H266869   0.725   0.399  11.835  0.1678 -0.9053  1.6555
15152TIP3   OH266870   4.295   3.211  13.293 -0.3416 -0.1643  0.4672
15152TIP3    H166871   4.362   3.171  13.238  0.6907  0.4788  1.2439
15152TIP3    H266872   4.287   3.152  13.368  0.6790  0.6890  1.2673
15153TIP3   OH266873   0.046   0.959  12.105 -0.6463 -0.0071  0.0164
15153TIP3    H166874   0.087   0.991  12.185 -1.0763 -0.1304  0.2891
15153TIP3    H266875  -0.047   0.955  12.126 -0.9420  1.3330 -0.9503
15154TIP3   OH266876   1.253   3.288  15.918  0.7679  0.2018 -0.3997
15154TIP3    H166877   1.288   3.268  16.005 -0.4135  0.8409  0.2263
15154TIP3    H266878   1.257   3.204  15.871  0.5451 -0.3621  0.5718
15155TIP3   OH266879   5.574   4.571  15.572 -0.6400  0.0285 -0.0108
15155TIP3    H166880   5.506   4.556  15.638 -0.3885 -2.9364 -0.3248
15155TIP3    H266881   5.535   4.631  15.509 -0.6559  3.4906  3.1549
15156TIP3   OH266882   2.436   2.087   1.085 -0.0822  1.0396  0.4612
15156TIP3    H166883   2.398   2.021   1.027 -0.1950  1.2775  0.2631
15156TIP3    H266884   2.472   2.153   1.025  1.3584  0.4199  0.6216
15157TIP3   OH266885   1.608   2.154   0.857 -0.2590 -0.1274 -0.4411
15157TIP3    H166886   1.518   2.187   0.853 -0.3116 -0.4722 -2.8674
15157TIP3    H266887   1.610   2.083   0.793  1.5940 -0.5430  0.0553
15158TIP3   OH266888   1.530   6.327  12.281 -0.3478 -0.3065  0.0157
15158TIP3    H166889   1.583   6.309  12.204  1.7217  1.0606  1.0723
15158TIP3    H266890   1.536   6.248  12.334  0.8831 -0.0540  0.2567
15159TIP3   OH266891   4.095   4.696   5.874 -0.4248  0.0401  0.3204
15159TIP3    H166892   4.000   4.691   5.863 -0.4668  0.3865  0.5249
15159TIP3    H266893   4.113   4.789   5.890 -0.1338 -0.1355  1.0342
15160TIP3   OH266894   0.435   1.879  11.250  0.3839  0.0922  0.1187
15160TIP3    H166895   0.413   1.949  11.189  0.9812  0.4316  0.2900
15160TIP3    H266896   0.380   1.805  11.222  1.4667 -0.1188 -1.5418
15161TIP3   OH266897   4.148   2.242   2.836 -0.0190 -0.0218  0.0251
15161TIP3    H166898   4.139   2.334   2.862  2.2245  0.1577  0.2748
15161TIP3    H266899   4.075   2.227   2.776 -1.1657  1.5437  0.9841
15162TIP3   OH266900   6.283   3.139  15.130 -0.3153 -0.2719  0.2654
15162TIP3    H166901   6.337   3.129  15.208  1.9396  0.9185 -1.0979
15162TIP3    H266902   6.214   3.073  15.140 -0.1563 -0.0095  3.3104
15163TIP3   OH266903   1.668   4.389   5.190  0.1481  0.3818  0.1568
15163TIP3    H166904   1.676   4.479   5.223 -0.4326  0.1613  0.8959
15163TIP3    H266905   1.704   4.335   5.259  1.2491  0.0848 -0.6265
15164TIP3   OH266906   4.220   5.623   0.765  0.0013  0.7756 -0.4970
15164TIP3    H166907   4.284   5.559   0.796  0.6516  2.2821  1.4063
15164TIP3    H266908   4.155   5.628   0.834 -0.9643  0.9176 -1.4024
15165TIP3   OH266909   0.963   6.689   0.773  0.5736  0.1888  0.2094
15165TIP3    H166910   0.899   6.688   0.701 -2.6394 -1.5891  2.9175
15165TIP3    H266911   0.936   6.764   0.827  1.3446 -0.0338  0.9018
15166TIP3   OH266912   3.294   0.717  14.738  0.5138 -0.2066  0.3660
15166TIP3    H166913   3.317   0.796  14.786  1.1074 -0.2792  0.2036
15166TIP3    H266914   3.360   0.652  14.764 -0.3027 -0.8268  0.9404
15167TIP3   OH266915   4.802   3.387   0.332  0.1557  0.2377  0.0021
15167TIP3    H166916   4.835   3.361   0.418  0.0270 -0.3159 -0.1181
15167TIP3    H266917   4.870   3.445   0.298 -0.0058  0.8379  0.6692
15168TIP3   OH266918   4.304   5.958   5.765  0.4341 -0.1792 -0.0672
15168TIP3    H166919   4.351   6.006   5.833 -0.0267 -0.5211  0.4987
15168TIP3    H266920   4.244   6.022   5.727  1.5860  0.3535 -1.0333
15169TIP3   OH266921   4.053   2.854   4.480  0.0612  0.3137 -0.5706
15169TIP3    H166922   4.121   2.840   4.414 -0.1872 -2.5173 -0.3040
15169TIP3    H266923   3.971   2.832   4.437 -0.4148  1.2097 -0.1370
15170TIP3   OH266924   3.841   0.517   4.779  0.4149 -0.0476 -0.2622
15170TIP3    H166925   3.890   0.599   4.770  0.0102  0.2132 -0.0988
15170TIP3    H266926   3.906   0.454   4.812  0.5101  0.4420  0.5031
15171TIP3   OH266927   3.281   0.353  16.091 -0.8466 -0.2560 -0.0226
15171TIP3    H166928   3.280   0.270  16.042  0.2411  0.4665 -1.3019
15171TIP3    H266929   3.341   0.336  16.165  1.3720  0.1288 -1.6771
15172TIP3   OH266930   5.947   6.179  16.179 -0.1605  0.2250  0.4379
15172TIP3    H166931   5.992   6.216  16.102 -0.0015 -1.1799 -0.1488
15172TIP3    H266932   5.953   6.085  16.168  0.1461 -0.0067  2.3570
15173TIP3   OH266933   1.428   4.829  12.561  0.3929  0.2650 -0.2523
15173TIP3    H166934   1.356   4.888  12.581  0.2114  0.9653 -2.8602
15173TIP3    H266935   1.504   4.886  12.552  0.7801 -0.2022  0.0801
15174TIP3   OH266936   5.242   6.034  14.832 -0.8325 -0.0942 -0.4323
15174TIP3    H166937   5.167   6.006  14.884 -0.1784 -0.1250  0.5182
15174TIP3    H266938   5.309   6.056  14.897 -0.4285  1.1003 -1.2256
15175TIP3   OH266939   4.224   2.728   5.876  0.6035  0.3830  0.5753
15175TIP3    H166940   4.175   2.706   5.955 -0.5311  1.3047  0.1257
15175TIP3    H266941   4.258   2.816   5.891 -0.2570  0.8667 -0.2748
15176TIP3   OH266942   2.249   3.996  15.052 -0.3184 -0.4982  0.0965
15176TIP3    H166943   2.195   3.928  15.010  0.5726 -1.3224  0.2557
15176TIP3    H266944   2.328   4.001  14.998 -1.7558  2.7475 -1.7925
15177TIP3   OH266945   6.151   4.808   1.844 -0.6261  0.2220  0.1776
15177TIP3    H166946   6.141   4.756   1.923 -1.3233  0.0654 -0.0039
15177TIP3    H266947   6.219   4.764   1.794  0.5784  0.9340  1.1693
15178TIP3   OH266948   1.468   3.427   5.203 -0.1498  0.0814 -0.2125
15178TIP3    H166949   1.386   3.447   5.249 -1.3008  0.4679 -2.3785
15178TIP3    H266950   1.529   3.493   5.235 -0.7923  0.0406  1.1301
15179TIP3   OH266951   6.698   6.277  17.158 -0.1571  0.7066 -0.9191
15179TIP3    H166952   6.791   6.261  17.178 -0.4706  0.3935  0.3657
15179TIP3    H266953   6.699   6.318  17.072  1.1351  0.0673 -1.2317
15180TIP3   OH266954   3.343   3.087  11.654 -1.0650  0.1406  0.1610
15180TIP3    H166955   3.404   3.014  11.640 -1.4823  0.0359 -1.0906
15180TIP3    H266956   3.355   3.143  11.578 -0.6546  1.4698  1.1748
15181TIP3   OH266957   3.159   3.276   0.591  0.1934 -0.2817 -0.0329
15181TIP3    H166958   3.207   3.253   0.671  0.3302 -1.4881 -0.4520
15181TIP3    H266959   3.072   3.240   0.604  1.1085 -3.2475 -1.7158
15182TIP3   OH266960   5.910   5.781   3.828  0.6613 -0.0021  0.3200
15182TIP3    H166961   5.866   5.805   3.910  0.0116  0.2925 -0.1085
15182TIP3    H266962   5.880   5.847   3.765 -0.7086 -1.6101 -0.7462
15183TIP3   OH266963   0.499   6.230   4.629 -0.5948 -0.2474  0.4789
15183TIP3    H166964   0.576   6.176   4.611 -0.0673 -0.2487  2.5943
15183TIP3    H266965   0.438   6.172   4.674 -0.8058  0.3859  1.0325
15184TIP3   OH266966   2.984   5.037   4.983  0.4575  0.0665 -0.3501
15184TIP3    H166967   2.979   4.947   4.952  0.9604 -0.0404 -0.1184
15184TIP3    H266968   2.910   5.046   5.044  1.3249 -0.6594  0.8346
15185TIP3   OH266969   0.277   6.147   0.428 -0.4219  0.1833  0.6643
15185TIP3    H166970   0.212   6.170   0.495  0.6339  2.0774  1.0736
15185TIP3    H266971   0.357   6.131   0.478 -0.3494 -1.3008  0.0883
15186TIP3   OH266972   3.252   3.183  13.843  0.2070  0.4619  0.5167
15186TIP3    H166973   3.208   3.164  13.760  0.4846  1.1941  0.2045
15186TIP3    H266974   3.208   3.261  13.876 -0.5790 -0.3954  1.5595
15187TIP3   OH266975   1.989   3.182   1.865 -0.5940 -0.3923  0.5617
15187TIP3    H166976   1.965   3.259   1.916  1.2324 -0.5411  1.6793
15187TIP3    H266977   2.063   3.210   1.811 -0.4543 -1.1291  0.3565
15188TIP3   OH266978   2.313   0.072   4.603 -0.1433 -0.5149 -0.3250
15188TIP3    H166979   2.400   0.113   4.609 -1.4803  2.4124 -0.1927
15188TIP3    H266980   2.268   0.121   4.534 -2.7428  0.0988  1.7215
15189TIP3   OH266981   2.726   6.005   0.621 -0.0365 -0.5670  0.3013
15189TIP3    H166982   2.733   6.073   0.688  1.2514 -0.3491 -0.0392
15189TIP3    H266983   2.694   6.051   0.543  1.3768 -0.2259 -0.0920
15190TIP3   OH266984   0.366   5.442  12.321  0.1038 -0.4897 -0.3522
15190TIP3    H166985   0.344   5.356  12.357  0.1514 -0.2221  0.3333
15190TIP3    H266986   0.459   5.454  12.343 -0.0831  0.0294  0.1562
15191TIP3   OH266987   6.089   2.589  13.113 -0.3305  0.3702  0.0527
15191TIP3    H166988   6.045   2.562  13.032  0.1553 -0.9043  0.1987
15191TIP3    H266989   6.178   2.554  13.104 -0.1181  0.6857  0.9084
15192TIP3   OH266990   5.234   6.392  11.495 -0.0814  0.0315  0.2907
15192TIP3    H166991   5.174   6.466  11.500 -2.4215 -1.9041  2.5801
15192TIP3    H266992   5.301   6.410  11.561 -1.4177 -0.5249  1.8091
15193TIP3   OH266993   1.744   0.188  15.848 -0.3777  0.0058 -0.3822
15193TIP3    H166994   1.686   0.252  15.888  0.8557  0.6385  0.4404
15193TIP3    H266995   1.690   0.143  15.782 -2.1223 -0.2857  1.2125
15194TIP3   OH266996   2.711   1.123  15.337  0.3677 -0.3085  0.9262
15194TIP3    H166997   2.640   1.060  15.350 -1.4212  1.4792  0.0917
15194TIP3    H266998   2.757   1.091  15.259 -0.5009 -0.6153  0.5322
15195TIP3   OH266999   0.672   4.078   5.042  0.0245  0.3718  0.1087
15195TIP3    H167000   0.741   4.104   5.104 -0.6595  0.1114  0.9816
15195TIP3    H267001   0.701   3.992   5.010 -0.1910 -0.0153  0.9306
15196TIP3   OH267002   6.270   4.555  15.137 -0.3028 -0.1539  0.4437
15196TIP3    H167003   6.323   4.605  15.074 -0.8232  0.4624  0.4932
15196TIP3    H267004   6.334   4.500  15.183  0.1291 -0.3545 -0.3784
15197TIP3   OH267005   5.202   2.780   5.605 -0.2727 -0.2765  0.3506
15197TIP3    H167006   5.241   2.730   5.534  0.5779 -0.4692  0.9476
15197TIP3    H267007   5.123   2.731   5.628 -2.9708  2.0680 -3.3330
15198TIP3   OH267008   2.923   6.166   6.676 -0.0625 -0.1586 -0.4263
15198TIP3    H167009   3.015   6.173   6.701 -0.6327  2.2029  1.2790
15198TIP3    H267010   2.875   6.184   6.757 -2.0616 -3.3272 -0.8158
15199TIP3   OH267011   2.555   2.436  14.097  0.0841  0.4084 -0.1015
15199TIP3    H167012   2.511   2.352  14.082  0.0842  0.5307 -0.8037
15199TIP3    H267013   2.643   2.423  14.063  0.2229  0.5576  0.1963
15200TIP3   OH267014   0.589   3.798  13.089  0.0589  0.1812  0.1728
15200TIP3    H167015   0.624   3.887  13.088 -1.5245  0.8247 -0.2114
15200TIP3    H267016   0.515   3.800  13.027 -0.5880 -1.1444  0.8635
15201TIP3   OH267017   2.354   6.585  13.979 -0.0790 -0.2446 -0.2931
15201TIP3    H167018   2.447   6.603  13.966  0.4391 -2.7905 -0.2837
15201TIP3    H267019   2.320   6.572  13.891  0.0459 -1.4511 -0.1724
15202TIP3   OH267020   5.916   5.221  14.317 -0.0659 -0.5642  0.3763
15202TIP3    H167021   6.001   5.266  14.316  0.1546 -0.9898 -0.9392
15202TIP3    H267022   5.910   5.183  14.405  1.0640 -0.4436  0.5128
15203TIP3   OH267023   3.420   3.275  15.166 -0.2683  0.0462 -0.4151
15203TIP3    H167024   3.364   3.348  15.190 -0.8670 -0.7126  0.5704
15203TIP3    H267025   3.491   3.314  15.116 -1.0917  1.1668 -0.7307
15204TIP3   OH267026   4.281   5.554  15.932  0.0961  0.6549 -0.1662
15204TIP3    H167027   4.300   5.529  15.841 -0.8850  0.5327 -0.3453
15204TIP3    H267028   4.257   5.473  15.975 -1.8201  1.0561 -0.4224
15205TIP3   OH267029   3.250   5.233   4.081  0.5106  0.3245  0.1322
15205TIP3    H167030   3.202   5.315   4.076  1.0637  0.5909 -1.0231
15205TIP3    H267031   3.270   5.211   3.990  0.7533 -0.8623  0.4572
15206TIP3   OH267032   1.891   1.090  15.299 -0.1823 -0.1769  0.2632
15206TIP3    H167033   1.870   1.143  15.375  0.8242  0.0207  0.4079
15206TIP3    H267034   1.861   1.142  15.224 -0.4508 -0.0224  0.4771
15207TIP3   OH267035   3.864   4.343  16.400  0.2710 -0.0471  0.8467
15207TIP3    H167036   3.896   4.255  16.380 -0.5717 -0.4665  1.2736
15207TIP3    H267037   3.880   4.354  16.493 -1.5016 -0.5752  1.2393
15208TIP3   OH267038   5.084   0.326   3.267  0.5782 -0.2579  0.1327
15208TIP3    H167039   5.036   0.405   3.294  2.1905  0.9679 -0.4975
15208TIP3    H267040   5.023   0.281   3.208 -0.7432 -0.0092  1.2798
15209TIP3   OH267041   5.091   5.773  16.913 -0.3884  0.1128 -0.2118
15209TIP3    H167042   5.046   5.703  16.866  1.6581 -1.8373  0.6133
15209TIP3    H267043   5.140   5.820  16.846 -0.0410 -0.6302 -0.4850
15210TIP3   OH267044   1.217   1.157   2.308  0.0943 -0.0394 -0.7784
15210TIP3    H167045   1.263   1.201   2.236  1.5001  0.9932  0.7119
15210TIP3    H267046   1.225   1.064   2.288  1.4550  0.1854 -1.3865
15211TIP3   OH267047   0.625   0.580  16.547 -0.2275  0.0707 -0.4157
15211TIP3    H167048   0.694   0.570  16.613 -0.0473  0.2084 -0.5836
15211TIP3    H267049   0.573   0.654  16.578 -0.3747 -0.1131 -0.2213
15212TIP3   OH267050   6.203   6.040   3.916 -0.1933  0.5404 -0.4012
15212TIP3    H167051   6.278   6.030   3.974  0.4416 -1.1882 -1.4683
15212TIP3    H267052   6.183   6.134   3.918  2.3961  1.1383 -0.5784
15213TIP3   OH267053   5.113   3.667   0.675  0.8145 -0.1837 -0.0000
15213TIP3    H167054   5.163   3.648   0.596 -1.1193  0.6899 -1.4708
15213TIP3    H267055   5.162   3.738   0.718  0.9013  0.5883 -1.3536
15214TIP3   OH267056   3.492   0.308  11.123 -0.4040  0.0775  0.4245
15214TIP3    H167057   3.422   0.372  11.121 -1.1784 -0.8061 -2.4936
15214TIP3    H267058   3.573   0.360  11.124 -1.0359  1.0661  0.5528
15215TIP3   OH267059   5.053   4.110  11.253  0.8718 -0.5289 -0.2576
15215TIP3    H167060   5.131   4.081  11.205  0.4662 -0.8988 -0.7010
15215TIP3    H267061   5.049   4.204  11.239 -0.0327 -0.8266 -2.1412
15216TIP3   OH267062   2.747   6.458  12.067  0.4031  0.2200  0.5408
15216TIP3    H167063   2.686   6.532  12.071 -0.1518 -0.2485  0.8852
15216TIP3    H267064   2.712   6.396  12.130 -1.2690 -1.9389 -2.3654
15217TIP3   OH267065   2.714   1.137  17.132 -0.1477  1.0686  0.0774
15217TIP3    H167066   2.659   1.060  17.122  2.3492 -1.1604  2.4447
15217TIP3    H267067   2.766   1.141  17.052  0.4806 -0.4127  0.3907
15218TIP3   OH267068   4.582   5.927   1.142  0.2349  0.0344  0.3489
15218TIP3    H167069   4.543   5.962   1.222  1.2813 -0.0766  0.9094
15218TIP3    H267070   4.674   5.913   1.163  0.4244 -0.4476 -0.7276
15219TIP3   OH267071   3.519   5.350  13.553  0.1384 -0.0754 -0.3702
15219TIP3    H167072   3.545   5.264  13.520 -0.1074 -0.5801  0.7225
15219TIP3    H267073   3.582   5.410  13.513 -0.0187 -0.6908 -1.5630
15220TIP3   OH267074   6.612   3.371   5.211 -0.1399  0.0012 -0.2646
15220TIP3    H167075   6.520   3.363   5.234 -0.1817  0.0456 -0.4176
15220TIP3    H267076   6.659   3.363   5.294 -0.2621 -0.4114 -0.2324
15221TIP3   OH267077   4.662   1.287  13.727 -0.5916  0.2110 -0.6598
15221TIP3    H167078   4.719   1.210  13.727  1.1176  1.4569 -1.0365
15221TIP3    H267079   4.721   1.362  13.725 -2.2407  1.5402 -1.8630
15222TIP3   OH267080   4.372   4.398  12.307 -0.8166 -0.0306  0.1511
15222TIP3    H167081   4.465   4.395  12.286 -0.8610 -0.5163  0.0188
15222TIP3    H267082   4.364   4.468  12.371 -0.5342  0.7948 -0.7094
15223TIP3   OH267083   5.944   5.121   0.014 -0.4935  0.2341  0.3821
15223TIP3    H167084   5.963   5.027   0.008  2.1357  0.8573 -1.9666
15223TIP3    H267085   5.995   5.150   0.090 -0.3134 -0.0151  0.3598
15224TIP3   OH267086   1.188   0.667   5.997  0.3972  0.2030  0.7800
15224TIP3    H167087   1.176   0.740   5.936 -0.5081 -0.2395  0.4269
15224TIP3    H267088   1.105   0.662   6.044  0.2339 -1.0141  0.3637
15225TIP3   OH267089   4.507   0.803   2.681  0.0558  0.2401 -0.0617
15225TIP3    H167090   4.587   0.752   2.674  0.4113  0.7683  0.1053
15225TIP3    H267091   4.518   0.874   2.618 -0.7542 -0.3009 -0.8335
15226TIP3   OH267092   0.886   4.227  16.160  0.0061 -1.0353  0.0391
15226TIP3    H167093   0.799   4.265  16.175 -0.5504 -1.6529 -1.5078
15226TIP3    H267094   0.940   4.301  16.134 -0.3072 -0.7925  0.0667
15227TIP3   OH267095   3.414   4.533   5.686 -0.4631  0.0012 -0.7892
15227TIP3    H167096   3.475   4.605   5.702  0.0955  0.0278 -2.8438
15227TIP3    H267097   3.333   4.560   5.729 -0.0387  1.4949 -0.8866
15228TIP3   OH267098   1.092   6.659   2.665 -0.3012  0.2174 -0.2885
15228TIP3    H167099   1.022   6.628   2.607  0.1520  0.2565 -0.8663
15228TIP3    H267100   1.149   6.711   2.608  0.1841  0.2071  0.1834
15229TIP3   OH267101   2.219   3.837   4.456 -0.1942 -0.0937 -0.1191
15229TIP3    H167102   2.127   3.816   4.442  0.0605 -0.7370 -0.9276
15229TIP3    H267103   2.218   3.918   4.507 -1.2080  0.3676 -0.8432
15230TIP3   OH267104   3.408   3.476  11.582  0.2226  0.1425 -0.8200
15230TIP3    H167105   3.471   3.404  11.581 -0.4667 -0.4580 -1.6697
15230TIP3    H267106   3.350   3.456  11.657  1.3071  0.9403  0.2452
15231TIP3   OH267107   2.795   3.425   5.577  0.3354  0.3325 -0.2519
15231TIP3    H167108   2.729   3.359   5.599 -0.3560  0.7243 -1.1214
15231TIP3    H267109   2.749   3.509   5.585  1.2750  0.7518  1.1064
15232TIP3   OH267110   1.345   2.442   4.820 -0.4107  0.2465  0.5338
15232TIP3    H167111   1.409   2.388   4.773  0.8496  0.3956  2.0134
15232TIP3    H267112   1.387   2.528   4.826 -1.8664  1.0452 -0.7106
15233TIP3   OH267113   3.178   1.305  15.444  0.3842 -0.1267 -0.6544
15233TIP3    H167114   3.245   1.247  15.478 -0.4272 -1.0112 -0.5489
15233TIP3    H267115   3.131   1.252  15.379  1.2869  1.2168 -2.4550
15234TIP3   OH267116   5.011   1.525   2.190  0.7531  0.5393  0.6498
15234TIP3    H167117   4.955   1.468   2.138 -1.2914 -0.0925  3.4292
15234TIP3    H267118   5.100   1.504   2.161 -0.2124 -1.1948 -1.1526
15235TIP3   OH267119   5.257   1.371  15.377  0.1522  0.1836 -0.7108
15235TIP3    H167120   5.290   1.403  15.461  1.2284  1.5711 -1.6333
15235TIP3    H267121   5.334   1.333  15.335  0.0694  1.3064 -1.8935
15236TIP3   OH267122   5.640   5.223  12.583  0.2202  0.4297 -0.0585
15236TIP3    H167123   5.556   5.268  12.574  2.2774  4.6550  0.6406
15236TIP3    H267124   5.704   5.284  12.548  3.1062 -2.4388  0.0111
15237TIP3   OH267125   1.184   1.308  11.762  0.0377  0.3925 -0.4993
15237TIP3    H167126   1.179   1.319  11.857  3.2043  1.1721 -0.3650
15237TIP3    H267127   1.234   1.228  11.749  1.6939  1.5706 -1.5010
15238TIP3   OH267128   1.441   0.849  11.407 -0.0770  0.4658  0.1756
15238TIP3    H167129   1.375   0.905  11.447  0.3876  0.9828  0.2227
15238TIP3    H267130   1.503   0.910  11.367 -0.1240 -0.0265 -0.6688
15239TIP3   OH267131   3.058   3.850   3.705  0.1575  0.2425 -0.2382
15239TIP3    H167132   3.072   3.810   3.791 -0.9897  2.3199  0.9655
15239TIP3    H267133   3.088   3.940   3.716 -2.8912  1.4149 -1.0720
15240TIP3   OH267134   3.765   4.294  15.356 -0.2955 -0.0439 -0.8737
15240TIP3    H167135   3.687   4.241  15.338 -0.0804 -0.6978  0.0937
15240TIP3    H267136   3.839   4.236  15.334 -0.0549  1.5117 -4.5239
15241TIP3   OH267137   0.481   2.547  15.157  0.1838  0.1136 -0.2549
15241TIP3    H167138   0.441   2.513  15.237  0.2587 -0.6679 -0.5459
15241TIP3    H267139   0.567   2.579  15.185 -1.2728  3.3812  0.7085
15242TIP3   OH267140   4.785   4.781   1.041  0.0403  0.4948 -0.7948
15242TIP3    H167141   4.801   4.778   0.947  0.1559 -0.3312 -0.7525
15242TIP3    H267142   4.788   4.689   1.069 -0.5729  0.6844 -0.0876
15243TIP3   OH267143   2.509   1.602   1.275 -0.2933 -0.3241 -0.1182
15243TIP3    H167144   2.517   1.677   1.334 -1.1325  0.0041 -0.4031
15243TIP3    H267145   2.420   1.569   1.291 -0.2830 -0.6440 -0.7125
15244TIP3   OH267146   1.796   1.032   5.525 -1.3126 -0.2597  0.7169
15244TIP3    H167147   1.855   0.995   5.459 -0.6949 -0.7505  1.5296
15244TIP3    H267148   1.771   1.117   5.489  2.2279  1.3007  1.6803
15245TIP3   OH267149   2.880   5.516   3.469  0.3121 -0.5200 -0.4414
15245TIP3    H167150   2.847   5.431   3.441  2.9432 -2.4985  2.1594
15245TIP3    H267151   2.946   5.538   3.403  0.2477 -0.8902 -0.6326
15246TIP3   OH267152   4.338   4.582   0.924  0.1264 -0.3321  0.2332
15246TIP3    H167153   4.373   4.630   0.849  1.4916 -1.2157  0.2905
15246TIP3    H267154   4.341   4.644   0.996 -0.2527  0.2055 -0.2093
15247TIP3   OH267155   1.750   5.775  12.725 -0.3947  0.4744 -0.2503
15247TIP3    H167156   1.839   5.747  12.705 -0.9149 -0.6684 -1.0685
15247TIP3    H267157   1.747   5.780  12.821  0.3163 -0.3105 -0.1763
15248TIP3   OH267158   5.218   2.438  11.501  0.1634  0.4107  0.1895
15248TIP3    H167159   5.213   2.505  11.432  0.3665  0.8870  0.6389
15248TIP3    H267160   5.254   2.483  11.576  1.6477 -0.5502  0.0668
15249TIP3   OH267161   6.149   6.073   0.004 -0.3209 -0.1201  0.1607
15249TIP3    H167162   6.153   6.114  -0.082  1.8464 -2.3191 -0.8387
15249TIP3    H267163   6.185   6.139   0.064  1.1311  0.2641 -1.1066
15250TIP3   OH267164   3.523   6.568  15.660  0.1379 -0.1214 -0.3565
15250TIP3    H167165   3.606   6.530  15.689  0.0518 -1.5822 -1.9388
15250TIP3    H267166   3.543   6.609  15.576 -0.8831 -1.1360 -1.1164
15251TIP3   OH267167   1.287   1.225   4.852 -0.2983 -0.1827 -0.2305
15251TIP3    H167168   1.240   1.277   4.786 -2.0965 -0.7231  0.5901
15251TIP3    H267169   1.316   1.148   4.805  0.5009  0.5444 -0.9480
15252TIP3   OH267170   4.966   2.368   5.443  0.0553 -0.8901 -0.0001
15252TIP3    H167171   5.061   2.380   5.433 -0.0949  0.8153  0.4575
15252TIP3    H267172   4.929   2.411   5.366 -0.2655 -3.5014 -1.3448
15253TIP3   OH267173   5.583   3.587   4.859  0.0174  0.3669 -0.6089
15253TIP3    H167174   5.620   3.499   4.871  0.1294  0.5236  0.1981
15253TIP3    H267175   5.493   3.580   4.892  0.6316  1.0451  1.2583
15254TIP3   OH267176   0.126   4.221   4.221 -1.1032  0.3599 -0.3640
15254TIP3    H167177   0.196   4.190   4.164  3.2591  0.8140  4.3782
15254TIP3    H267178   0.118   4.314   4.201  0.2875  0.4794 -0.3927
15255TIP3   OH267179   1.561   6.522   0.576  0.3730 -0.5948  0.1339
15255TIP3    H167180   1.649   6.494   0.601  0.6272  1.3471  1.5298
15255TIP3    H267181   1.572   6.613   0.548 -0.5570 -1.5429 -3.5957
15256TIP3   OH267182   2.554   0.604   6.374  0.0892 -0.0575  0.6597
15256TIP3    H167183   2.546   0.700   6.369  0.8741  0.0102  0.6244
15256TIP3    H267184   2.477   0.576   6.423 -0.5645  0.5232 -0.0009
15257TIP3   OH267185   5.438   3.652   5.279  0.6362  0.6910  0.3822
15257TIP3    H167186   5.362   3.665   5.336  0.5451 -2.6512  1.1418
15257TIP3    H267187   5.401   3.641   5.191  0.4912  2.0105  0.2677
15258TIP3   OH267188   2.112   5.330   5.093  0.4381 -0.0425  0.4442
15258TIP3    H167189   2.039   5.360   5.147  1.2806 -0.6352  1.9637
15258TIP3    H267190   2.187   5.329   5.154  1.5159 -0.2489 -0.8707
15259TIP3   OH267191   3.640   5.261  15.845  0.0184  0.0842 -0.2536
15259TIP3    H167192   3.632   5.356  15.842  3.0901  0.4818  1.9534
15259TIP3    H267193   3.605   5.236  15.930  2.8348 -0.2508  0.8877
15260TIP3   OH267194   1.350   4.533   1.913  0.0452 -0.2374  0.0377
15260TIP3    H167195   1.277   4.515   1.855 -1.3385 -2.3219  2.3159
15260TIP3    H267196   1.318   4.602   1.971  0.1134 -0.6641  0.5920
15261TIP3   OH267197   1.776   3.294   4.292  0.2631  0.6345  0.4998
15261TIP3    H167198   1.758   3.370   4.237 -1.5489  1.7449  2.5605
15261TIP3    H267199   1.800   3.331   4.377 -0.0028 -1.0772  1.3405
15262TIP3   OH267200   0.620   5.711  16.641  0.3497  0.0260  0.6085
15262TIP3    H167201   0.699   5.728  16.589  0.3382 -0.3883  0.4493
15262TIP3    H267202   0.639   5.749  16.727  0.8652 -0.3897  0.6824
15263TIP3   OH267203   4.298   6.368  17.237  0.1723 -0.1832 -0.3045
15263TIP3    H167204   4.370   6.369  17.301 -0.6046 -0.0692  0.5867
15263TIP3    H267205   4.246   6.292  17.261 -1.3437  1.1058  0.5952
15264TIP3   OH267206   4.875   3.957   2.834 -0.4721  0.5250 -0.2242
15264TIP3    H167207   4.874   3.944   2.740  0.8834  0.6055 -0.2667
15264TIP3    H267208   4.911   3.875   2.869 -2.6825 -0.2201  0.3655
15265TIP3   OH267209   4.592   5.759  12.153 -0.4953 -0.1403 -0.7390
15265TIP3    H167210   4.508   5.760  12.198  0.8853 -0.0291  1.9619
15265TIP3    H267211   4.616   5.667  12.148  0.0939 -0.0581  0.2853
15266TIP3   OH267212   2.721   6.480  10.862 -0.1638  0.1228 -0.5867
15266TIP3    H167213   2.736   6.460  10.770 -0.0728 -0.3520 -0.4675
15266TIP3    H267214   2.737   6.574  10.869  0.2512  0.0809 -0.9684
15267TIP3   OH267215   4.518   2.250  14.108 -0.1641  0.1149  0.1500
15267TIP3    H167216   4.547   2.159  14.114 -1.6794 -0.4505 -1.1147
15267TIP3    H267217   4.583   2.299  14.160  0.3775 -1.7262  1.2463
15268TIP3   OH267218   5.835   6.487  14.911  0.5625 -0.3005 -0.1002
15268TIP3    H167219   5.921   6.449  14.895 -0.5374 -2.0009 -2.3039
15268TIP3    H267220   5.797   6.433  14.980  1.0111  0.0338  0.4077
15269TIP3   OH267221   1.801   1.275   5.385  0.3502  0.7305 -0.7148
15269TIP3    H167222   1.790   1.341   5.453 -0.7218 -0.5289  0.3796
15269TIP3    H267223   1.895   1.271   5.370  0.6765  0.4529  1.2910
15270TIP3   OH267224   1.799   5.355  17.076 -0.6688  0.1214 -0.5406
15270TIP3    H167225   1.733   5.334  17.143 -0.2487 -1.9090 -0.7111
15270TIP3    H267226   1.758   5.327  16.994 -0.6261  1.3045 -0.9629
15271TIP3   OH267227   5.567   5.515  13.606 -0.5555  0.3095  0.4402
15271TIP3    H167228   5.479   5.512  13.567 -0.1364  1.0381 -0.5984
15271TIP3    H267229   5.624   5.537  13.532  0.3283  1.2250  1.3896
15272TIP3   OH267230   1.399   6.043  11.440  0.1183  0.3654 -0.1074
15272TIP3    H167231   1.424   5.960  11.481  0.3398  0.6011  0.2368
15272TIP3    H267232   1.451   6.047  11.360 -0.9208 -0.4855 -0.8434
15273TIP3   OH267233   1.032   6.718  17.007 -0.1795 -0.6719  0.3036
15273TIP3    H167234   1.040   6.695  17.099  0.6180 -1.7396 -0.0169
15273TIP3    H267235   1.047   6.635  16.961  1.1992  0.2127 -0.8498
15274TIP3   OH267236   3.397   2.964   4.426  0.0463  0.4499  0.0767
15274TIP3    H167237   3.315   3.015   4.426  1.0686  2.1181 -0.8071
15274TIP3    H267238   3.424   2.963   4.518 -0.9899 -0.1498  0.3830
15275TIP3   OH267239   1.302   1.911  15.524  0.1904  0.2592 -0.0679
15275TIP3    H167240   1.224   1.952  15.486  0.1249  0.5313  0.3466
15275TIP3    H267241   1.368   1.980  15.523  0.2858  0.1697  0.0049
15276TIP3   OH267242   3.335   2.350  15.626 -0.2317  0.2304  0.6532
15276TIP3    H167243   3.339   2.434  15.671  1.4330  0.7350 -0.3890
15276TIP3    H267244   3.401   2.295  15.670  1.2350  0.6517 -0.9550
15277TIP3   OH267245   1.997   0.651   4.768 -0.1021 -0.7188 -0.3545
15277TIP3    H167246   1.967   0.635   4.858 -2.0064 -1.1096 -1.0417
15277TIP3    H267247   1.998   0.747   4.760  0.0182 -0.6833  0.0538
15278TIP3   OH267248   4.631   2.073   2.701 -0.6679 -0.1876  0.2474
15278TIP3    H167249   4.721   2.104   2.713  0.4479 -2.5449 -1.5038
15278TIP3    H267250   4.610   2.097   2.611 -0.9204 -1.6663 -0.1021
15279TIP3   OH267251   0.296   2.367  12.518  0.3452 -0.6429 -0.0476
15279TIP3    H167252   0.321   2.279  12.546  1.0880 -0.1513  0.8357
15279TIP3    H267253   0.200   2.364  12.516  0.3190 -1.1030  1.1924
15280TIP3   OH267254   6.514   3.060  11.023  0.0676  0.1685  0.5086
15280TIP3    H167255   6.434   3.091  11.066 -0.0690  1.0789 -0.3925
15280TIP3    H267256   6.491   2.975  10.986 -0.6460  0.6779 -0.2261
15281TIP3   OH267257   0.882   1.883  13.112  0.3854  0.0982 -0.4523
15281TIP3    H167258   0.922   1.798  13.129  0.3965 -0.0767 -1.3344
15281TIP3    H267259   0.955   1.938  13.083  0.5221  0.6385  0.8702
15282TIP3   OH267260   3.742   4.776   5.001 -0.1842  0.0897 -0.0776
15282TIP3    H167261   3.724   4.840   5.069 -1.0888 -1.3811  1.0973
15282TIP3    H267262   3.657   4.737   4.981  0.2259 -0.1636 -1.3720
15283TIP3   OH267263   0.950   6.085   5.533 -0.2295 -0.6926 -0.4952
15283TIP3    H167264   0.899   6.005   5.518 -2.1878  0.8355 -2.5092
15283TIP3    H267265   0.898   6.135   5.595 -0.9729  0.6524 -2.1626
15284TIP3   OH267266   0.571   2.910  14.737  0.0008  0.5506  0.1823
15284TIP3    H167267   0.548   2.903  14.644  0.4056 -1.9377  0.2434
15284TIP3    H267268   0.501   2.864  14.782 -0.1600  1.7031  1.1323
15285TIP3   OH267269   6.411   5.696  16.449 -0.2364  0.6236 -0.1754
15285TIP3    H167270   6.455   5.616  16.422  0.0553  0.3688  1.0360
15285TIP3    H267271   6.329   5.696  16.399 -0.2068 -0.3977 -0.2380
15286TIP3   OH267272   1.259   0.336  11.986  0.4818  0.0652  0.6442
15286TIP3    H167273   1.222   0.424  11.979  0.0475 -0.2752 -1.7989
15286TIP3    H267274   1.353   0.349  11.971  0.4860  0.1676  0.7537
15287TIP3   OH267275   1.987   5.982   6.004 -0.2254  0.3204 -0.7820
15287TIP3    H167276   1.980   6.057   6.063  0.3968  0.6548 -1.1243
15287TIP3    H267277   1.898   5.949   5.997 -0.4020  0.6577 -0.1449
15288TIP3   OH267278   1.005   6.165  16.037 -0.3099 -0.2338  0.5390
15288TIP3    H167279   1.069   6.104  16.076  0.4150  0.4763  0.4730
15288TIP3    H267280   0.950   6.109  15.983  1.8726 -0.5136 -1.4685
15289TIP3   OH267281   3.892   1.807  16.115  0.3371 -0.4392 -0.0493
15289TIP3    H167282   3.907   1.893  16.075  1.3797 -0.5281  0.1383
15289TIP3    H267283   3.809   1.777  16.078  0.7886 -0.0734 -1.3656
15290TIP3   OH267284   4.451   3.774  16.597 -0.6052 -0.0102 -0.3965
15290TIP3    H167285   4.530   3.737  16.637 -0.7074  0.0586 -0.1233
15290TIP3    H267286   4.409   3.700  16.553  1.0649  0.4947 -2.9698
15291TIP3   OH267287   5.806   1.984  12.756 -0.0407 -0.3467  0.1807
15291TIP3    H167288   5.711   1.995  12.755 -0.0939 -0.7053  0.7075
15291TIP3    H267289   5.841   2.063  12.714 -0.6099 -0.6915 -0.9553
15292TIP3   OH267290   2.480   6.194  15.580  0.0799 -0.4274  0.3587
15292TIP3    H167291   2.418   6.266  15.594  0.6047  0.2515 -0.7272
15292TIP3    H267292   2.427   6.123  15.544 -0.2615 -0.2376  0.4818
15293TIP3   OH267293   4.548   6.721  12.602  0.5564  0.0218  0.3064
15293TIP3    H167294   4.478   6.786  12.591 -0.1698 -0.6781  0.7134
15293TIP3    H267295   4.621   6.771  12.638  0.1548  0.7048  0.1899
15294TIP3   OH267296   0.570   5.874   2.623  0.3280 -0.7030  0.5473
15294TIP3    H167297   0.518   5.803   2.585  0.1035 -0.0959 -0.3125
15294TIP3    H267298   0.642   5.830   2.668 -0.8441 -1.5454  1.6302
15295TIP3   OH267299   3.995   2.243   5.934 -0.4429 -0.4196  0.1531
15295TIP3    H167300   3.975   2.336   5.926  1.0746  0.0387  1.4055
15295TIP3    H267301   4.023   2.217   5.846  0.4206  0.6334  0.1057
15296TIP3   OH267302   0.662   2.423  15.758 -0.0424 -0.4078 -0.5178
15296TIP3    H167303   0.632   2.431  15.849  0.3044  1.5553 -0.5540
15296TIP3    H267304   0.623   2.498  15.713  2.1731  0.3113 -1.3173
15297TIP3   OH267305   0.621   4.632  14.326 -0.4765 -0.4560  0.1271
15297TIP3    H167306   0.619   4.725  14.303 -1.3951 -1.4967 -4.4713
15297TIP3    H267307   0.531   4.602  14.312  0.5035 -2.7063 -1.6485
15298TIP3   OH267308   6.154   6.774   4.176  0.1008  0.8985 -0.1585
15298TIP3    H167309   6.226   6.802   4.120  2.1704  0.7839  2.3324
15298TIP3    H267310   6.156   6.678   4.173 -1.0064  0.9041 -1.3585
15299TIP3   OH267311   2.528   1.965  15.731  0.0506  0.2212  0.1839
15299TIP3    H167312   2.468   1.892  15.719  0.9840 -1.1094  3.0904
15299TIP3    H267313   2.604   1.942  15.678 -0.6472  0.3084 -0.8694
15300TIP3   OH267314   5.809   5.712  16.841  0.4670 -0.3314 -0.4230
15300TIP3    H167315   5.749   5.677  16.776  1.7318 -1.8940 -0.7725
15300TIP3    H267316   5.807   5.807  16.827 -0.9503 -0.4780 -1.2523
15301TIP3   OH267317   0.911   1.483   1.623 -0.2594  0.5185  0.4601
15301TIP3    H167318   0.829   1.533   1.619  0.1317  1.1959  0.7535
15301TIP3    H267319   0.887   1.394   1.597 -0.8116  1.0442 -0.8540
15302TIP3   OH267320   0.373   4.513   0.169 -0.3916  0.3509 -0.1726
15302TIP3    H167321   0.436   4.548   0.106 -1.7551  4.3988  0.5766
15302TIP3    H267322   0.423   4.501   0.250  0.2223 -0.1108 -0.6108
15303TIP3   OH267323   5.659   6.737  11.970  0.2196  0.1021  0.1239
15303TIP3    H167324   5.564   6.725  11.983  0.5977 -2.9819  0.6106
15303TIP3    H267325   5.698   6.661  12.013  2.8770  0.8102 -0.9375
15304TIP3   OH267326   0.412   6.057  12.543 -0.1200  0.5595 -0.0225
15304TIP3    H167327   0.498   6.027  12.572  0.5701  2.2208 -0.3470
15304TIP3    H267328   0.350   6.002  12.592  1.1020 -2.0429 -1.2731
15305TIP3   OH267329   2.111   2.191  15.036 -1.1991  0.1681  0.1734
15305TIP3    H167330   2.128   2.180  14.943 -1.7568 -2.5476  0.3460
15305TIP3    H267331   2.136   2.281  15.055 -0.9855  0.7150 -2.5715
15306TIP3   OH267332   1.919   5.290   5.886 -0.0025  0.5160 -0.3077
15306TIP3    H167333   1.920   5.209   5.834 -0.1283  0.1419  0.2614
15306TIP3    H267334   1.896   5.358   5.824  2.0891  0.4237 -1.2384
15307TIP3   OH267335   2.754   1.840  11.296  0.6848 -0.5111 -0.0152
15307TIP3    H167336   2.794   1.780  11.234 -0.2336 -0.7330 -0.3902
15307TIP3    H267337   2.660   1.828  11.285  0.5048 -0.2092  1.0754
15308TIP3   OH267338   2.415   5.666  12.582  0.4867  0.1179 -0.5447
15308TIP3    H167339   2.322   5.653  12.601  0.6143  0.3434  0.2797
15308TIP3    H267340   2.454   5.579  12.595  0.5273  0.2102 -0.0357
15309TIP3   OH267341   5.181   3.667  16.074 -0.2412  0.0343 -0.0790
15309TIP3    H167342   5.222   3.594  16.121  0.1387 -0.0830 -0.5940
15309TIP3    H267343   5.088   3.643  16.070 -1.1443  2.1618  4.6251
15310TIP3   OH267344   3.174   2.956   1.896 -0.0657  0.7121 -0.0403
15310TIP3    H167345   3.139   2.903   1.825 -1.6560  0.8752  0.6068
15310TIP3    H267346   3.253   2.909   1.924 -0.1042  0.0082 -1.0859
15311TIP3   OH267347   6.583   3.451  14.333  0.2665 -0.1811  0.2479
15311TIP3    H167348   6.543   3.490  14.411 -0.0604  1.2496 -0.6172
15311TIP3    H267349   6.512   3.400  14.294 -0.3207  1.1443 -0.4671
15312TIP3   OH267350   6.029   5.933  11.165  0.1618 -0.0905  0.0173
15312TIP3    H167351   5.951   5.915  11.113  0.5022 -1.3453 -0.0749
15312TIP3    H267352   6.085   5.856  11.152  1.2363  0.6170  0.4052
15313TIP3   OH267353   5.239   1.046  14.858  0.1443  0.2346  0.5432
15313TIP3    H167354   5.168   1.105  14.833 -0.8098 -0.3214  1.9202
15313TIP3    H267355   5.229   0.970  14.801  0.1950  0.5430  0.1185
15314TIP3   OH267356   2.744   1.586  12.749  0.7137 -0.2785  0.0964
15314TIP3    H167357   2.701   1.555  12.829  1.6249 -1.1704  0.2428
15314TIP3    H267358   2.826   1.538  12.746  1.8199  1.5763 -0.0681
15315TIP3   OH267359   2.259   2.201   3.438 -0.0455  0.3126  0.3018
15315TIP3    H167360   2.246   2.241   3.524  1.9175 -0.7058  1.1169
15315TIP3    H267361   2.204   2.252   3.379 -0.8352  1.5141  2.0260
15316TIP3   OH267362   2.214   0.677  16.698 -0.1063  0.1060  0.6921
15316TIP3    H167363   2.302   0.707  16.721 -0.0633  0.8649 -0.4141
15316TIP3    H267364   2.162   0.688  16.778  0.1308  2.2581  0.5812
15317TIP3   OH267365   2.980   3.677   3.501 -0.1122 -0.5311  0.4152
15317TIP3    H167366   3.020   3.719   3.577 -0.4052 -1.2429  0.9692
15317TIP3    H267367   2.890   3.708   3.501  0.0140 -0.1638  0.0853
15318TIP3   OH267368   3.353   5.150   0.859  0.2647 -0.1931  0.2296
15318TIP3    H167369   3.338   5.172   0.767  0.7464  1.1412  0.4581
15318TIP3    H267370   3.325   5.228   0.908 -0.7216 -1.1767  1.2752
15319TIP3   OH267371   1.344   1.707  15.338 -0.8629  0.5219 -0.0314
15319TIP3    H167372   1.386   1.663  15.412 -0.7039  3.4988  1.7234
15319TIP3    H267373   1.315   1.791  15.373 -2.3794  1.2877 -2.9247
15320TIP3   OH267374   2.781   5.109   3.162  0.1880 -0.6519  0.0813
15320TIP3    H167375   2.708   5.046   3.164  0.2610 -0.7236  0.8381
15320TIP3    H267376   2.812   5.112   3.253  0.0436  0.6460  0.0979
15321TIP3   OH267377   4.661   3.678  12.582 -0.5284 -0.4993 -0.0101
15321TIP3    H167378   4.575   3.656  12.619 -0.9360  1.4847  0.2690
15321TIP3    H267379   4.671   3.772  12.600  1.0402 -0.3991 -1.3812
15322TIP3   OH267380   3.303   4.257  13.654 -0.4331  0.4874  0.1866
15322TIP3    H167381   3.329   4.221  13.569  0.8021 -0.1994  0.8418
15322TIP3    H267382   3.292   4.351  13.638 -1.0805  0.2258 -0.9338
15323TIP3   OH267383   4.784   3.064  15.552  0.8027  0.0722 -0.3220
15323TIP3    H167384   4.700   3.021  15.536  0.5404  0.4063  0.1193
15323TIP3    H267385   4.812   3.031  15.637 -0.1827  1.9466  0.7891
15324TIP3   OH267386   1.157   6.311  16.583 -0.3743  1.0460  0.2241
15324TIP3    H167387   1.135   6.253  16.510  0.2038  0.4079  0.5497
15324TIP3    H267388   1.183   6.252  16.654 -1.3307  1.6335  1.0918
15325TIP3   OH267389   5.362   3.217   0.695  0.2378  0.1017  0.2845
15325TIP3    H167390   5.420   3.275   0.645  1.3945  0.5461  2.0908
15325TIP3    H267391   5.410   3.200   0.776 -1.2954 -1.1795  0.9413
15326TIP3   OH267392   5.020   0.093   5.051 -1.0238 -0.5183  0.2950
15326TIP3    H167393   5.025   0.001   5.076 -0.6440 -0.7822 -0.7250
15326TIP3    H267394   5.061   0.140   5.124 -0.4623 -1.2191  0.4359
15327TIP3   OH267395   5.094   3.256  16.401 -0.1351  0.1200  0.1313
15327TIP3    H167396   5.050   3.271  16.317  0.7118  0.9560 -0.1762
15327TIP3    H267397   5.125   3.343  16.427  2.8738 -0.6941 -0.5259
15328TIP3   OH267398   1.252   3.391   5.388 -0.6701  0.2209  0.2970
15328TIP3    H167399   1.175   3.335   5.384 -1.3904  1.0765  1.8519
15328TIP3    H267400   1.320   3.337   5.428 -0.8490 -0.1078  0.1553
15329TIP3   OH267401   3.319   5.178   5.968  0.1564 -0.2079  0.2557
15329TIP3    H167402   3.226   5.200   5.978  0.6937  1.6577  1.4629
15329TIP3    H267403   3.349   5.162   6.058  1.4488  1.1699  0.0871
15330TIP3   OH267404   5.094   2.353  12.687  0.1761  0.3036  0.1517
15330TIP3    H167405   5.151   2.286  12.649 -1.7622 -1.8942  0.9681
15330TIP3    H267406   5.151   2.429  12.701  2.6861 -1.5542  0.2658
15331TIP3   OH267407   3.128   6.253  15.966  0.2609 -0.2250  0.4272
15331TIP3    H167408   3.152   6.346  15.964  0.4842 -0.2346  2.0868
15331TIP3    H267409   3.172   6.218  16.044  0.4229 -1.7992 -0.3378
15332TIP3   OH267410   6.253   4.296   3.445 -0.0257 -0.1888  0.4279
15332TIP3    H167411   6.183   4.255   3.395 -0.7619 -0.4597  1.6652
15332TIP3    H267412   6.328   4.238   3.433 -0.1117 -0.1033 -0.5766
15333TIP3   OH267413   0.525   0.282   2.106 -0.2395  0.1981  0.6740
15333TIP3    H167414   0.471   0.218   2.153  2.7392 -2.7019  0.3282
15333TIP3    H267415   0.564   0.335   2.176 -0.8183  0.0620  1.1083
15334TIP3   OH267416   3.710   3.166  13.775  0.2994 -0.4394 -0.2177
15334TIP3    H167417   3.662   3.249  13.776  2.1257  0.6320  0.0235
15334TIP3    H267418   3.646   3.101  13.804 -0.9055  1.0206  0.4555
15335TIP3   OH267419   0.930   5.605  17.056 -0.2981  0.2138  0.3023
15335TIP3    H167420   0.921   5.538  17.123 -0.1860  2.3783  2.5521
15335TIP3    H267421   0.846   5.650  17.054 -0.6548 -0.4706 -1.7731
15336TIP3   OH267422   5.452   1.481   0.803  0.2133  0.2779  0.5351
15336TIP3    H167423   5.494   1.566   0.790 -0.3879  0.2681 -1.5272
15336TIP3    H267424   5.381   1.479   0.740 -0.7890 -1.1116  1.6890
15337TIP3   OH267425   0.110   3.755  13.209 -0.2400  0.0925  0.6078
15337TIP3    H167426   0.068   3.812  13.273 -1.4601 -1.0248  0.8264
15337TIP3    H267427   0.164   3.696  13.262 -2.1621 -1.6040  0.7541
15338TIP3   OH267428   6.585   2.135  16.277 -0.3861  0.4236  0.4126
15338TIP3    H167429   6.553   2.051  16.310  0.2322  0.1740  0.3762
15338TIP3    H267430   6.574   2.129  16.182  3.1291 -1.1077  0.0114
15339TIP3   OH267431   5.755   1.715  10.785 -0.5235  0.3122  0.1302
15339TIP3    H167432   5.710   1.725  10.869 -1.1061  0.5446 -0.2044
15339TIP3    H267433   5.789   1.802  10.765 -0.8009  0.3715 -0.1000
15340TIP3   OH267434   5.597   3.389   0.666  0.0101 -0.3039  0.4126
15340TIP3    H167435   5.690   3.412   0.667 -0.0472 -0.0900  0.6322
15340TIP3    H267436   5.580   3.363   0.575 -0.1119  1.2337 -0.0074
15341TIP3   OH267437   0.835   1.680  13.715 -0.5490  0.1165 -0.3457
15341TIP3    H167438   0.817   1.770  13.686  0.2443  0.5634  0.4970
15341TIP3    H267439   0.900   1.648  13.652  0.3660  0.7050  0.2827
15342TIP3   OH267440   0.460   4.100  13.678  0.4681  0.4420 -0.2208
15342TIP3    H167441   0.376   4.066  13.707  0.7024  0.0387 -0.0108
15342TIP3    H267442   0.446   4.194  13.666  0.1537  0.4722  0.3943
15343TIP3   OH267443   0.413   3.574   3.717 -0.2499 -0.5897  0.0357
15343TIP3    H167444   0.354   3.647   3.700  0.2380 -0.1560  0.1758
15343TIP3    H267445   0.416   3.567   3.812 -1.0827 -1.4508  0.0125
15344TIP3   OH267446   5.328   2.998  14.461 -0.2212 -0.1115  0.3545
15344TIP3    H167447   5.353   2.932  14.397  0.3827  0.3443  0.1217
15344TIP3    H267448   5.411   3.033  14.494 -0.4910  2.3418 -1.4009
15345TIP3   OH267449   6.419   1.998   3.347  0.0080  0.0671  0.1392
15345TIP3    H167450   6.445   2.086   3.370  0.0936  0.0083  0.2652
15345TIP3    H267451   6.413   1.999   3.251  0.3679  0.1068  0.1175
15346TIP3   OH267452   6.605   1.070  15.044  0.1342  0.8038 -0.4078
15346TIP3    H167453   6.622   0.985  15.086  0.6434  1.2343  0.2653
15346TIP3    H267454   6.597   1.050  14.951  4.3798  0.5702 -0.8010
15347TIP3   OH267455   5.888   4.458  14.819 -0.5305  0.2883 -0.0367
15347TIP3    H167456   5.930   4.465  14.905 -1.0424  0.0606  0.2356
15347TIP3    H267457   5.822   4.390  14.831 -1.3158  0.9919 -0.3205
15348TIP3   OH267458   6.735   5.009  15.276 -0.7197  0.4503 -0.1196
15348TIP3    H167459   6.814   5.032  15.227 -1.1224 -0.6915 -1.3265
15348TIP3    H267460   6.681   5.088  15.275  0.0213  0.9626 -0.0275
15349TIP3   OH267461   3.044   5.690   3.914  0.1718  0.1476 -0.2943
15349TIP3    H167462   2.958   5.722   3.943  0.1487 -0.1272 -0.0679
15349TIP3    H267463   3.070   5.627   3.981  0.7592  0.5716 -0.1246
15350TIP3   OH267464   4.773   6.312   5.176 -0.2089 -0.0458 -0.2087
15350TIP3    H167465   4.846   6.258   5.207  0.4714  0.6639 -0.5327
15350TIP3    H267466   4.708   6.309   5.246  0.0899 -0.7776  0.0392
15351TIP3   OH267467   3.520   2.533  14.077 -0.0351  0.8508  0.5413
15351TIP3    H167468   3.556   2.451  14.109  1.4630  1.3317  0.1271
15351TIP3    H267469   3.459   2.561  14.146 -0.4528 -0.5179  0.7387
15352TIP3   OH267470   4.398   2.112   5.007  0.0992 -0.1764  0.4034
15352TIP3    H167471   4.408   2.082   5.097  0.2337  0.6266  0.6634
15352TIP3    H267472   4.442   2.197   5.005  1.4909 -0.9102 -0.8307
15353TIP3   OH267473   1.586   1.572  12.925  0.2788  0.4667 -0.0234
15353TIP3    H167474   1.523   1.641  12.944 -2.1819 -1.4593 -0.9170
15353TIP3    H267475   1.665   1.618  12.899 -1.1041  2.9333 -0.0245
15354TIP3   OH267476   2.204   6.293  15.261 -0.1896 -0.3429  0.4112
15354TIP3    H167477   2.167   6.375  15.228  0.0941  0.2657  1.5730
15354TIP3    H267478   2.219   6.310  15.354  1.2858 -1.2011  0.3451
15355TIP3   OH267479   4.732   0.155  15.761 -0.5115  0.2220 -0.2360
15355TIP3    H167480   4.805   0.202  15.720  0.4241  1.1150  2.3946
15355TIP3    H267481   4.771   0.109  15.835 -2.1653 -1.4380 -0.3703
15356TIP3   OH267482   4.799   3.970   0.522  0.1979  0.7768  0.0091
15356TIP3    H167483   4.731   4.038   0.529  0.1659  0.8260 -0.6909
15356TIP3    H267484   4.857   3.987   0.596 -0.6386  0.6380  0.7106
15357TIP3   OH267485   0.823   2.906  11.839 -0.2520 -0.3147 -0.0043
15357TIP3    H167486   0.792   2.871  11.922  0.2765 -1.1079 -0.1317
15357TIP3    H267487   0.753   2.963  11.809 -0.7645 -0.6091  0.6217
15358TIP3   OH267488   2.320   1.398  15.480 -0.0987 -0.2001 -0.5446
15358TIP3    H167489   2.254   1.336  15.447  1.0335 -1.1281 -1.1146
15358TIP3    H267490   2.316   1.472  15.420 -0.2259 -0.5144 -0.9281
15359TIP3   OH267491   2.721   0.064   4.370  0.6499  0.3200  0.6272
15359TIP3    H167492   2.751   0.131   4.309  2.4253 -1.0983 -0.0886
15359TIP3    H267493   2.635   0.038   4.338  1.0355  0.4826 -0.5380
15360TIP3   OH267494   3.241   3.970  14.829  0.5042 -0.0824 -0.0390
15360TIP3    H167495   3.273   4.034  14.765  1.9819  0.5611  1.3004
15360TIP3    H267496   3.148   3.959  14.809  0.4909  1.6464 -0.9774
15361TIP3   OH267497   3.961   6.369   2.048  0.3143  0.0628 -0.1195
15361TIP3    H167498   4.033   6.432   2.042 -0.7997  1.4953  1.3673
15361TIP3    H267499   3.882   6.422   2.050 -0.7333 -1.4469 -0.2238
15362TIP3   OH267500   4.001   3.845  12.354 -0.1215 -0.1550  0.0702
15362TIP3    H167501   4.073   3.904  12.376 -0.6856 -0.2501  2.2530
15362TIP3    H267502   3.981   3.800  12.436 -1.1053 -1.8524 -1.0780
15363TIP3   OH267503   6.031   5.800   5.210  0.0525  0.2504 -0.0127
15363TIP3    H167504   5.952   5.852   5.223 -0.5063 -0.5078 -0.2699
15363TIP3    H267505   6.069   5.790   5.297  0.0475  0.9054  0.0641
15364TIP3   OH267506   2.557   1.069  14.737  0.0298  0.9500 -0.2702
15364TIP3    H167507   2.508   0.987  14.745  0.3039  0.9412  1.4598
15364TIP3    H267508   2.540   1.098  14.647 -1.1489 -0.3099 -0.4748
15365TIP3   OH267509   5.121   5.298   3.778  0.0241  0.0055  0.1542
15365TIP3    H167510   5.086   5.383   3.804 -2.3774 -0.3681 -1.6943
15365TIP3    H267511   5.122   5.247   3.859 -1.0918  0.9213  0.7563
15366TIP3   OH267512   3.789   0.727  12.568 -0.0734  0.6476 -0.3967
15366TIP3    H167513   3.863   0.719  12.628 -2.6466  1.5039  3.0175
15366TIP3    H267514   3.741   0.645  12.578 -1.9529  1.8503  0.7547
15367TIP3   OH267515   3.862   4.535   1.294 -0.7264  0.2293  0.1374
15367TIP3    H167516   3.889   4.599   1.360 -0.4661 -0.2644  0.5158
15367TIP3    H267517   3.897   4.569   1.211  2.6321 -1.2577  0.8441
15368TIP3   OH267518   4.954   4.594   0.527 -0.5818  0.1698  0.0449
15368TIP3    H167519   4.869   4.585   0.483 -1.1009 -0.0128  1.0440
15368TIP3    H267520   4.983   4.682   0.505  0.3575 -0.7650 -2.6588
15369TIP3   OH267521   5.110   4.353   0.727 -0.3376 -0.0952  0.1200
15369TIP3    H167522   5.110   4.449   0.734 -1.1480 -0.0854 -0.0245
15369TIP3    H267523   5.108   4.323   0.818  2.7277  0.0017  0.2834
15370TIP3   OH267524   4.996   5.740   3.641  0.4346  0.0563 -0.2896
15370TIP3    H167525   5.047   5.705   3.567 -3.2584  0.7166 -3.3300
15370TIP3    H267526   4.997   5.835   3.628  1.2845  0.3253  1.6218
15371TIP3   OH267527   3.474   6.749  15.403  0.6054 -0.5665  0.3733
15371TIP3    H167528   3.530   6.810  15.355 -1.4063  1.3918  0.4727
15371TIP3    H267529   3.451   6.795  15.484 -0.4949 -1.6700  0.7044
15372TIP3   OH267530   3.435   1.194   2.808  0.1399 -0.4086 -0.3594
15372TIP3    H167531   3.367   1.250   2.772  0.1035 -0.0271  0.2891
15372TIP3    H267532   3.502   1.255   2.839  0.1591 -0.7321  0.2340
15373TIP3   OH267533   6.326   2.939  11.745  0.6937  0.0414 -0.4033
15373TIP3    H167534   6.396   2.986  11.698  2.0753 -2.6219 -1.1425
15373TIP3    H267535   6.262   2.918  11.677  0.6102 -0.0496 -0.2954
15374TIP3   OH267536   1.810   5.601   3.256  0.3579  0.0257  0.1661
15374TIP3    H167537   1.741   5.666   3.245 -0.1667 -0.3293  1.3507
15374TIP3    H267538   1.794   5.536   3.187 -1.8289 -1.2403  1.8288
15375TIP3   OH267539   2.051   4.758   2.177  0.5020 -0.6319  0.4945
15375TIP3    H167540   2.018   4.802   2.256  1.3811  0.8217  0.0591
15375TIP3    H267541   2.007   4.801   2.105  0.6729 -1.0963  0.1106
15376TIP3   OH267542   0.970   6.358   1.815 -0.2024 -0.1812 -0.2347
15376TIP3    H167543   0.962   6.345   1.721 -1.2047  1.2606 -0.3548
15376TIP3    H267544   0.954   6.451   1.829 -1.6468 -0.6532  1.5211
15377TIP3   OH267545   4.519   1.817   2.669 -0.0721  0.3733 -0.3473
15377TIP3    H167546   4.564   1.898   2.692  0.1517 -0.5050  2.4910
15377TIP3    H267547   4.557   1.791   2.584  0.5462  2.6883 -0.7998
15378TIP3   OH267548   0.189   3.896  15.101  0.0521  0.4468  0.0733
15378TIP3    H167549   0.215   3.872  15.013  0.5981  1.5276 -0.0615
15378TIP3    H267550   0.093   3.890  15.100  0.0155  1.0980 -0.7747
15379TIP3   OH267551   6.407   5.037  15.865 -0.3445 -0.0520 -0.5008
15379TIP3    H167552   6.436   5.128  15.862 -2.4940  0.7028  0.4501
15379TIP3    H267553   6.479   4.990  15.906 -0.3268  1.7282  1.6293
15380TIP3   OH267554   4.425   0.563   3.477 -0.3354 -0.4594 -0.3443
15380TIP3    H167555   4.353   0.500   3.469 -0.3646 -0.3279 -1.2262
15380TIP3    H267556   4.425   0.588   3.569 -1.6922 -0.1458 -0.4139
15381TIP3   OH267557   6.754   4.354   0.562 -0.1736 -0.0312  0.1812
15381TIP3    H167558   6.829   4.404   0.530 -0.8309  0.1313 -1.1025
15381TIP3    H267559   6.709   4.324   0.483 -2.6928  1.6891  0.9041
15382TIP3   OH267560   2.079   4.608  12.904 -0.1832 -0.0800  0.0626
15382TIP3    H167561   2.052   4.517  12.905  0.9083 -0.4199  1.1056
15382TIP3    H267562   2.054   4.641  12.990  1.6155 -0.0966  0.6256
15383TIP3   OH267563   5.034   3.862  17.048 -0.4982  0.7674  0.4078
15383TIP3    H167564   4.981   3.786  17.072 -0.2221  0.1859 -0.8088
15383TIP3    H267565   5.123   3.827  17.041  0.0648  1.7217  2.3691
15384TIP3   OH267566   1.393   1.649   3.966  0.2778  0.2474 -0.1584
15384TIP3    H167567   1.425   1.642   3.876  0.0038  0.4925 -0.2745
15384TIP3    H267568   1.340   1.729   3.966 -0.7544 -0.4399 -0.0909
15385TIP3   OH267569   6.770   0.449  17.166  0.1281 -0.0484 -0.3266
15385TIP3    H167570   6.712   0.387  17.120 -3.0505  2.7956 -0.3126
15385TIP3    H267571   6.747   0.438  17.258  2.0106 -1.2060  0.0439
15386TIP3   OH267572   2.100   4.829   0.593 -0.1876 -0.5419  0.1712
15386TIP3    H167573   2.016   4.840   0.640 -1.3751 -1.3647 -1.7100
15386TIP3    H267574   2.096   4.741   0.557  0.4885  0.2294 -1.8695
15387TIP3   OH267575   3.471   0.390  12.709 -0.0599  0.3150  0.2134
15387TIP3    H167576   3.538   0.387  12.777  1.1927  0.0249 -1.0079
15387TIP3    H267577   3.388   0.383  12.757  0.7019  2.0332  1.8408
15388TIP3   OH267578   4.710   2.471  14.532 -0.4747  0.3077 -0.0607
15388TIP3    H167579   4.644   2.402  14.541  0.0229 -0.1872 -0.1821
15388TIP3    H267580   4.703   2.521  14.613 -3.1073  2.1270 -1.3327
15389TIP3   OH267581   3.568   6.311   4.154  0.0600  0.8375  1.0616
15389TIP3    H167582   3.537   6.343   4.239  0.4426  1.4857  0.9595
15389TIP3    H267583   3.506   6.346   4.091  0.9289  2.0461  0.8687
15390TIP3   OH267584   0.020   0.728  17.151 -0.0760 -0.1002  0.0697
15390TIP3    H167585  -0.017   0.649  17.191  0.2780  0.0556  0.7054
15390TIP3    H267586  -0.040   0.748  17.079  0.2547 -1.3818 -0.5754
15391TIP3   OH267587   0.233   5.318  10.371 -0.3326 -0.1474  0.1060
15391TIP3    H167588   0.140   5.324  10.350 -0.7419 -1.2636  1.4855
15391TIP3    H267589   0.277   5.363  10.300 -1.9683  0.8971 -0.2673
15392TIP3   OH267590   1.145   4.864   5.861  0.0691  0.2441  0.2660
15392TIP3    H167591   1.052   4.845   5.858  0.3607 -1.0414 -1.2027
15392TIP3    H267592   1.152   4.944   5.914 -1.7403 -0.2891  1.3416
15393TIP3   OH267593   4.433   2.532   0.217  0.1822 -0.2378 -0.0334
15393TIP3    H167594   4.351   2.487   0.199 -0.4969  0.7996  0.4141
15393TIP3    H267595   4.490   2.464   0.253 -1.1234 -0.5747  1.4715
15394TIP3   OH267596   0.224   5.058   1.974  0.2560 -0.1794 -0.5822
15394TIP3    H167597   0.306   5.065   1.925  0.0164  0.3934 -0.9022
15394TIP3    H267598   0.220   5.139   2.025 -0.1229 -0.1922 -0.5908
15395TIP3   OH267599   2.453   3.439   6.226 -0.3091 -0.0307  0.0063
15395TIP3    H167600   2.537   3.394   6.232 -0.6392 -0.6324  0.1793
15395TIP3    H267601   2.461   3.513   6.286  0.3600  0.3486 -0.5414
15396TIP3   OH267602   5.392   1.918  11.893 -0.3779 -0.4582 -0.5753
15396TIP3    H167603   5.454   1.908  11.965 -1.4699  1.3622  0.6345
15396TIP3    H267604   5.310   1.884  11.927 -1.0014  0.7864 -0.8146
15397TIP3   OH267605   6.217   0.528   0.304 -0.1885  0.5709  0.1668
15397TIP3    H167606   6.225   0.433   0.316 -2.0050  0.8370  4.0536
15397TIP3    H267607   6.137   0.538   0.252  0.1970 -0.0076 -0.5592
15398TIP3   OH267608   4.790   1.694  16.822 -0.6015  0.0606  0.3190
15398TIP3    H167609   4.698   1.692  16.850 -0.3024  1.1211  1.4719
15398TIP3    H267610   4.812   1.787  16.823  0.5984 -0.2235  0.4433
15399TIP3   OH267611   4.275   3.091  14.193 -0.6784 -0.0819  0.8164
15399TIP3    H167612   4.294   3.013  14.244  2.9470  0.7250  0.8119
15399TIP3    H267613   4.303   3.164  14.248  1.1840  0.9114 -1.3462
15400TIP3   OH267614   1.135   1.669  17.223 -0.4075  0.0988  0.5703
15400TIP3    H167615   1.208   1.700  17.169 -0.7794 -0.9435 -0.5547
15400TIP3    H267616   1.058   1.714  17.188 -0.6329 -0.4952  0.2938
15401TIP3   OH267617   4.392   5.573   3.596 -0.1337  0.2968  0.6590
15401TIP3    H167618   4.380   5.577   3.691 -0.5658  0.7737  0.5889
15401TIP3    H267619   4.479   5.609   3.581  0.4964 -1.0849  0.9909
15402TIP3   OH267620   4.423   2.812  11.845  0.3949  0.4794  0.2049
15402TIP3    H167621   4.344   2.822  11.792  0.2926  0.0860  0.2800
15402TIP3    H267622   4.403   2.858  11.927  0.1184  0.0858  0.3564
15403TIP3   OH267623   6.228   4.697   0.643  0.2678  0.1006  0.2308
15403TIP3    H167624   6.158   4.724   0.583  0.9271  3.4629  0.8773
15403TIP3    H267625   6.182   4.670   0.723 -0.5114 -2.6296 -1.0792
15404TIP3   OH267626   3.111   6.059   0.967 -0.0765 -0.1292 -0.2565
15404TIP3    H167627   3.165   6.130   1.003  0.7995 -1.2821  0.7400
15404TIP3    H267628   3.162   6.027   0.893 -0.7479  0.6502 -1.0689
15405TIP3   OH267629   3.728   2.903   5.591 -0.3235  0.2550  0.0204
15405TIP3    H167630   3.737   2.997   5.608 -2.1872 -0.0724  3.1959
15405TIP3    H267631   3.812   2.866   5.618  0.2769  0.9319 -0.8697
15406TIP3   OH267632   2.340   6.126  13.082 -0.4948 -0.3775 -0.0535
15406TIP3    H167633   2.409   6.149  13.019 -0.5026  0.4677  0.2489
15406TIP3    H267634   2.299   6.209  13.105  1.7418 -0.2309  3.7242
15407TIP3   OH267635   0.600   1.352   2.284 -0.1716  0.3745 -0.6003
15407TIP3    H167636   0.674   1.409   2.306  0.5762 -0.5548 -0.6795
15407TIP3    H267637   0.640   1.270   2.255 -1.2367 -0.6894  0.8324
15408TIP3   OH267638   6.436   1.592   3.400 -0.2073 -0.3837  0.0440
15408TIP3    H167639   6.501   1.534   3.440  0.0920  1.0610  1.7664
15408TIP3    H267640   6.482   1.633   3.327  0.2453 -0.7302  0.1353
15409TIP3   OH267641   4.127   3.167   6.055  0.0933  0.0327 -0.1235
15409TIP3    H167642   4.172   3.251   6.066  0.1213  0.2109 -1.5249
15409TIP3    H267643   4.161   3.112   6.126  0.6612  0.9529  0.3308
15410TIP3   OH267644   5.793   3.009  12.788  0.0184 -0.0542 -0.7577
15410TIP3    H167645   5.875   3.058  12.779 -0.1974  0.1501 -1.5882
15410TIP3    H267646   5.725   3.076  12.783 -0.3253 -0.5222 -2.8452
15411TIP3   OH267647   2.040   5.998  16.198 -0.3101  0.2211  0.5839
15411TIP3    H167648   2.128   5.960  16.201 -0.7074 -1.0251 -1.7633
15411TIP3    H267649   1.983   5.927  16.227 -0.7280  0.3057 -0.0335
15412TIP3   OH267650   0.463   3.256   4.140 -0.0256 -0.0499  0.3277
15412TIP3    H167651   0.537   3.201   4.116  0.4622  1.0987 -0.8770
15412TIP3    H267652   0.394   3.232   4.077  0.2412  0.8193 -0.2991
15413TIP3   OH267653   1.940   1.013  13.489  0.8003 -0.2403 -0.9986
15413TIP3    H167654   1.861   1.024  13.437  0.1449 -1.0263 -0.1759
15413TIP3    H267655   1.914   0.955  13.561  1.5399  1.2465  0.5102
15414TIP3   OH267656   2.500   2.018  11.916  0.2867 -0.3813 -0.1458
15414TIP3    H167657   2.427   1.959  11.900  0.8016 -1.2534  0.6845
15414TIP3    H267658   2.476   2.099  11.870 -0.3877 -1.2457 -1.3300
15415TIP3   OH267659   4.122   1.193  15.806  0.2268  0.5666  1.2294
15415TIP3    H167660   4.043   1.239  15.835  0.0819  1.8076 -0.9775
15415TIP3    H267661   4.193   1.255  15.822  0.5375  0.0991  1.6735
15416TIP3   OH267662   4.494   4.684   0.317 -0.1750  0.3693  0.5691
15416TIP3    H167663   4.509   4.615   0.253 -2.0173  0.5988 -0.1572
15416TIP3    H267664   4.415   4.655   0.364 -1.5425  2.4138 -0.4008
15417TIP3   OH267665   4.756   3.310   1.725  0.0716  0.3024  0.2297
15417TIP3    H167666   4.785   3.218   1.727 -0.2556  0.2228  1.1887
15417TIP3    H267667   4.670   3.307   1.684 -0.5337  0.0197  1.5092
15418TIP3   OH267668   2.055   2.526   1.899 -0.2219  0.0797 -0.2962
15418TIP3    H167669   2.047   2.536   1.804 -1.4079 -1.0278 -0.3207
15418TIP3    H267670   2.041   2.433   1.915 -2.4050  0.6281  1.1826
15419TIP3   OH267671   4.629   4.433  14.209 -0.2707 -0.0970  0.5333
15419TIP3    H167672   4.596   4.512  14.165 -0.0859  0.8197  1.9927
15419TIP3    H267673   4.654   4.463  14.296 -0.9208 -1.9344  1.3853
15420TIP3   OH267674   2.106   2.725  14.583  0.6314  0.0687  0.1839
15420TIP3    H167675   2.153   2.658  14.534 -0.2290 -1.9487  2.0361
15420TIP3    H267676   2.058   2.774  14.517  1.7368 -0.7563 -1.2601
15421TIP3   OH267677   4.087   5.108  15.528 -0.7986 -0.0504 -0.2831
15421TIP3    H167678   4.176   5.114  15.563  0.0761 -0.5799 -2.3137
15421TIP3    H267679   4.064   5.198  15.506  0.0172 -0.1444 -1.5709
15422TIP3   OH267680   1.172   1.531  12.569  0.2231  0.3905  0.2343
15422TIP3    H167681   1.117   1.507  12.643 -0.7138 -0.0460 -0.5955
15422TIP3    H267682   1.257   1.492  12.588 -0.3822 -0.8359  0.4442
15423TIP3   OH267683   3.305   5.106   6.881 -0.0755 -0.4933 -0.1807
15423TIP3    H167684   3.336   5.108   6.972 -0.3651 -0.7006 -0.0737
15423TIP3    H267685   3.321   5.016   6.852 -2.3188 -1.1591  0.5109
15424TIP3   OH267686   6.292   0.552  16.506 -0.3350 -0.6712 -0.1735
15424TIP3    H167687   6.272   0.529  16.596  0.5374 -0.8199 -0.0088
15424TIP3    H267688   6.388   0.556  16.503 -0.3884  0.2677 -0.8586
15425TIP3   OH267689   1.163   4.649  12.320  0.4272  0.1680  0.0717
15425TIP3    H167690   1.125   4.565  12.344  1.9165 -1.0876 -1.8108
15425TIP3    H267691   1.249   4.650  12.363  1.0145  0.0772 -1.0817
15426TIP3   OH267692   3.928   1.213  15.250 -0.0429 -0.1508  0.2916
15426TIP3    H167693   3.862   1.201  15.181 -0.2025  1.2781  0.1753
15426TIP3    H267694   4.011   1.191  15.207 -0.0185  1.7172 -0.6865
15427TIP3   OH267695   1.626   0.699  12.306 -0.1113  0.2519 -0.5094
15427TIP3    H167696   1.548   0.709  12.360  1.3991 -0.0812  1.8130
15427TIP3    H267697   1.608   0.749  12.227 -3.1524 -0.8419 -0.5652
15428TIP3   OH267698   2.320   3.699  13.357 -0.0423 -0.4337 -0.1011
15428TIP3    H167699   2.339   3.685  13.264  0.8531 -0.5901  0.1071
15428TIP3    H267700   2.240   3.752  13.357 -1.4732 -2.5119 -0.9354
15429TIP3   OH267701   6.390   2.308   4.689 -0.4117  0.1776  0.1598
15429TIP3    H167702   6.412   2.385   4.741 -1.1969 -0.2929  1.2362
15429TIP3    H267703   6.360   2.244   4.754 -1.6871 -0.3345 -0.9011
15430TIP3   OH267704   1.945   0.538   2.496 -0.7787  0.2075  0.3256
15430TIP3    H167705   1.956   0.492   2.579 -1.4589 -0.3202  0.1290
15430TIP3    H267706   1.983   0.479   2.430  1.1876  1.3091  0.4328
15431TIP3   OH267707   6.204   2.970  17.172 -0.3626 -0.5130 -0.4134
15431TIP3    H167708   6.191   3.024  17.094 -0.0533 -1.3213 -1.0354
15431TIP3    H267709   6.292   2.993  17.203 -0.2693 -0.5892 -0.6224
15432TIP3   OH267710   5.671   5.597  13.875 -0.1437  0.4504  0.3696
15432TIP3    H167711   5.723   5.522  13.845  1.2154  0.7279  1.9408
15432TIP3    H267712   5.621   5.563  13.949  1.7934  1.4919  2.2103
15433TIP3   OH267713   3.009   1.013   4.508  0.3828  0.7369  0.5404
15433TIP3    H167714   3.059   0.948   4.557  0.3999  0.2350 -0.1407
15433TIP3    H267715   2.918   1.001   4.537  0.2792 -0.0664 -0.1015
15434TIP3   OH267716   2.500   3.736  17.029  0.4350 -0.4283  0.1252
15434TIP3    H167717   2.474   3.744  17.121 -1.1236  2.4812 -0.4867
15434TIP3    H267718   2.419   3.713  16.984  1.2235 -1.9796 -0.5280
15435TIP3   OH267719   6.774   0.856  15.216 -0.7432 -0.0729  0.4366
15435TIP3    H167720   6.683   0.887  15.210 -0.4440  0.7774  0.2320
15435TIP3    H267721   6.792   0.851  15.310 -0.6663  0.7530  0.4654
15436TIP3   OH267722   4.580   3.917  15.065 -0.1108  0.1429  0.0416
15436TIP3    H167723   4.616   3.996  15.025 -2.2676  0.3360 -1.6034
15436TIP3    H267724   4.520   3.950  15.133  0.6347 -0.1273  0.8402
15437TIP3   OH267725   3.023   5.217  15.059 -0.0097 -0.4431  0.2175
15437TIP3    H167726   3.046   5.279  14.990 -1.8476 -0.7333 -0.7035
15437TIP3    H267727   3.106   5.176  15.084  0.5864 -0.9769 -2.4633
15438TIP3   OH267728   3.692   4.284  16.188  0.1526 -0.6427  0.3174
15438TIP3    H167729   3.712   4.325  16.104 -0.6576  0.1351  0.5081
15438TIP3    H267730   3.762   4.313  16.247  0.2680 -0.5378  0.1277
15439TIP3   OH267731   4.587   4.131   1.795 -0.4616  0.1696 -0.1418
15439TIP3    H167732   4.654   4.065   1.814 -0.7097 -0.2748 -0.8315
15439TIP3    H267733   4.514   4.083   1.757 -1.6274  0.5085  1.6229
15440TIP3   OH267734   0.291   0.119  15.097 -0.6119 -0.1410  0.1378
15440TIP3    H167735   0.307   0.204  15.056 -0.0985 -0.2981  0.0114
15440TIP3    H267736   0.217   0.134  15.156 -0.7472  0.3092 -0.1469
15441TIP3   OH267737   4.876   5.258  12.548  0.4360 -0.3675  0.5220
15441TIP3    H167738   4.840   5.345  12.531  0.2178 -0.7750 -1.1731
15441TIP3    H267739   4.814   5.217  12.607 -0.1384  0.1582  0.2875
15442TIP3   OH267740   0.146   1.153  11.632 -0.8730 -0.7909 -1.1467
15442TIP3    H167741   0.232   1.179  11.600 -1.3089  2.1749 -0.0530
15442TIP3    H267742   0.164   1.102  11.711 -0.1193  1.5634  0.2597
15443TIP3   OH267743   0.260   0.426  17.166  0.4027  0.0541 -0.0007
15443TIP3    H167744   0.281   0.483  17.092  0.0407  1.3151  0.8678
15443TIP3    H267745   0.165   0.432  17.174  0.1915 -1.7855 -0.7886
15444TIP3   OH267746   5.765   3.602   0.982  0.2774 -0.8235 -0.1201
15444TIP3    H167747   5.682   3.630   0.944  0.7431  0.5349 -0.1562
15444TIP3    H267748   5.740   3.553   1.061 -0.6004 -1.6770 -0.9126
15445TIP3   OH267749   5.637   1.302   0.765 -0.0129  0.4289  0.3153
15445TIP3    H167750   5.572   1.359   0.806 -0.0384  0.1584  0.6625
15445TIP3    H267751   5.628   1.318   0.671 -1.0693 -0.1147  0.3133
15446TIP3   OH267752   1.506   5.605  17.165  0.3301  0.7947 -0.3250
15446TIP3    H167753   1.473   5.537  17.223  2.6355 -0.0535  0.0331
15446TIP3    H267754   1.452   5.682  17.185 -0.5851 -0.1874  1.0870
15447TIP3   OH267755   5.528   0.763  15.911 -0.0566  0.3831 -0.2375
15447TIP3    H167756   5.459   0.791  15.851 -0.3874 -0.3189 -0.1829
15447TIP3    H267757   5.532   0.834  15.976  0.6293  1.3779 -1.3318
15448TIP3   OH267758   0.187   6.253  12.039 -0.5766 -0.4367  0.0021
15448TIP3    H167759   0.198   6.262  12.134  0.4326 -4.4988  0.3301
15448TIP3    H267760   0.098   6.283  12.023 -0.5881  0.8170  2.1321
15449TIP3   OH267761   5.347   2.544  13.452  0.3569 -0.0593  1.1357
15449TIP3    H167762   5.339   2.624  13.400  1.0548  0.1028  1.2675
15449TIP3    H267763   5.339   2.473  13.389  0.2533  0.1231  0.9436
15450TIP3   OH267764   2.054   2.073  15.739 -0.1464  0.1247 -0.2534
15450TIP3    H167765   2.098   2.083  15.655  1.2292 -1.3880  0.2574
15450TIP3    H267766   2.061   2.160  15.779  0.8568  0.3632 -0.9172
15451TIP3   OH267767   3.939   0.905  15.304 -0.4719  0.1509 -0.0849
15451TIP3    H167768   3.937   0.824  15.355 -2.2144  0.6634  0.7137
15451TIP3    H267769   4.032   0.919  15.285 -0.0689 -1.5529  0.5288
15452TIP3   OH267770   2.766   4.805   0.874 -0.0339  0.0969 -0.0022
15452TIP3    H167771   2.753   4.870   0.944 -0.1713 -0.4319  0.4627
15452TIP3    H267772   2.855   4.774   0.888 -0.4239 -0.7802  0.5920
15453TIP3   OH267773   2.812   4.697  13.052 -0.3737 -0.3707  0.4665
15453TIP3    H167774   2.740   4.732  13.105 -0.3921 -0.3413  0.4217
15453TIP3    H267775   2.770   4.660  12.975 -0.1386  1.7839 -0.7203
15454TIP3   OH267776   6.499   2.496   2.251 -0.1096 -0.4635  0.7767
15454TIP3    H167777   6.408   2.516   2.270 -0.2532 -1.1765  0.8533
15454TIP3    H267778   6.495   2.424   2.187  0.3883 -0.0343  0.2541
15455TIP3   OH267779   1.259   3.443  12.583 -0.0193 -0.9167 -0.0585
15455TIP3    H167780   1.220   3.425  12.669 -1.1147 -1.0603 -0.5721
15455TIP3    H267781   1.237   3.366  12.531 -0.0525 -0.4726 -0.7029
15456TIP3   OH267782   2.713   2.525  15.314 -0.1483  0.3829 -0.3094
15456TIP3    H167783   2.749   2.483  15.392 -2.8726  1.5074  1.6019
15456TIP3    H267784   2.662   2.456  15.271 -1.6886  0.7448  0.9142
15457TIP3   OH267785   0.912   6.750   5.258  0.1394  0.3382  0.5981
15457TIP3    H167786   0.989   6.793   5.221  0.7035 -0.0005  1.3831
15457TIP3    H267787   0.904   6.787   5.346 -1.1646  1.0889  0.1834
15458TIP3   OH267788   4.745   0.970   2.494  0.0704  0.4154 -0.4541
15458TIP3    H167789   4.663   1.018   2.488 -0.3001  0.2897  2.7539
15458TIP3    H267790   4.811   1.036   2.517  0.3161  0.0426 -0.0742
15459TIP3   OH267791   6.629   1.816  12.485 -0.2151 -0.2699 -0.2707
15459TIP3    H167792   6.613   1.886  12.549 -1.9246 -2.7381  2.0870
15459TIP3    H267793   6.542   1.791  12.455  0.0975 -3.6060  1.4079
15460TIP3   OH267794   6.164   0.481   1.223  0.0041  0.0325  0.0344
15460TIP3    H167795   6.167   0.393   1.262  0.3998 -0.1025 -0.2996
15460TIP3    H267796   6.120   0.469   1.139 -1.2845  0.4050  0.6440
15461TIP3   OH267797   3.018   4.266   4.008 -0.8646  0.4627 -0.1756
15461TIP3    H167798   2.997   4.343   4.062 -0.2821 -0.5745  1.5641
15461TIP3    H267799   2.978   4.193   4.053  0.4134 -0.5581 -0.6634
15462TIP3   OH267800   3.618   0.087  10.829  0.1883 -0.0655 -0.7084
15462TIP3    H167801   3.679   0.087  10.754  1.4430  1.2359  0.2677
15462TIP3    H267802   3.646   0.162  10.881 -0.4291 -1.1874  1.2698
15463TIP3   OH267803   4.416   1.161   5.634 -0.1674 -0.0370  0.1943
15463TIP3    H167804   4.322   1.170   5.620 -0.3212  0.5266  1.5271
15463TIP3    H267805   4.453   1.156   5.546 -1.2060  2.1367 -0.3847
15464TIP3   OH267806   3.155   2.005   4.918 -0.4591  0.3270 -0.1852
15464TIP3    H167807   3.213   2.047   4.981  0.2993 -0.1457 -0.5697
15464TIP3    H267808   3.073   2.055   4.924 -0.4554  0.1587  1.3051
15465TIP3   OH267809   4.369   0.786  13.272 -0.1954 -0.4484 -0.0898
15465TIP3    H167810   4.443   0.741  13.314 -0.3040 -0.7300 -0.2028
15465TIP3    H267811   4.300   0.785  13.338  0.6548  1.8470  0.8650
15466TIP3   OH267812   2.166   0.481   4.371  0.3186 -0.4237  0.4688
15466TIP3    H167813   2.178   0.535   4.292 -0.0178 -1.2017 -0.1203
15466TIP3    H267814   2.073   0.490   4.392  0.4358 -0.1071  0.8675
15467TIP3   OH267815   0.930   3.930   3.185 -0.2019 -0.1111  0.3313
15467TIP3    H167816   0.945   4.013   3.229  2.5549  0.2004 -1.0892
15467TIP3    H267817   0.848   3.943   3.136  0.3862  1.8879 -0.1720
15468TIP3   OH267818   5.159   2.196  11.981  0.3294 -0.2211 -0.0587
15468TIP3    H167819   5.228   2.162  12.037  0.7985 -0.6635 -0.8963
15468TIP3    H267820   5.179   2.161  11.894  0.8948  2.3064 -0.9709
15469TIP3   OH267821   1.227   0.144   1.061 -0.5362  0.3526  0.2347
15469TIP3    H167822   1.237   0.218   1.002  0.9634 -0.6628 -0.8162
15469TIP3    H267823   1.173   0.177   1.132  1.3025  2.8747  0.5224
15470TIP3   OH267824   1.700   6.740  12.639  0.0706  0.8754 -0.0756
15470TIP3    H167825   1.644   6.663  12.631  2.2681 -0.9287  1.5161
15470TIP3    H267826   1.658   6.794  12.705 -1.0859  0.7166 -0.6698
15471TIP3   OH267827   2.596   6.558  13.467  0.3291 -0.1757 -0.1043
15471TIP3    H167828   2.543   6.503  13.409  0.2918 -1.7577  1.3713
15471TIP3    H267829   2.535   6.622  13.503  0.1805  0.2752 -1.1430
15472TIP3   OH267830   2.021   0.521  16.442 -0.3629  1.0601 -0.6583
15472TIP3    H167831   2.044   0.576  16.368 -1.1645  0.1291 -1.6274
15472TIP3    H267832   2.104   0.504  16.487  0.3211  0.5787 -2.0889
15473TIP3   OH267833   3.680   4.510  12.367  0.5616 -0.3621 -0.0608
15473TIP3    H167834   3.626   4.483  12.441  1.5485  0.0599  0.8229
15473TIP3    H267835   3.690   4.431  12.314  0.6617 -0.9042  0.7664
15474TIP3   OH267836   2.354   5.239  15.711  1.0642  0.1954 -0.3735
15474TIP3    H167837   2.424   5.179  15.685  2.5012  1.8818 -0.4560
15474TIP3    H267838   2.380   5.270  15.797  0.6848  1.2328 -0.6317
15475TIP3   OH267839   3.875   1.077  12.389 -0.0457 -0.1288 -0.3258
15475TIP3    H167840   3.874   0.986  12.356  1.2918 -0.0447 -0.6166
15475TIP3    H267841   3.928   1.073  12.468 -0.3264  0.3302 -0.1158
15476TIP3   OH267842   1.065   1.113   0.164  0.1378  0.1966 -0.2170
15476TIP3    H167843   1.100   1.067   0.088 -0.3811 -0.0665 -0.2976
15476TIP3    H267844   0.970   1.114   0.150  0.0632  0.3843  0.2941
15477TIP3   OH267845   6.565   2.359  13.233 -0.8608  0.5300 -0.1867
15477TIP3    H167846   6.628   2.308  13.283  0.0438  0.7214 -1.1184
15477TIP3    H267847   6.496   2.296  13.210 -0.8148  0.2311  0.4964
15478TIP3   OH267848   2.911   4.370   2.617 -0.4644 -0.6783  0.1269
15478TIP3    H167849   2.896   4.300   2.681  1.5516 -0.7253  0.5741
15478TIP3    H267850   2.915   4.450   2.670 -1.7964 -0.3252 -0.2825
15479TIP3   OH267851   4.331   2.082  13.462 -0.5539  0.4727  1.1049
15479TIP3    H167852   4.328   2.139  13.384 -0.5334 -0.4577  0.4145
15479TIP3    H267853   4.251   2.103  13.510 -0.8355  0.6639  0.5585
15480TIP3   OH267854   3.369   0.148  13.004  0.4022 -0.7425  0.0391
15480TIP3    H167855   3.442   0.205  12.979  1.1778 -0.9732  1.6979
15480TIP3    H267856   3.297   0.175  12.947  1.4059  0.3744 -0.7323
15481TIP3   OH267857   1.483   0.140  15.361 -0.0045  0.1770 -0.4573
15481TIP3    H167858   1.567   0.105  15.332 -0.3838 -0.1149 -1.2380
15481TIP3    H267859   1.427   0.063  15.372 -1.1434  0.5457 -3.1615
15482TIP3   OH267860   6.157   1.255   4.456  0.2966  0.0767 -0.6168
15482TIP3    H167861   6.160   1.167   4.419 -1.4449 -0.1335 -0.2655
15482TIP3    H267862   6.141   1.241   4.549  2.0518  0.7046 -0.1964
15483TIP3   OH267863   2.078   2.083   4.563  0.2293 -0.0331 -0.1530
15483TIP3    H167864   2.156   2.081   4.618 -1.3227 -0.6116  2.0956
15483TIP3    H267865   2.112   2.090   4.474  2.7824  1.8612  0.9144
15484TIP3   OH267866   5.268   0.952   5.482  0.2895 -0.3135  0.3583
15484TIP3    H167867   5.203   1.018   5.457  0.3955 -0.0555  0.7623
15484TIP3    H267868   5.304   0.921   5.398  0.9109  0.8138  0.1909
15485TIP3   OH267869   6.202   2.466   1.313  0.3907  0.3014 -0.4572
15485TIP3    H167870   6.145   2.536   1.344 -0.9955 -1.4638  1.1049
15485TIP3    H267871   6.192   2.467   1.218 -0.8752  1.1493 -0.3243
15486TIP3   OH267872   4.474   5.695  14.845  0.0619 -0.3392 -0.1622
15486TIP3    H167873   4.439   5.655  14.924 -0.7210  0.8426  0.0902
15486TIP3    H267874   4.414   5.766  14.824  0.9042  0.1058 -1.1599
15487TIP3   OH267875   4.299   6.060   4.333 -0.1417 -0.1434 -0.1544
15487TIP3    H167876   4.283   6.077   4.240  0.2813  0.5277 -0.1050
15487TIP3    H267877   4.287   5.966   4.342  0.9416 -0.3892 -1.1171
15488TIP3   OH267878   1.297   2.882  17.024 -0.1017  0.4552 -0.8836
15488TIP3    H167879   1.355   2.955  17.003  1.0793 -0.3826 -0.5625
15488TIP3    H267880   1.215   2.924  17.051  1.2483  1.7201  1.3760
15489TIP3   OH267881   2.287   0.347  11.684 -0.4263  0.5228 -0.1927
15489TIP3    H167882   2.313   0.378  11.597  0.4826  1.6770  0.4802
15489TIP3    H267883   2.293   0.424  11.740 -2.5114  0.1320  0.5908
15490TIP3   OH267884   2.239   4.183   5.486 -0.1607  0.8781 -0.5181
15490TIP3    H167885   2.196   4.251   5.538  0.0842  0.4717  0.2162
15490TIP3    H267886   2.190   4.103   5.505 -1.6793  1.1870 -2.8849
15491TIP3   OH267887   6.628   1.324  13.147  0.2403  0.0910  0.0385
15491TIP3    H167888   6.611   1.417  13.133  2.9898  0.4171 -1.5492
15491TIP3    H267889   6.574   1.280  13.081 -0.4372  0.5948  0.2486
15492TIP3   OH267890   0.826   1.380   0.191 -0.6821 -0.0720  0.2273
15492TIP3    H167891   0.795   1.297   0.154 -1.6672  0.1422  0.5425
15492TIP3    H267892   0.841   1.362   0.283 -2.2523  0.4354  0.6051
15493TIP3   OH267893   5.955   2.993  14.848 -0.5825  0.1384  0.2208
15493TIP3    H167894   5.942   2.899  14.846  1.6299 -0.2002  0.4052
15493TIP3    H267895   6.036   3.005  14.897  1.8159  1.7913 -3.8467
15494TIP3   OH267896   5.684   3.857  11.555  0.8346 -0.1342 -0.3735
15494TIP3    H167897   5.774   3.887  11.540  1.6502 -1.4797  1.6334
15494TIP3    H267898   5.694   3.777  11.606 -1.4961 -0.7972 -0.9174
15495TIP3   OH267899   0.698   4.260   5.885 -0.3938 -0.2005  0.1872
15495TIP3    H167900   0.693   4.176   5.840  1.2206  0.8837 -2.1499
15495TIP3    H267901   0.633   4.315   5.841  1.1974  0.8681 -0.9123
15496TIP3   OH267902   3.755   5.283  14.586  0.4653  0.0981 -0.3295
15496TIP3    H167903   3.710   5.330  14.516  2.4242  0.0492 -1.6392
15496TIP3    H267904   3.784   5.352  14.646  0.4676  0.2853 -0.5472
15497TIP3   OH267905   2.343   4.582   5.018 -0.6166 -0.5794  0.4797
15497TIP3    H167906   2.349   4.563   5.111 -0.7711 -0.6012  0.4848
15497TIP3    H267907   2.252   4.609   5.004 -0.7510 -1.1499  0.2329
15498TIP3   OH267908   4.849   1.845   2.828  0.1414  0.0052  0.1113
15498TIP3    H167909   4.845   1.752   2.803 -0.1689  0.2306 -0.7012
15498TIP3    H267910   4.942   1.867   2.822 -0.0004  0.2405 -1.5926
15499TIP3   OH267911   0.711   0.859   0.252  0.3510 -0.1220 -0.0214
15499TIP3    H167912   0.635   0.847   0.196  1.0524  0.5083 -1.1333
15499TIP3    H267913   0.786   0.855   0.193  1.3815 -3.3420  1.3956
15500TIP3   OH267914   3.706   6.098   4.073 -0.0978 -0.1486 -0.0090
15500TIP3    H167915   3.774   6.106   4.006 -0.3569  2.3476 -0.0229
15500TIP3    H267916   3.660   6.182   4.071 -0.9163 -0.4947  2.4378
15501TIP3   OH267917   1.145   4.659   2.945  0.1734 -0.1175 -0.7118
15501TIP3    H167918   1.087   4.583   2.947 -0.8709  0.6521 -1.1316
15501TIP3    H267919   1.147   4.685   2.853  0.9175  0.0793 -0.6444
15502TIP3   OH267920   0.148   5.116   1.248  0.5485  0.3323  0.2902
15502TIP3    H167921   0.170   5.046   1.185 -0.7078 -0.4076  0.6557
15502TIP3    H267922   0.057   5.137   1.229 -0.2250 -0.7105  2.6125
15503TIP3   OH267923   1.702   4.025   0.714 -0.2054 -0.0867 -0.6165
15503TIP3    H167924   1.647   4.065   0.646  1.5119  0.4419 -1.7283
15503TIP3    H267925   1.781   3.998   0.668  0.1826 -1.4978  0.8299
15504TIP3   OH267926   6.557   0.236  12.636 -0.0359  0.1673 -0.1124
15504TIP3    H167927   6.522   0.289  12.564 -0.8311 -0.0567  0.1031
15504TIP3    H267928   6.652   0.243  12.626 -0.1325  0.7187 -0.7580
15505TIP3   OH267929   2.057   2.580  11.399  0.4487 -0.2471  0.5326
15505TIP3    H167930   2.134   2.583  11.343  0.3399 -4.1013 -0.0157
15505TIP3    H267931   2.087   2.538  11.480 -0.5083  0.5476  1.3105
15506TIP3   OH267932   3.692   0.139   6.184  0.0515 -0.6015 -0.3646
15506TIP3    H167933   3.676   0.059   6.234  0.4770 -0.9866 -0.8496
15506TIP3    H267934   3.612   0.190   6.195  0.2733 -0.5165  1.0267
15507TIP3   OH267935   5.505   4.339   1.781  0.3103  0.4324  0.2443
15507TIP3    H167936   5.544   4.298   1.858 -1.4603 -1.9222 -0.0348
15507TIP3    H267937   5.539   4.428   1.781 -0.4794  0.8398  4.3719
15508TIP3   OH267938   2.806   5.200  12.047  0.3791 -0.3511  0.2424
15508TIP3    H167939   2.756   5.281  12.057 -0.0980 -0.4651 -1.0726
15508TIP3    H267940   2.760   5.137  12.103  0.4782  0.1661  0.9083
15509TIP3   OH267941   0.552   5.395   0.969 -0.2413 -0.6175  0.1231
15509TIP3    H167942   0.515   5.327   1.026  0.2010 -1.9085 -1.0874
15509TIP3    H267943   0.507   5.475   0.994 -1.8002 -1.6312  0.6172
15510TIP3   OH267944   6.557   5.075  13.012 -0.0349  0.1333 -0.0765
15510TIP3    H167945   6.620   5.041  13.076 -0.1442  0.9452  0.4567
15510TIP3    H267946   6.510   4.997  12.982 -0.5516 -0.1513  1.4339
15511TIP3   OH267947   4.021   0.317   4.882  0.5853 -0.1740 -0.2945
15511TIP3    H167948   3.988   0.320   4.972  0.1587 -0.5256 -0.4396
15511TIP3    H267949   4.116   0.315   4.891  0.5177 -1.1241  0.1675
15512TIP3   OH267950   1.578   1.883   4.578 -0.3164  0.2722 -0.4968
15512TIP3    H167951   1.557   1.817   4.644 -1.1023  2.5632  1.6005
15512TIP3    H267952   1.539   1.850   4.498 -1.1253 -1.5667  0.6374
15513TIP3   OH267953   3.047   5.096  16.385 -0.0988  0.0610  0.3977
15513TIP3    H167954   3.115   5.054  16.333  1.4303  0.5530  1.9840
15513TIP3    H267955   2.965   5.068  16.344  1.0711  0.5224 -2.3366
15514TIP3   OH267956   1.662   1.411  13.130  0.0414 -0.0503  0.2114
15514TIP3    H167957   1.643   1.363  13.050 -2.6892 -0.8459  1.2872
15514TIP3    H267958   1.606   1.488  13.126  0.6589  0.4392  0.8570
15515TIP3   OH267959   4.325   1.384  16.508  0.7737  0.0771  0.2529
15515TIP3    H167960   4.324   1.479  16.513 -1.8938  0.0031  2.7841
15515TIP3    H267961   4.414   1.359  16.534  0.7272  1.8307  2.2397
15516TIP3   OH267962   5.324   5.903   3.656  0.9098  0.1782  0.7560
15516TIP3    H167963   5.391   5.835   3.652  0.7071 -0.1286  2.4227
15516TIP3    H267964   5.273   5.882   3.734 -2.9628 -1.3524 -1.9677
15517TIP3   OH267965   4.366   2.621   2.959 -0.5169  0.2134  0.2265
15517TIP3    H167966   4.379   2.553   3.025  1.9994  0.6988  0.2707
15517TIP3    H267967   4.271   2.635   2.958 -0.6006  0.6241  4.1767
15518TIP3   OH267968   0.321   6.011  16.968  0.5434  0.1063 -0.0060
15518TIP3    H167969   0.405   6.007  17.014 -0.4482  0.2697  1.8945
15518TIP3    H267970   0.323   6.093  16.919  0.7929  0.9842  1.4559
15519TIP3   OH267971   0.800   3.702   4.526 -0.1750  0.0969 -0.3476
15519TIP3    H167972   0.780   3.640   4.456 -3.4707  0.4720  0.1878
15519TIP3    H267973   0.750   3.670   4.601  0.8495  1.4679  0.9467
15520TIP3   OH267974   1.297   0.602  15.759 -0.4664 -0.1104 -0.2442
15520TIP3    H167975   1.228   0.655  15.718 -1.4183 -1.2214 -0.0914
15520TIP3    H267976   1.366   0.666  15.780 -1.0238  0.8550 -1.2857
15521TIP3   OH267977   6.383   0.019   2.280 -0.2872  0.1231  0.0088
15521TIP3    H167978   6.319   0.050   2.216 -0.6461  0.9618  0.7669
15521TIP3    H267979   6.373  -0.076   2.281 -1.1666  0.2144 -0.2361
15522TIP3   OH267980   4.203   4.883  14.502  0.2229 -0.2179  0.2050
15522TIP3    H167981   4.129   4.857  14.556  0.5778 -0.5660  0.5222
15522TIP3    H267982   4.219   4.807  14.445  0.6334 -0.3187  0.4575
15523TIP3   OH267983   2.245   4.068  13.756 -0.5884  0.1610 -0.0750
15523TIP3    H167984   2.252   4.155  13.795  0.9945  0.2203 -0.4792
15523TIP3    H267985   2.264   4.007  13.829  1.6134  0.2528 -0.5402
15524TIP3   OH267986   5.227   5.946   2.361  0.1556 -0.2395  0.3924
15524TIP3    H167987   5.245   5.859   2.325  1.3756  0.9926 -2.0927
15524TIP3    H267988   5.232   6.005   2.286  1.4584  2.2605  2.3356
15525TIP3   OH267989   6.444   6.581  11.382 -0.0358 -0.1157  0.4923
15525TIP3    H167990   6.447   6.498  11.335  1.7839  1.1858 -1.8340
15525TIP3    H267991   6.507   6.571  11.453  2.2239  0.1239 -1.3944
15526TIP3   OH267992   4.196   6.751   0.304  0.4335  0.0579 -0.1526
15526TIP3    H167993   4.229   6.747   0.215  0.5330  1.3886 -0.1837
15526TIP3    H267994   4.251   6.689   0.353 -0.5403 -1.7541 -1.2725
15527TIP3   OH267995   5.351   1.643  14.223 -0.3687  0.4143 -0.5008
15527TIP3    H167996   5.332   1.592  14.144  0.8834  0.6291 -0.9380
15527TIP3    H267997   5.391   1.579  14.283 -0.4074  0.4819 -0.4034
15528TIP3   OH267998   3.760   2.621  11.322 -0.1476 -0.3504 -0.2609
15528TIP3    H167999   3.778   2.714  11.308 -1.1962  0.1121  1.2846
15528TIP3    H268000   3.805   2.600  11.404 -1.0800 -0.8537  0.1309
15529TIP3   OH268001   4.929   5.321   5.305  0.2568 -0.3268  0.2737
15529TIP3    H168002   4.890   5.308   5.391  1.9153 -1.0646  0.9177
15529TIP3    H268003   4.870   5.276   5.245  0.9112 -2.8016  1.4189
15530TIP3   OH268004   2.604   1.885   5.533  0.3350  0.0165 -0.2361
15530TIP3    H168005   2.631   1.851   5.447 -1.8564  0.7022 -1.2317
15530TIP3    H268006   2.591   1.807   5.587 -0.9885 -0.5809 -1.3766
15531TIP3   OH268007   0.820   0.156   2.787 -0.6161 -0.0385  0.3492
15531TIP3    H168008   0.819   0.084   2.850 -1.4734 -0.4557 -0.1356
15531TIP3    H268009   0.911   0.161   2.757 -0.6244 -1.1450  0.1286
15532TIP3   OH268010   1.063   0.580   0.721 -0.0322  0.1354  0.2149
15532TIP3    H168011   0.972   0.578   0.690 -0.2678  1.5716  0.7985
15532TIP3    H268012   1.106   0.645   0.666  0.5338 -0.2048  0.2490
15533TIP3   OH268013   6.548   4.164   2.315  0.0965  0.2468 -0.1585
15533TIP3    H168014   6.617   4.223   2.287  0.2022  0.7321  1.0885
15533TIP3    H268015   6.483   4.221   2.357 -0.5797 -0.3232 -0.4047
15534TIP3   OH268016   0.676   4.571   6.381 -0.4900 -0.2060 -0.0805
15534TIP3    H168017   0.598   4.548   6.432 -0.2113  0.6951  0.7620
15534TIP3    H268018   0.679   4.505   6.312 -0.4034 -1.9948  1.5796
15535TIP3   OH268019   6.532   4.973   5.528  0.6476  1.2679  0.4451
15535TIP3    H168020   6.445   5.011   5.516 -0.3856 -0.9204  0.9348
15535TIP3    H268021   6.584   5.011   5.457 -1.0344  1.6041 -0.6336
15536TIP3   OH268022   5.154   3.234  14.398  0.4158  0.4038  0.3316
15536TIP3    H168023   5.227   3.173  14.408  0.0810 -0.1987 -0.7771
15536TIP3    H268024   5.100   3.218  14.475  0.5146 -0.4681  0.2339
15537TIP3   OH268025   3.381   3.733   4.583  0.4509  0.0281  0.4544
15537TIP3    H168026   3.364   3.673   4.656  0.4033  1.0175  1.2743
15537TIP3    H268027   3.322   3.806   4.598  0.0293 -0.0180 -0.9122
15538TIP3   OH268028   1.264   3.145   4.871 -0.6011  0.4647 -0.2273
15538TIP3    H168029   1.292   3.204   4.800 -1.9251  1.0643 -0.2669
15538TIP3    H268030   1.179   3.179   4.898 -0.4520 -0.2193  1.1454
15539TIP3   OH268031   1.681   1.963   1.606  0.3632  0.2325 -0.2070
15539TIP3    H168032   1.687   1.918   1.691  1.0770 -0.9347 -0.8732
15539TIP3    H268033   1.603   2.018   1.614  0.1338 -0.2561  1.0261
15540TIP3   OH268034   6.094   3.889  15.915 -0.7191 -0.2522 -0.2289
15540TIP3    H168035   6.176   3.916  15.955 -0.5142 -0.4251 -0.5274
15540TIP3    H268036   6.029   3.898  15.984 -0.7215  1.3553 -0.4211
15541TIP3   OH268037   2.198   0.161  14.913  0.7691 -0.3494 -0.0717
15541TIP3    H168038   2.102   0.164  14.904  0.6267  2.5133  1.5785
15541TIP3    H268039   2.230   0.131  14.829 -1.5124  0.7117 -1.3597
15542TIP3   OH268040   4.346   0.399  10.485  0.3450  0.5091 -0.2316
15542TIP3    H168041   4.412   0.447  10.535  1.7546  1.5461 -3.0213
15542TIP3    H268042   4.386   0.313  10.470 -0.1677  0.1231  0.5841
15543TIP3   OH268043   3.678   3.408   5.810 -0.1346 -0.2056 -0.7115
15543TIP3    H168044   3.644   3.495   5.832  1.0973  0.4703 -1.4304
15543TIP3    H268045   3.648   3.352   5.882  1.5125  1.4233  1.2812
15544TIP3   OH268046   5.720   5.587   0.031 -0.2933 -0.1298 -0.1732
15544TIP3    H168047   5.678   5.577  -0.054  0.7523  2.2121 -1.0136
15544TIP3    H268048   5.811   5.610   0.010  0.2596 -0.5990  1.5904
15545TIP3   OH268049   2.842   0.424   3.599  0.0471 -0.1414 -1.0172
15545TIP3    H168050   2.866   0.493   3.660  1.0142 -1.8259  0.5692
15545TIP3    H268051   2.755   0.448   3.568 -1.2803 -0.1842  2.4830
15546TIP3   OH268052   3.613   2.624  12.611  0.1889 -1.3125 -0.0499
15546TIP3    H168053   3.578   2.712  12.629  0.6198 -1.5510  2.1071
15546TIP3    H268054   3.539   2.566  12.622  0.0761 -1.2974 -0.7238
15547TIP3   OH268055   1.487   1.384  15.441 -0.6001  0.2349  0.3055
15547TIP3    H168056   1.564   1.432  15.411 -1.9132  1.3030 -1.4517
15547TIP3    H268057   1.492   1.386  15.537  1.4338  0.4600  0.2034
15548TIP3   OH268058   5.212   2.784  14.048 -0.6335  0.1346 -0.2267
15548TIP3    H168059   5.192   2.849  13.981 -0.7521 -0.0295 -0.3548
15548TIP3    H268060   5.245   2.709  13.999  2.0253  1.0396  0.1222
15549TIP3   OH268061   5.999   3.252   2.857  0.5769  0.0773  0.4868
15549TIP3    H168062   5.983   3.341   2.891  1.1079 -0.1302  1.2877
15549TIP3    H268063   5.968   3.194   2.926 -4.5479 -0.4965 -2.0357
15550TIP3   OH268064   1.287   5.128   3.499 -0.3681  0.0003  0.5049
15550TIP3    H168065   1.236   5.106   3.577 -0.1807 -0.3273  0.5337
15550TIP3    H268066   1.266   5.059   3.437 -2.4388  1.5491 -0.6175
15551TIP3   OH268067   1.060   0.888  13.194  0.0877  0.1711  0.2855
15551TIP3    H168068   1.027   0.833  13.123 -0.4777  3.1669 -1.8799
15551TIP3    H268069   1.147   0.852  13.213 -0.3094 -1.5318 -0.9647
15552TIP3   OH268070   6.040   2.524   1.551 -0.2158  0.4327  0.2548
15552TIP3    H168071   6.120   2.573   1.570 -0.5157  0.3574  1.7513
15552TIP3    H268072   6.066   2.433   1.558 -0.5298  0.4128  1.1387
15553TIP3   OH268073   3.132   3.779  16.755  0.0849  0.3521 -0.3519
15553TIP3    H168074   3.167   3.807  16.671  1.5327 -1.6632 -0.4475
15553TIP3    H268075   3.078   3.702  16.735 -0.4930  0.5474  0.4136
15554TIP3   OH268076   5.727   0.262  12.166  0.0766  0.4142 -0.4232
15554TIP3    H168077   5.742   0.329  12.099 -0.5629 -1.3001 -2.3092
15554TIP3    H268078   5.647   0.291  12.211 -0.7956  0.3524 -1.9270
15555TIP3   OH268079   1.062   5.445  16.873  0.4113 -0.4136 -0.0140
15555TIP3    H168080   0.997   5.485  16.930  0.0782 -1.2748  0.2158
15555TIP3    H268081   1.120   5.397  16.932  1.3587  0.4623 -0.1975
15556TIP3   OH268082   4.216   3.608   2.715  0.0374 -0.2044 -0.5705
15556TIP3    H168083   4.242   3.555   2.639 -1.7707 -0.4895 -1.0123
15556TIP3    H268084   4.132   3.571   2.742 -0.3269  1.2356  0.2999
15557TIP3   OH268085   3.448   2.742   3.419 -1.1320 -0.2793  0.1717
15557TIP3    H168086   3.486   2.800   3.485 -0.4996 -1.2163  0.6486
15557TIP3    H268087   3.427   2.800   3.346 -1.5531  0.7274  1.0580
15558TIP3   OH268088   3.078   2.779   1.703  0.1680 -0.1050 -0.5103
15558TIP3    H168089   3.007   2.732   1.660 -2.4191  0.5316  2.8693
15558TIP3    H268090   3.126   2.711   1.750 -0.9206 -0.0025  0.7902
15559TIP3   OH268091   1.205   2.220  13.253  0.0196  0.0880 -0.2549
15559TIP3    H168092   1.158   2.296  13.288  0.4605  0.0517  0.4334
15559TIP3    H268093   1.275   2.204  13.316  0.2754 -0.5446 -0.6908
15560TIP3   OH268094   4.620   5.270  12.722 -0.4432  0.0084  0.2215
15560TIP3    H168095   4.552   5.328  12.689 -0.7330 -0.3898  0.1262
15560TIP3    H268096   4.657   5.317  12.797  1.2869  1.6391 -1.5807
15561TIP3   OH268097   0.909   0.246   2.343 -0.2706 -0.0642  0.1699
15561TIP3    H168098   0.827   0.244   2.295 -0.4839  1.8013  0.4037
15561TIP3    H268099   0.960   0.316   2.301  0.1204  0.5947  1.6893
15562TIP3   OH268100   3.038   2.631  15.512  0.0521 -0.6885  0.0230
15562TIP3    H168101   3.028   2.695  15.441 -0.7245  1.3305  1.8824
15562TIP3    H268102   3.095   2.563  15.476  0.2326  0.6532 -2.2879
15563TIP3   OH268103   1.406   2.341  11.513 -0.2016 -0.5775  0.3577
15563TIP3    H168104   1.390   2.435  11.520  0.9980 -0.2337 -1.1068
15563TIP3    H268105   1.332   2.307  11.463  0.2098 -0.1068 -0.5927
15564TIP3   OH268106   2.711   1.834  14.595  0.1800  0.3309 -0.8034
15564TIP3    H168107   2.759   1.756  14.621  0.2978  1.2073  1.7873
15564TIP3    H268108   2.769   1.907  14.617 -1.1635  1.2816 -0.2815
15565TIP3   OH268109   4.173   4.196  16.622 -0.0111  0.3419 -0.1288
15565TIP3    H168110   4.176   4.102  16.600 -1.9401  0.4695 -1.0847
15565TIP3    H268111   4.104   4.203  16.688  1.2402  0.8878  1.1363
15566TIP3   OH268112   4.833   1.339  17.003  0.0149 -0.5482  0.0590
15566TIP3    H168113   4.917   1.384  17.013  0.1386 -0.9080  0.6657
15566TIP3    H268114   4.781   1.370  17.077 -0.1426 -0.8706  0.0797
15567TIP3   OH268115   5.988   1.260  12.363 -0.2493  0.2224  0.2887
15567TIP3    H168116   5.922   1.302  12.309 -1.1083  0.0852  1.2140
15567TIP3    H268117   6.059   1.238  12.302 -0.5302  1.4488 -0.4966
15568TIP3   OH268118   2.682   0.740  14.669  0.2937 -0.3965  0.0058
15568TIP3    H168119   2.647   0.803  14.605  0.3469  0.4720  0.8267
15568TIP3    H268120   2.774   0.730  14.644  0.6291  0.8851  0.6909
15569TIP3   OH268121   2.048   3.570  11.626 -0.6623 -0.4457 -0.4455
15569TIP3    H168122   2.072   3.531  11.710  0.5281  0.1584 -0.4922
15569TIP3    H268123   1.993   3.645  11.650 -1.0891 -0.8157 -0.2545
15570TIP3   OH268124   3.421   0.132   4.871 -0.2452 -0.0484  0.3210
15570TIP3    H168125   3.437   0.099   4.960 -0.3095 -1.5791 -0.2193
15570TIP3    H268126   3.350   0.196   4.882  1.6726  1.9209  1.7674
15571TIP3   OH268127   1.108   3.710  14.967  0.1034 -0.2292  0.1328
15571TIP3    H168128   1.105   3.629  15.019  0.0068 -0.8133 -0.7584
15571TIP3    H268129   1.191   3.750  14.990  0.6438 -1.1330 -0.2183
15572TIP3   OH268130   3.667   1.858   5.731 -0.0792  0.7734  0.1312
15572TIP3    H168131   3.688   1.907   5.809 -0.9240  1.2134  0.0952
15572TIP3    H268132   3.666   1.923   5.661 -0.3176  0.5572 -0.0695
15573TIP3   OH268133   3.077   2.823   3.388  0.5326 -0.3170  0.2815
15573TIP3    H168134   3.100   2.737   3.424 -0.7636 -1.3006 -1.2034
15573TIP3    H268135   3.046   2.804   3.299 -1.3984  1.5020  0.5510
15574TIP3   OH268136   1.774   4.668  15.709 -0.1303  0.2049 -0.1498
15574TIP3    H168137   1.796   4.692  15.799 -0.4241  1.1373 -0.3213
15574TIP3    H268138   1.682   4.645  15.712  0.6455 -3.0058  0.4250
15575TIP3   OH268139   5.954   6.256  14.076  0.5557 -0.7725 -0.6629
15575TIP3    H168140   6.019   6.294  14.016  0.3701  0.8613  0.1398
15575TIP3    H268141   6.005   6.199  14.133  1.6704  1.9681  1.2134
15576TIP3   OH268142   2.737   0.988   4.997  0.0594 -0.4573  0.1179
15576TIP3    H168143   2.715   0.933   5.072 -1.5161  0.6422  0.4773
15576TIP3    H268144   2.804   1.048   5.030  0.2359 -0.7610  0.3115
15577TIP3   OH268145   2.617   2.203  15.291 -0.1978  0.2068 -0.0355
15577TIP3    H168146   2.576   2.157  15.218  0.3286  1.9420 -1.4687
15577TIP3    H268147   2.710   2.183  15.283  0.2603  2.7158 -1.6355
15578TIP3   OH268148   5.685   0.547   4.466 -0.1324  0.0436 -0.4004
15578TIP3    H168149   5.746   0.556   4.540  1.1443 -0.9086 -1.3094
15578TIP3    H268150   5.709   0.618   4.407 -1.8623  1.4642  0.5625
15579TIP3   OH268151   5.311   2.062  16.226 -0.4182 -0.0912  0.0112
15579TIP3    H168152   5.383   2.062  16.289 -0.0217 -0.7928 -0.4377
15579TIP3    H268153   5.302   2.154  16.201 -1.1630  0.3322  1.7499
15580TIP3   OH268154   3.625   3.934  10.232  0.1657 -0.0005 -0.4468
15580TIP3    H168155   3.558   3.952  10.298 -0.7592 -0.8984 -1.1402
15580TIP3    H268156   3.707   3.933  10.281 -0.3465  0.8743  0.4427
15581TIP3   OH268157   3.854   0.122   5.917  0.1555 -0.4685 -0.1745
15581TIP3    H168158   3.807   0.148   5.996 -0.0385 -3.1912  0.6746
15581TIP3    H268159   3.802   0.159   5.845 -0.3275  1.0150  0.9142
15582TIP3   OH268160   0.209   1.977   3.677  0.0037  0.0744 -0.0078
15582TIP3    H168161   0.156   1.955   3.600  2.1449 -3.7092 -0.5310
15582TIP3    H268162   0.221   2.072   3.671 -2.3698  0.2961 -2.6786
15583TIP3   OH268163   3.534   3.793  16.311  0.4489 -0.3351  0.2412
15583TIP3    H168164   3.548   3.888  16.314  0.8297 -0.2280 -2.8493
15583TIP3    H268165   3.620   3.757  16.290 -0.2129 -1.1489 -1.0864
15584TIP3   OH268166   3.746   2.852  16.786  0.1804  0.2400 -0.5029
15584TIP3    H168167   3.749   2.756  16.797 -0.4134  0.1623 -1.0099
15584TIP3    H268168   3.659   2.877  16.817  0.0130  0.5091 -1.1775
15585TIP3   OH268169   4.120   0.635   3.694  0.1351 -0.3653 -0.5651
15585TIP3    H168170   4.090   0.626   3.603  1.2476  0.1775 -0.9984
15585TIP3    H268171   4.040   0.631   3.746 -0.6762  0.7825 -1.6815
15586TIP3   OH268172   4.656   2.619   4.303 -0.0958 -0.7217  0.7514
15586TIP3    H168173   4.609   2.540   4.279 -3.0897  1.4335 -0.7299
15586TIP3    H268174   4.606   2.656   4.375 -0.5571  1.4580 -0.6451
15587TIP3   OH268175   2.179   5.779  13.657  0.1173  0.0707 -0.3638
15587TIP3    H168176   2.182   5.723  13.580 -1.0580 -0.4861 -0.0228
15587TIP3    H268177   2.110   5.843  13.637  0.0733  0.1595  0.0739
15588TIP3   OH268178   5.877   1.818   4.567 -0.4067 -0.0426  0.0912
15588TIP3    H168179   5.858   1.888   4.630  1.3744  0.0091  0.5946
15588TIP3    H268180   5.953   1.850   4.519 -0.8838 -0.7191 -1.1273
15589TIP3   OH268181   5.552   1.589  11.884  0.8632 -0.2349  0.1664
15589TIP3    H168182   5.549   1.671  11.934  0.7334  0.7782 -1.4683
15589TIP3    H268183   5.505   1.526  11.938  1.2374  0.6838  1.5938
15590TIP3   OH268184   0.126   6.700   5.494  0.2029  0.2068 -0.2993
15590TIP3    H168185   0.149   6.668   5.407  2.7164  0.2179  0.3270
15590TIP3    H268186   0.128   6.795   5.485  0.0769  0.2085 -0.3150
15591TIP3   OH268187   3.862   1.163  16.637 -0.4915 -0.6545  0.3094
15591TIP3    H168188   3.887   1.248  16.603 -0.6307 -0.7730 -0.0908
15591TIP3    H268189   3.803   1.183  16.710 -1.9236 -0.4201 -0.8857
15592TIP3   OH268190   1.632   5.129   1.588 -0.1828  0.2487 -0.9541
15592TIP3    H168191   1.701   5.190   1.615 -0.3798  0.6854 -1.4056
15592TIP3    H268192   1.679   5.051   1.560  0.0270 -0.1310  0.4348
15593TIP3   OH268193   5.471   5.333   3.585  0.1092 -0.4311  0.0119
15593TIP3    H168194   5.387   5.341   3.541  0.4327  3.4095 -0.1247
15593TIP3    H268195   5.536   5.353   3.516  0.9688 -0.7530  0.7174
15594TIP3   OH268196   5.180   6.488   0.774 -0.1576  0.1971  0.0370
15594TIP3    H168197   5.171   6.583   0.764 -3.3933 -0.0034  0.4936
15594TIP3    H268198   5.091   6.457   0.791  0.9217 -2.8746  0.4258
15595TIP3   OH268199   4.746   3.218   4.799  0.1166  0.3646 -0.7620
15595TIP3    H168200   4.699   3.155   4.743 -1.4246  1.1245 -0.3338
15595TIP3    H268201   4.685   3.291   4.810  0.8450  0.7324  0.9932
15596TIP3   OH268202   4.879   3.784  13.100 -0.1561  0.0920 -0.5117
15596TIP3    H168203   4.921   3.700  13.083 -1.0892 -1.0074  2.3804
15596TIP3    H268204   4.909   3.808  13.187 -3.8797  0.2871  0.7715
15597TIP3   OH268205   4.358   3.679  11.142  0.5726  0.7054  0.0129
15597TIP3    H168206   4.326   3.765  11.113  0.4629  1.3664  2.0507
15597TIP3    H268207   4.278   3.629  11.160  0.6551  0.7454  0.4808
15598TIP3   OH268208   1.941   1.464  13.145 -0.2644 -0.4006 -0.4212
15598TIP3    H168209   1.946   1.557  13.168 -0.8960 -0.3274 -0.5674
15598TIP3    H268210   1.848   1.448  13.130 -0.2601 -1.2574  0.4146
15599TIP3   OH268211   4.461   0.544  13.108  0.1350  0.2740 -0.1972
15599TIP3    H168212   4.472   0.635  13.079 -0.3574  1.4100  2.9804
15599TIP3    H268213   4.506   0.541  13.193  0.5931 -2.6071 -0.4976
15600TIP3   OH268214   1.945   0.952  12.651  0.1193  0.2574  0.1873
15600TIP3    H168215   1.935   0.878  12.592 -0.6800 -0.9931  1.8360
15600TIP3    H268216   1.890   0.930  12.727  1.2502  1.7092  1.4739
15601TIP3   OH268217   4.634   4.800  15.145 -0.0226 -0.1873 -0.2109
15601TIP3    H168218   4.550   4.845  15.158  0.2303  0.4484 -0.7534
15601TIP3    H268219   4.672   4.842  15.067  0.5700 -0.8134 -0.2611
15602TIP3   OH268220   4.867   3.348   5.677  0.0811  0.6535 -0.3233
15602TIP3    H168221   4.844   3.270   5.727  0.8206  1.1527  0.7919
15602TIP3    H268222   4.961   3.342   5.663  0.0608  1.0865 -0.6980
15603TIP3   OH268223   4.851   1.680   3.415  0.0257  0.4965 -0.0549
15603TIP3    H168224   4.910   1.745   3.378  1.4079 -0.0160  1.1933
15603TIP3    H268225   4.849   1.609   3.351  3.3385 -0.9205  1.3051
15604TIP3   OH268226   1.232   0.302   5.967 -0.0020 -0.0751 -0.2962
15604TIP3    H168227   1.182   0.347   5.898  1.3297  1.6988 -0.1306
15604TIP3    H268228   1.323   0.314   5.942  0.5022  0.5179  1.7460
15605TIP3   OH268229   3.896   5.753   1.384  0.0354  0.4569 -0.3002
15605TIP3    H168230   3.956   5.686   1.351 -0.2168  0.4839 -0.8145
15605TIP3    H268231   3.953   5.827   1.406  0.0095  1.1816 -2.5466
15606TIP3   OH268232   0.927   1.941   2.443 -0.1614 -0.6395  0.6879
15606TIP3    H168233   0.915   1.965   2.535  0.3833  0.5049  0.4642
15606TIP3    H268234   0.921   2.023   2.395 -0.7467 -1.2658 -0.3437
15607TIP3   OH268235   0.017   0.664  12.108  0.1306 -0.2916  0.2458
15607TIP3    H168236   0.061   0.748  12.120  1.8160 -1.1619  0.3260
15607TIP3    H268237   0.088   0.599  12.113 -1.0734 -1.6723 -0.3377
15608TIP3   OH268238   3.438   3.461   3.982 -0.2496  0.7277  0.6856
15608TIP3    H168239   3.428   3.410   3.901 -0.2225  1.4277  0.2382
15608TIP3    H268240   3.496   3.407   4.036 -2.1360 -0.8512  1.1838
15609TIP3   OH268241   2.669   6.703   0.749 -0.3461  0.7995  0.1566
15609TIP3    H168242   2.611   6.628   0.732  0.6232  0.3129 -1.1376
15609TIP3    H268243   2.649   6.729   0.839 -0.9372 -0.8057  0.5084
15610TIP3   OH268244   6.713   0.813   0.380  0.0137  0.2503 -0.5633
15610TIP3    H168245   6.723   0.737   0.324  1.6992 -0.2920  0.4405
15610TIP3    H268246   6.774   0.878   0.344 -0.3786  0.6168 -0.5713
15611TIP3   OH268247   5.351   1.619  11.352  0.4246 -0.5039  0.1183
15611TIP3    H168248   5.421   1.621  11.287 -0.7293  0.2460 -1.1404
15611TIP3    H268249   5.332   1.711  11.370  0.0644 -0.7021  0.7821
15612TIP3   OH268250   0.904   1.898   5.025  0.2617 -0.4320  0.3444
15612TIP3    H168251   0.824   1.859   4.991 -0.2580  0.2562  0.7632
15612TIP3    H268252   0.929   1.843   5.099  1.1310 -1.6573 -0.8389
15613TIP3   OH268253   6.520   0.157   1.094  0.2211  0.2645  0.2192
15613TIP3    H168254   6.492   0.248   1.104  0.7251  0.5371 -0.8196
15613TIP3    H268255   6.503   0.118   1.179  1.5318  1.7497  1.1863
15614TIP3   OH268256   1.868   2.535  15.789  0.3865  0.2619  0.0300
15614TIP3    H168257   1.779   2.528  15.753  0.4542  0.8125 -0.2610
15614TIP3    H268258   1.899   2.445  15.794  0.4010  0.1808 -1.3671
15615TIP3   OH268259   2.483   5.695   0.413 -0.1987 -0.4068 -0.2847
15615TIP3    H168260   2.572   5.669   0.436 -0.3298 -1.7895 -1.2803
15615TIP3    H268261   2.428   5.651   0.477 -0.1675  0.5289  0.3930
15616TIP3   OH268262   2.712   2.350   5.285  0.2419  0.0288  0.3431
15616TIP3    H168263   2.719   2.307   5.370 -1.3417  1.0330  1.0024
15616TIP3    H268264   2.710   2.279   5.222  1.1661 -0.7370  1.1514
15617TIP3   OH268265   2.864   5.303  15.934 -0.0737  0.5594  0.0212
15617TIP3    H168266   2.829   5.361  16.002 -1.2928 -1.5887  1.2934
15617TIP3    H268267   2.793   5.293  15.871 -0.3776 -0.6548  0.5439
15618TIP3   OH268268   1.570   0.024   4.986  0.1162  0.3188  0.1308
15618TIP3    H168269   1.557   0.092   4.920  0.4428 -1.1150 -1.4483
15618TIP3    H268270   1.654  -0.016   4.962 -0.8541 -1.7064  0.0593
15619TIP3   OH268271   1.853   2.247   3.021  0.6683 -0.2923  0.1133
15619TIP3    H168272   1.760   2.234   3.036  0.6616 -0.8248 -0.3903
15619TIP3    H268273   1.870   2.208   2.936  1.2877  0.1013  0.0484
15620TIP3   OH268274   2.433   6.562   5.395 -0.3847  0.1842  0.6807
15620TIP3    H168275   2.508   6.513   5.431  0.1966 -0.3406 -1.2077
15620TIP3    H268276   2.459   6.654   5.402  1.7231 -0.0870 -2.6281
15621TIP3   OH268277   0.695   1.713  11.822 -0.0812  0.5407  0.3761
15621TIP3    H168278   0.655   1.643  11.771 -0.1133  0.9709 -0.2030
15621TIP3    H268279   0.637   1.789  11.807  0.4671  0.9352  0.2338
15622TIP3   OH268280   4.123   6.124  16.776  0.0215  0.1146 -0.0223
15622TIP3    H168281   4.045   6.108  16.722  1.1470 -1.4849 -1.2326
15622TIP3    H268282   4.196   6.115  16.715  1.1216  2.4853  0.9220
15623TIP3   OH268283   3.521   0.974  14.275  0.0138  0.6361 -0.2190
15623TIP3    H168284   3.518   1.019  14.190  0.2191  0.3632 -0.3747
15623TIP3    H268285   3.443   1.004  14.321 -0.3602  0.4138 -0.6963
15624TIP3   OH268286   3.079   4.246  12.926 -0.1972  0.8781 -0.1283
15624TIP3    H168287   3.024   4.259  13.003  1.3559  0.0625  1.1445
15624TIP3    H268288   3.024   4.273  12.852 -2.7466 -1.0982  0.9802
15625TIP3   OH268289   6.145   0.769  16.415 -0.0234  0.3826  0.1032
15625TIP3    H168290   6.098   0.793  16.495  2.3619  1.7102  1.1617
15625TIP3    H268291   6.193   0.689  16.439 -1.3029 -0.6792 -0.8140
15626TIP3   OH268292   3.904   2.242  11.092 -0.4106  0.2349  0.1952
15626TIP3    H168293   3.823   2.262  11.139  0.3968  1.3280  1.1584
15626TIP3    H268294   3.959   2.319  11.104  1.0976 -0.8098  0.2568
15627TIP3   OH268295   4.836   1.066  13.769 -0.9582  0.8946 -0.6173
15627TIP3    H168296   4.851   0.988  13.715 -2.7447  0.6865 -0.8484
15627TIP3    H268297   4.913   1.071  13.826 -0.4061 -0.5313 -1.2140
15628TIP3   OH268298   1.866   4.399   5.504 -1.0131 -0.0177  0.0015
15628TIP3    H168299   1.938   4.402   5.567 -0.3482  0.3716 -0.7779
15628TIP3    H268300   1.787   4.391   5.559 -0.4979  0.9614  0.9134
15629TIP3   OH268301   3.116   1.351   4.736  0.4561  0.1617 -0.1028
15629TIP3    H168302   3.140   1.304   4.816 -0.5842  0.4565  0.3871
15629TIP3    H268303   3.029   1.318   4.715  1.2534 -0.8819 -1.8474
15630TIP3   OH268304   4.182   1.078  14.316 -0.1128 -0.4718  0.1099
15630TIP3    H168305   4.116   1.030  14.267 -0.1220 -2.2539  1.8036
15630TIP3    H268306   4.250   1.100  14.252 -1.4791 -0.2258 -1.2606
15631TIP3   OH268307   1.184   5.480  14.602 -0.4033 -0.2726  0.3045
15631TIP3    H168308   1.208   5.548  14.540  0.2594  0.8165  1.7320
15631TIP3    H268309   1.247   5.410  14.586 -1.6310 -0.9734 -1.7721
15632TIP3   OH268310   2.328   5.743  17.046  0.1954 -0.2593  0.1196
15632TIP3    H168311   2.418   5.728  17.016 -0.3029 -1.7592 -0.6958
15632TIP3    H268312   2.297   5.656  17.070 -1.0976  0.2340  0.2530
15633TIP3   OH268313   2.348   5.561  14.472  0.4230  0.1891  0.1659
15633TIP3    H168314   2.348   5.514  14.389  0.5773 -0.9670  0.8138
15633TIP3    H268315   2.341   5.493  14.539  2.9478  0.9010  1.2276
15634TIP3   OH268316   1.441   3.541  14.480 -0.6914  0.2861  0.4142
15634TIP3    H168317   1.436   3.445  14.488 -0.4001  0.2341 -0.0375
15634TIP3    H268318   1.523   3.565  14.522 -0.4892  0.2827  0.0198
15635TIP3   OH268319   6.592   5.996   5.552 -0.3651  0.5867  0.3062
15635TIP3    H168320   6.591   5.936   5.626  2.1064  0.0449 -0.0689
15635TIP3    H268321   6.562   5.943   5.478  1.0248 -0.0054  0.1421
15636TIP3   OH268322   5.648   3.503  13.024 -0.0917 -0.2869 -0.1325
15636TIP3    H168323   5.628   3.506  12.931  2.8023  0.1682 -0.7707
15636TIP3    H268324   5.591   3.569  13.063 -1.0857 -0.2556 -1.6100
15637TIP3   OH268325   0.481   6.768   1.543  0.0422  0.4177 -0.4472
15637TIP3    H168326   0.495   6.756   1.637 -0.4846  2.1891 -0.1382
15637TIP3    H268327   0.559   6.730   1.502  1.2331  1.4628  0.8096
15638TIP3   OH268328   5.334   3.138   2.012 -0.0511  0.3967  0.1335
15638TIP3    H168329   5.267   3.149   2.079  0.0353 -3.2416  0.9265
15638TIP3    H268330   5.414   3.118   2.060  0.1102 -1.8241 -0.9793
15639TIP3   OH268331   3.714   3.410  15.937 -0.3220 -0.5535  0.3100
15639TIP3    H168332   3.655   3.404  16.012  0.4013 -0.6988  0.8669
15639TIP3    H268333   3.657   3.435  15.864 -0.8321  0.7539  1.1386
15640TIP3   OH268334   2.944   2.240  14.763  0.4863  0.0373 -0.0838
15640TIP3    H168335   2.997   2.284  14.829  1.2970 -0.4741 -0.3837
15640TIP3    H268336   2.853   2.257  14.790  0.7969  0.9220  0.4249
15641TIP3   OH268337   2.082   0.427   3.409 -0.2708 -0.2356 -0.5684
15641TIP3    H168338   2.038   0.379   3.339 -0.8992  0.8086 -0.9047
15641TIP3    H268339   2.012   0.448   3.471  0.4079 -1.7919  0.7380
15642TIP3   OH268340   0.606   6.179   2.522  0.1950 -0.2705 -0.2483
15642TIP3    H168341   0.571   6.094   2.496  1.7249 -0.6391 -1.1992
15642TIP3    H268342   0.676   6.196   2.459 -0.7081  2.1455 -0.6500
15643TIP3   OH268343   0.097   5.679  14.240  0.8800  0.0407 -0.2777
15643TIP3    H168344   0.185   5.673  14.203  0.8391  0.4957 -0.4506
15643TIP3    H268345   0.087   5.599  14.292  0.7666 -0.8722 -1.6517
15644TIP3   OH268346   3.043   4.175   0.677 -0.3866 -0.0359  0.2961
15644TIP3    H168347   2.994   4.168   0.595  0.5668 -0.0291 -0.2809
15644TIP3    H268348   3.028   4.092   0.721  0.0861 -0.5207 -0.4448
15645TIP3   OH268349   5.541   5.390  14.010  0.6820 -0.0923  0.1150
15645TIP3    H168350   5.458   5.344  14.023  0.3746 -0.0109 -1.4550
15645TIP3    H268351   5.599   5.354  14.076 -0.1236 -1.3378  0.1682
15646TIP3   OH268352   1.248   1.915  11.547  0.1917  1.0635 -0.3176
15646TIP3    H168353   1.214   1.826  11.557 -0.7226  1.4283 -0.1572
15646TIP3    H268354   1.343   1.905  11.554  0.1447  0.0023 -1.0028
15647TIP3   OH268355   1.591   3.514   0.695 -0.0038 -0.0694 -0.4393
15647TIP3    H168356   1.677   3.531   0.655 -0.0581  0.6979 -0.2352
15647TIP3    H268357   1.567   3.428   0.663  0.7605 -0.2080 -0.6569
15648TIP3   OH268358   5.283   3.026  12.913  0.0872 -0.1341  0.0459
15648TIP3    H168359   5.264   3.007  12.821 -0.0563 -0.6903  0.1862
15648TIP3    H268360   5.368   2.986  12.928  0.6139  0.9113 -0.1370
15649TIP3   OH268361   5.536   2.128  12.410  0.2938  0.2989  0.4489
15649TIP3    H168362   5.625   2.164  12.410  0.2444  0.4240 -0.6252
15649TIP3    H268363   5.549   2.034  12.395  0.1853  0.4855 -0.8625
15650TIP3   OH268364   0.124   3.659   5.869  0.2807  0.3020 -0.3734
15650TIP3    H168365   0.144   3.715   5.944  0.6422 -0.0306 -0.2198
15650TIP3    H268366   0.209   3.629   5.837  0.2611  2.0167 -2.1490
15651TIP3   OH268367   3.061   2.637   4.329  0.3491 -0.3789 -0.2769
15651TIP3    H168368   3.078   2.717   4.279  0.3349 -0.0881  0.1776
15651TIP3    H268369   3.104   2.651   4.413  1.0995 -1.2252 -0.5163
15652TIP3   OH268370   0.255   0.370  14.008 -0.0082 -0.2861  0.1089
15652TIP3    H168371   0.176   0.323  13.982 -1.6324  1.8976  0.8667
15652TIP3    H268372   0.279   0.331  14.092  2.0138 -3.5712 -1.9212
15653TIP3   OH268373   3.959   0.321   4.567  0.3606 -0.2740 -0.1065
15653TIP3    H168374   3.885   0.311   4.626  1.0043 -0.3417  0.6997
15653TIP3    H268375   3.985   0.413   4.575 -0.5613  0.1255 -1.5134
15654TIP3   OH268376   1.182   3.190   3.095  0.0950  0.3555  0.4400
15654TIP3    H168377   1.140   3.273   3.119  0.6049  0.9680 -0.7291
15654TIP3    H268378   1.220   3.207   3.009 -1.7272 -1.7804 -0.8526
15655TIP3   OH268379   3.346   4.551   4.574  0.0534  0.4366 -0.3459
15655TIP3    H168380   3.420   4.609   4.556  0.2634 -0.0043 -0.9373
15655TIP3    H268381   3.382   4.462   4.563 -0.0051  0.1574  1.5647
15656TIP3   OH268382   2.891   4.171   0.424 -0.2637 -0.0166  0.7259
15656TIP3    H168383   2.934   4.133   0.348 -0.6686  0.5013  0.2366
15656TIP3    H268384   2.826   4.107   0.450 -0.1252 -0.1922  0.6375
15657TIP3   OH268385   6.761   5.110   1.591 -0.2882  0.1548  0.2554
15657TIP3    H168386   6.755   5.173   1.519 -1.4567  1.1465  1.1841
15657TIP3    H268387   6.836   5.141   1.643 -0.5123  0.4539  0.4029
15658TIP3   OH268388   3.470   0.731   0.485  0.7592  0.0797  0.3407
15658TIP3    H168389   3.474   0.791   0.559  1.9954  0.0179  0.3344
15658TIP3    H268390   3.561   0.715   0.462  0.4390 -1.3157 -0.0477
15659TIP3   OH268391   4.312   0.709   5.482  0.6984  0.8376 -0.0338
15659TIP3    H168392   4.321   0.621   5.444 -1.2698  0.7127 -0.3073
15659TIP3    H268393   4.254   0.696   5.558 -1.9393  2.2682 -1.7020
15660TIP3   OH268394   3.554   6.287  15.701  0.1119 -0.1235 -0.1900
15660TIP3    H168395   3.511   6.351  15.758  0.1544 -0.1280 -0.1529
15660TIP3    H268396   3.484   6.254  15.645 -0.6740 -2.6635  2.1750
15661TIP3   OH268397   0.120   2.150   1.783 -0.0819 -0.1134 -0.0594
15661TIP3    H168398   0.182   2.175   1.852 -1.8639 -0.0617  1.5739
15661TIP3    H268399   0.135   2.057   1.768  2.6225  0.5730 -2.0529
15662TIP3   OH268400   5.363   2.952   4.986 -0.1747  0.0933  0.2536
15662TIP3    H168401   5.427   3.004   4.936 -0.5381  1.4214  1.1441
15662TIP3    H268402   5.318   2.900   4.919  1.0870 -0.0446 -0.5068
15663TIP3   OH268403   6.136   4.368  15.850 -0.5391 -0.6003  0.5868
15663TIP3    H168404   6.084   4.312  15.908  0.1381 -0.0422  1.7490
15663TIP3    H268405   6.163   4.441  15.906  0.6238 -0.3655 -0.2839
15664TIP3   OH268406   3.852   1.755   4.623  0.3529  0.6201  0.1689
15664TIP3    H168407   3.786   1.687   4.632 -0.2622  1.1192 -0.4586
15664TIP3    H268408   3.932   1.708   4.602  0.1516  0.0236  0.7354
15665TIP3   OH268409   3.694   6.466   3.870  0.6171  0.1554 -0.0019
15665TIP3    H168410   3.718   6.532   3.935  0.2125 -1.8838  2.2414
15665TIP3    H268411   3.748   6.390   3.892 -2.5770 -2.0068  0.5846
15666TIP3   OH268412   1.616   4.574   6.161 -0.6303 -0.1111 -0.2806
15666TIP3    H168413   1.706   4.605   6.167 -0.3888 -0.4097 -2.0600
15666TIP3    H268414   1.566   4.634   6.217  0.5918  0.3341  0.3469
15667TIP3   OH268415   5.376   5.838  14.671  0.8955  0.3650 -0.2495
15667TIP3    H168416   5.332   5.777  14.611  1.2804 -0.9825  0.8112
15667TIP3    H268417   5.321   5.917  14.670  0.9372  0.3835 -2.4153
15668TIP3   OH268418   6.371   0.098  11.598  0.5819  0.3737  0.6609
15668TIP3    H168419   6.401   0.072  11.510  0.3517  0.3446  0.5905
15668TIP3    H268420   6.348   0.015  11.641 -1.1907  0.5349  0.0588
15669TIP3   OH268421   6.054   2.294   0.475 -0.7658  0.0294  0.3799
15669TIP3    H168422   6.057   2.386   0.450 -0.7649  0.0386  0.4142
15669TIP3    H268423   6.132   2.281   0.529 -1.5341  0.3742  1.6001
15670TIP3   OH268424   1.835   4.599   4.360  0.4443  0.6107 -0.3751
15670TIP3    H168425   1.751   4.641   4.345  0.6145  1.2168  0.3089
15670TIP3    H268426   1.835   4.576   4.453 -0.5439 -2.9407 -1.1662
15671TIP3   OH268427   4.322   0.193  15.895 -0.1788 -0.7782  0.4424
15671TIP3    H168428   4.286   0.127  15.955  2.3995 -0.1830  2.7560
15671TIP3    H268429   4.290   0.276  15.930 -0.2045 -0.5465 -0.1325
15672TIP3   OH268430   2.605   6.163  12.733 -0.0819 -0.3762  0.5141
15672TIP3    H168431   2.694   6.185  12.761  0.0764 -0.8902  0.4105
15672TIP3    H268432   2.611   6.150  12.639 -0.5684  1.0965  0.2698
15673TIP3   OH268433   0.021   3.945  12.813  0.0620  0.6071 -0.0674
15673TIP3    H168434   0.106   3.990  12.809  0.7764 -0.8143 -1.4503
15673TIP3    H268435  -0.002   3.929  12.721 -1.2636  0.1626  0.3297
15674TIP3   OH268436   4.625   3.150   1.238 -0.3715 -0.0155  0.1252
15674TIP3    H168437   4.609   3.233   1.282  0.5028 -0.3099  0.9942
15674TIP3    H268438   4.624   3.172   1.144  0.8843  1.1470  0.3797
15675TIP3   OH268439   3.923   4.618   2.033 -0.3108  0.6747 -0.3231
15675TIP3    H168440   3.980   4.603   1.957  1.0805 -1.9408  1.1479
15675TIP3    H268441   3.949   4.704   2.065  2.0046  0.0768 -0.4443
15676TIP3   OH268442   2.122   5.747   5.033 -0.4811 -0.1953  0.4257
15676TIP3    H168443   2.148   5.727   4.943 -1.6323  0.9044 -0.1635
15676TIP3    H268444   2.178   5.821   5.058 -0.6796 -0.0134  0.3380
15677TIP3   OH268445   5.983   6.538   4.209 -0.5197  0.4998  0.1793
15677TIP3    H168446   5.974   6.480   4.134 -0.7648 -0.4785  0.9655
15677TIP3    H268447   5.897   6.537   4.251 -0.3672  1.0024  0.5097
15678TIP3   OH268448   1.730   3.336  17.143 -0.4101  0.6966  0.3280
15678TIP3    H168449   1.649   3.311  17.186  0.3725  1.0017  2.0288
15678TIP3    H268450   1.712   3.325  17.050 -2.4324  0.8781  0.6690
15679TIP3   OH268451   1.938   3.451  14.732 -0.6505 -0.0439 -0.0454
15679TIP3    H168452   2.023   3.495  14.736 -0.7980  0.2069  0.3915
15679TIP3    H268453   1.882   3.501  14.792 -1.3149  0.2525 -0.8909
15680TIP3   OH268454   0.624   5.886  15.293  0.2822 -0.2018 -0.6220
15680TIP3    H168455   0.643   5.978  15.312 -0.2254 -0.5796  1.8572
15680TIP3    H268456   0.671   5.837  15.361 -1.3630 -1.6338 -0.4831
15681TIP3   OH268457   2.962   0.158  15.016  0.1045 -0.2845 -0.1411
15681TIP3    H168458   3.000   0.201  15.092  1.4134 -0.7949 -0.4993
15681TIP3    H268459   2.974   0.221  14.944  0.5974 -0.6018 -0.3332
15682TIP3   OH268460   6.762   1.460  14.226 -0.7808 -0.5745 -0.2628
15682TIP3    H168461   6.767   1.515  14.147 -1.2023 -0.0179  0.0903
15682TIP3    H268462   6.814   1.383  14.205  0.3113  0.2239 -0.5681
15683TIP3   OH268463   5.174   4.671  14.881 -0.1785 -0.1293 -0.1964
15683TIP3    H168464   5.109   4.696  14.815 -0.9366 -0.9728  0.2225
15683TIP3    H268465   5.126   4.674  14.964  0.3488 -0.6645  0.1286
15684TIP3   OH268466   0.261   1.002   0.698  0.8674 -0.0573  0.1343
15684TIP3    H168467   0.184   0.950   0.675  0.7752  0.3079 -0.3828
15684TIP3    H268468   0.332   0.938   0.704  1.0849 -0.0662 -2.0478
15685TIP3   OH268469   5.683   2.920  11.694 -0.0801  0.1560  0.4234
15685TIP3    H168470   5.701   2.987  11.759 -1.4909  1.1528 -0.1888
15685TIP3    H268471   5.747   2.851  11.712  3.5394  3.0133 -0.9861
15686TIP3   OH268472   3.966   1.128   4.921 -0.2281 -0.1216 -0.0156
15686TIP3    H168473   3.978   1.173   5.005  0.4978  0.6053 -0.5008
15686TIP3    H268474   4.042   1.071   4.913 -1.0411 -1.2777  0.4973
15687TIP3   OH268475   5.673   0.222   4.692  0.2191 -0.4526  0.0446
15687TIP3    H168476   5.712   0.252   4.774 -0.2504 -1.5433  0.6768
15687TIP3    H268477   5.635   0.301   4.654 -1.6831 -0.3517  2.0659
15688TIP3   OH268478   2.584   3.495  15.105  0.2267 -0.6535 -0.1223
15688TIP3    H168479   2.632   3.426  15.060  0.1026 -0.0522 -1.1788
15688TIP3    H268480   2.628   3.502  15.191  0.4676 -1.7765 -0.1511
15689TIP3   OH268481   3.155   3.241  14.952  0.0126 -0.1463  0.5895
15689TIP3    H168482   3.194   3.202  15.031  1.7917 -1.1579 -0.7691
15689TIP3    H268483   3.120   3.167  14.903 -0.5163  0.4276  0.0855
15690TIP3   OH268484   4.864   1.593   3.668 -0.1219  0.2572  0.0033
15690TIP3    H168485   4.842   1.627   3.581  1.3003  0.6458 -0.2110
15690TIP3    H268486   4.828   1.658   3.729  0.2730  0.7959 -0.3353
15691TIP3   OH268487   0.856   4.871   2.161  0.0490  0.0657  0.3408
15691TIP3    H168488   0.828   4.872   2.070  3.8550  0.3389 -0.9104
15691TIP3    H268489   0.854   4.962   2.189  0.4601  0.1779  0.0043
15692TIP3   OH268490   1.421   2.676   4.691 -0.3276 -0.3532 -0.2863
15692TIP3    H168491   1.362   2.679   4.616 -1.0452 -0.0699  0.2913
15692TIP3    H268492   1.388   2.742   4.751 -1.2401 -2.2781  1.3672
15693TIP3   OH268493   5.288   2.197  10.671  0.0255 -0.1482  0.3196
15693TIP3    H168494   5.329   2.267  10.620  1.7647 -1.9526 -0.8423
15693TIP3    H268495   5.354   2.174  10.737 -0.4609 -0.7815  0.5889
15694TIP3   OH268496   3.001   5.348   5.255  0.5739 -0.2255 -0.1165
15694TIP3    H168497   2.995   5.254   5.273 -0.8202  0.0860  1.2044
15694TIP3    H268498   3.081   5.376   5.300 -0.9902 -0.1352  2.7938
15695TIP3   OH268499   2.613   5.416  13.333  0.6232 -0.3888  0.0498
15695TIP3    H168500   2.565   5.401  13.415  1.1744  0.4606  0.5448
15695TIP3    H268501   2.704   5.425  13.361  0.7209  0.6181 -0.5734
15696TIP3   OH268502   1.495   3.950  16.157  0.0999  0.4970  0.1529
15696TIP3    H168503   1.413   3.903  16.172  0.7568 -1.0841 -1.1244
15696TIP3    H268504   1.541   3.946  16.241  1.0992 -3.0502 -0.4731
15697TIP3   OH268505   0.858   3.360  13.388  0.7430  0.5781  0.0891
15697TIP3    H168506   0.923   3.424  13.358  0.1826  0.5006 -1.3293
15697TIP3    H268507   0.791   3.414  13.431  1.2708  0.7408  0.7298
15698TIP3   OH268508   3.595   2.655  16.355 -0.4741  0.0272  0.2217
15698TIP3    H168509   3.526   2.699  16.405 -0.7079 -0.8475  0.6823
15698TIP3    H268510   3.549   2.618  16.280 -0.4024 -0.0232  0.2034
15699TIP3   OH268511   6.290   6.381   3.731  0.4488  0.0748  0.4396
15699TIP3    H168512   6.246   6.429   3.661  2.1037  0.4072 -0.4020
15699TIP3    H268513   6.225   6.374   3.800 -1.2814 -0.4050 -1.2034
15700TIP3   OH268514   0.435   1.661   2.368 -0.6429  0.0210  0.0035
15700TIP3    H168515   0.419   1.589   2.307 -0.9371  2.4448 -2.9206
15700TIP3    H268516   0.494   1.624   2.434  1.9371 -2.0127 -3.2406
15701TIP3   OH268517   0.267   3.837   0.245 -0.7531 -0.4381 -0.0485
15701TIP3    H168518   0.343   3.830   0.186 -1.4094 -0.2582 -0.9327
15701TIP3    H268519   0.250   3.931   0.251 -2.1712 -0.5770 -1.5215
15702TIP3   OH268520   2.716   1.836   1.278 -0.1155  0.1128  0.6970
15702TIP3    H168521   2.698   1.778   1.204  2.3409 -0.2371  0.3555
15702TIP3    H268522   2.811   1.843   1.281 -0.2978  2.5221  1.9867
15703TIP3   OH268523   4.253   3.009  13.465  0.2292  0.3288 -0.1335
15703TIP3    H168524   4.172   3.000  13.416 -0.8989  0.8623  1.5957
15703TIP3    H268525   4.247   2.945  13.535  0.1667  2.0323  1.4759
15704TIP3   OH268526   4.067   6.260   6.052 -0.4285 -0.5060 -0.3110
15704TIP3    H168527   4.086   6.309   6.132 -0.2089  1.6606 -1.6404
15704TIP3    H268528   3.977   6.284   6.030  0.2142  0.6121 -1.8435
15705TIP3   OH268529   3.130   1.137  12.105  0.0763 -0.8387 -0.2761
15705TIP3    H168530   3.209   1.155  12.156  0.0342 -1.9340  0.1871
15705TIP3    H268531   3.078   1.079  12.161 -0.4639 -1.1837 -1.1253
15706TIP3   OH268532   2.290   4.833  15.208  0.4183  0.6882  0.1751
15706TIP3    H168533   2.335   4.755  15.240 -2.2140 -0.6854  0.6380
15706TIP3    H268534   2.289   4.823  15.113 -0.9522 -0.4536  0.2999
15707TIP3   OH268535   1.658   4.419  12.684 -0.5177 -0.4044  0.1964
15707TIP3    H168536   1.752   4.414  12.702 -0.0897 -1.6310 -2.1373
15707TIP3    H268537   1.623   4.474  12.754  1.8313 -0.4632  1.4702
15708TIP3   OH268538   4.281   2.123  11.391 -0.1650  0.3501 -0.3417
15708TIP3    H168539   4.217   2.094  11.325 -1.2042  1.0044  0.3749
15708TIP3    H268540   4.362   2.132  11.342 -0.8992  0.6929 -1.5263
15709TIP3   OH268541   0.103   1.934   0.725  0.3228  0.4448 -0.3981
15709TIP3    H168542   0.059   1.970   0.648  1.1793 -2.0451 -2.1026
15709TIP3    H268543   0.038   1.874   0.763  0.2790  0.8908  0.2370
15710TIP3   OH268544   0.445   5.909   4.540 -0.0465 -0.3960  0.5411
15710TIP3    H168545   0.425   5.952   4.623 -0.3740 -0.2630  0.3944
15710TIP3    H268546   0.540   5.897   4.541  0.4680  2.8182 -0.5848
15711TIP3   OH268547   6.070   6.217  14.407 -0.4670  0.6379  0.1515
15711TIP3    H168548   6.022   6.164  14.471 -1.2853  0.0193 -0.9668
15711TIP3    H268549   6.092   6.156  14.337  0.3772  1.3278 -0.1932
15712TIP3   OH268550   3.252   3.055  11.100 -0.4369 -0.1919  0.1250
15712TIP3    H168551   3.317   3.119  11.069 -3.1317  1.9362 -1.3643
15712TIP3    H268552   3.269   2.976  11.049  1.3339  0.1288  0.1846
15713TIP3   OH268553   0.108   0.989  16.970 -0.1629  0.0089  0.0635
15713TIP3    H168554   0.039   1.055  16.967  0.3129  0.4666 -2.6626
15713TIP3    H268555   0.094   0.936  16.892  1.4424 -1.0581  0.4757
15714TIP3   OH268556   5.676   1.504   4.246 -0.6992  0.1662  0.7891
15714TIP3    H168557   5.650   1.412   4.254  1.1727 -0.5013 -0.5265
15714TIP3    H268558   5.728   1.521   4.325 -0.8901  0.0387  0.9416
15715TIP3   OH268559   1.219   6.644  14.919 -0.2235  0.9149 -0.1760
15715TIP3    H168560   1.283   6.658  14.989  0.8865  1.0545 -1.2058
15715TIP3    H268561   1.221   6.725  14.868  0.0413  0.2570 -1.2257
15716TIP3   OH268562   0.898   4.579  16.253  0.3057  0.0208  0.0809
15716TIP3    H168563   0.985   4.619  16.258  0.3383  0.0125 -0.3528
15716TIP3    H268564   0.902   4.524  16.174 -0.2119  0.3096 -0.1517
15717TIP3   OH268565   3.373   4.923   5.023 -0.0231  0.1205 -0.0210
15717TIP3    H168566   3.392   4.996   4.964  1.0511 -0.6133 -0.5980
15717TIP3    H268567   3.440   4.858   5.003 -0.0216 -0.3968  1.5687
15718TIP3   OH268568   2.771   5.792   1.526  0.1881  0.5553 -0.0763
15718TIP3    H168569   2.682   5.819   1.548  0.6979  2.0148  0.2598
15718TIP3    H268570   2.826   5.838   1.590  1.2898  0.7468 -1.1486
15719TIP3   OH268571   0.558   4.965   2.218  0.1207  0.0925 -0.3082
15719TIP3    H168572   0.495   5.020   2.172  0.5099 -0.0665 -1.0422
15719TIP3    H268573   0.534   4.876   2.194  0.3503  0.0092 -0.2299
15720TIP3   OH268574   1.526   6.778   2.860  0.0146 -0.2276 -0.0757
15720TIP3    H168575   1.497   6.769   2.950  0.6232  2.3025  0.4009
15720TIP3    H268576   1.529   6.873   2.844 -1.4818 -0.6237 -3.2089
15721TIP3   OH268577   4.984   1.142  12.108  0.3602  0.3716  0.0059
15721TIP3    H168578   5.061   1.096  12.141  1.2083  0.8578 -1.2621
15721TIP3    H268579   4.978   1.221  12.162  0.1350 -0.1626  0.7767
15722TIP3   OH268580   4.390   3.884  15.804 -0.4371 -0.1543  0.1518
15722TIP3    H168581   4.463   3.833  15.769 -0.4782  0.1081 -0.3157
15722TIP3    H268582   4.419   3.910  15.891 -0.4593 -1.0698  0.4403
15723TIP3   OH268583   2.301   5.433  12.867  0.9247  0.2968  0.1282
15723TIP3    H168584   2.273   5.450  12.777  3.8559 -0.7034 -1.0283
15723TIP3    H268585   2.336   5.517  12.897 -0.9086  0.8828  0.7059
15724TIP3   OH268586   2.447   2.213  12.279  0.0686  0.0874 -0.4160
15724TIP3    H168587   2.358   2.212  12.242 -0.2901 -2.4957  0.4033
15724TIP3    H268588   2.465   2.306  12.295 -2.9475  0.5887  0.4888
15725TIP3   OH268589   6.751   3.397   2.492 -0.0167  0.1714 -0.6068
15725TIP3    H168590   6.662   3.365   2.476 -0.5887  1.4812 -0.1166
15725TIP3    H268591   6.789   3.408   2.405 -0.8362  0.9565 -0.8716
15726TIP3   OH268592   3.940   1.059   1.559  0.4985  0.5001 -0.5292
15726TIP3    H168593   3.904   1.147   1.571 -2.0512 -0.4001 -1.2429
15726TIP3    H268594   3.868   1.000   1.580  1.4292 -1.3813 -2.3968
15727TIP3   OH268595   1.875   1.743   5.986  0.3734  0.1862 -0.0037
15727TIP3    H168596   1.944   1.796   6.027  0.6086  1.4318 -1.9771
15727TIP3    H268597   1.840   1.690   6.058  1.9276  1.1055  1.4598
15728TIP3   OH268598   2.117   4.797  15.983 -0.3202  0.0300  0.0868
15728TIP3    H168599   2.213   4.800  15.991 -0.3627 -1.2773  1.3166
15728TIP3    H268600   2.093   4.709  16.014 -1.7132 -0.5715 -2.5538
15729TIP3   OH268601   1.715   0.714   6.024  0.4603  0.5102 -0.3760
15729TIP3    H168602   1.781   0.649   5.999  0.0851 -0.2401  0.5293
15729TIP3    H268603   1.640   0.696   5.966 -0.8136 -1.9270  1.9159
15730TIP3   OH268604   1.844   5.276   1.248  0.0535  0.0531 -0.2872
15730TIP3    H168605   1.847   5.315   1.161  0.1537 -1.9897 -1.2230
15730TIP3    H268606   1.750   5.269   1.267 -0.0344 -1.6971 -1.2669
15731TIP3   OH268607   6.372   3.814   3.456  0.0331 -0.0796  0.3260
15731TIP3    H168608   6.344   3.891   3.407 -2.0631 -0.5252  0.7583
15731TIP3    H268609   6.443   3.845   3.512 -1.6027  1.8563  1.4181
15732TIP3   OH268610   5.618   4.365  17.220  0.1580 -0.0986  0.5040
15732TIP3    H168611   5.639   4.430  17.153 -1.6954  0.3597  0.3542
15732TIP3    H268612   5.658   4.284  17.188  0.6972  0.4822 -0.3299
15733TIP3   OH268613   1.727   6.131   4.121 -0.0312 -0.3144 -0.2445
15733TIP3    H168614   1.766   6.189   4.056 -0.9630 -1.0107 -1.4680
15733TIP3    H268615   1.801   6.098   4.171  0.8045 -0.4527 -1.5314
15734TIP3   OH268616   2.758   2.892   3.768 -0.3494  0.3634 -0.0492
15734TIP3    H168617   2.827   2.935   3.819 -0.6901  0.1758  0.5812
15734TIP3    H268618   2.703   2.964   3.738  0.1741  0.5236 -0.6405
15735TIP3   OH268619   6.257   3.128  13.536  0.3875  0.4235  0.5037
15735TIP3    H168620   6.265   3.202  13.596  0.9367  1.7932 -1.1930
15735TIP3    H268621   6.204   3.162  13.464  3.7773  0.4366 -2.1430
15736TIP3   OH268622   3.385   1.456  12.296 -0.0322  0.2239  0.1210
15736TIP3    H168623   3.417   1.370  12.323 -0.7758  0.1102  0.6521
15736TIP3    H268624   3.339   1.439  12.214 -3.2911 -0.5177  2.0089
15737TIP3   OH268625   4.134   2.195   2.035  0.2201 -0.2332  0.2867
15737TIP3    H168626   4.053   2.143   2.035  0.9245 -1.3863 -1.6003
15737TIP3    H268627   4.193   2.147   2.092  0.8062 -1.4630 -1.3030
15738TIP3   OH268628   0.776   1.642  12.114 -0.2681  0.9066  0.5953
15738TIP3    H168629   0.699   1.615  12.165  0.4936  1.6524  2.1467
15738TIP3    H268630   0.740   1.664  12.027 -1.4000 -1.6165  0.3716
15739TIP3   OH268631   0.890   1.481   0.452 -0.4528 -0.2609  0.1920
15739TIP3    H168632   0.857   1.526   0.530  0.3634  1.3464 -0.3548
15739TIP3    H268633   0.973   1.441   0.480 -1.1511 -1.3910  0.6653
15740TIP3   OH268634   6.002   6.751   5.814 -0.6699  0.0670  0.5568
15740TIP3    H168635   5.990   6.728   5.906 -0.3789  1.5741  0.9980
15740TIP3    H268636   5.915   6.744   5.776 -0.4232 -2.5976  0.4454
15741TIP3   OH268637   3.553   3.060   0.125  0.4056 -0.1670  0.4742
15741TIP3    H168638   3.627   3.094   0.175  0.0677 -0.2601  1.0470
15741TIP3    H268639   3.493   3.025   0.191 -0.8993  1.3805  0.1547
15742TIP3   OH268640   5.781   1.368  11.620 -0.1874  0.4171 -0.0139
15742TIP3    H168641   5.718   1.428  11.581  0.2379  0.8446 -0.0390
15742TIP3    H268642   5.832   1.335  11.546 -0.2121  0.2675  0.0359
15743TIP3   OH268643   3.014   2.631  12.025 -0.4056 -0.6834 -0.0197
15743TIP3    H168644   3.032   2.655  12.116 -1.0499 -0.1244 -0.0402
15743TIP3    H268645   3.036   2.538  12.021  1.2303 -0.3296  0.2805
15744TIP3   OH268646   4.492   5.203   6.519 -0.1733  0.0757 -0.0208
15744TIP3    H168647   4.572   5.240   6.482 -0.9505  0.6988 -1.0687
15744TIP3    H268648   4.519   5.116   6.551  0.7730  0.0225 -0.9359
15745TIP3   OH268649   6.368   6.322   5.538  0.1333 -0.2744  0.1626
15745TIP3    H168650   6.359   6.406   5.583  0.0552  1.3151 -2.6982
15745TIP3    H268651   6.279   6.290   5.527  0.0218  0.2443 -0.4817
15746TIP3   OH268652   6.186   6.103  15.583  0.0638 -0.1596  0.1917
15746TIP3    H168653   6.279   6.085  15.595  0.3716  1.1388 -0.1851
15746TIP3    H268654   6.176   6.194  15.608 -0.4444  0.7739 -3.1269
15747TIP3   OH268655   6.321   3.314   0.070  0.1405 -0.2357  0.7755
15747TIP3    H168656   6.370   3.282  -0.006 -0.4917  1.6402 -0.4472
15747TIP3    H268657   6.352   3.404   0.083  1.3301 -0.9877  3.6812
15748TIP3   OH268658   3.176   1.425   2.117  0.1042 -0.0880 -0.0580
15748TIP3    H168659   3.143   1.339   2.142 -0.3033  0.4858  1.4784
15748TIP3    H268660   3.176   1.424   2.021  1.3142 -2.2257 -0.0557
15749TIP3   OH268661   5.887   5.652   2.361 -0.1678 -0.6334  0.4859
15749TIP3    H168662   5.827   5.689   2.426  0.2484 -1.3016  1.2752
15749TIP3    H268663   5.949   5.722   2.342 -0.7598 -0.1828  0.2277
15750TIP3   OH268664   0.411   0.965  14.359  0.2334  0.0389 -0.4372
15750TIP3    H168665   0.459   0.950  14.278 -0.0844 -0.8611 -0.4629
15750TIP3    H268666   0.352   0.890  14.366 -0.5546  0.6963  0.0374
15751TIP3   OH268667   2.919   5.479   3.749 -0.5096  0.8909  0.0881
15751TIP3    H168668   2.971   5.528   3.813 -1.3946  1.6729  0.2081
15751TIP3    H268669   2.898   5.543   3.681  1.6777 -0.2700 -1.7811
15752TIP3   OH268670   5.769   5.853  12.746 -0.0946  0.0013 -0.3705
15752TIP3    H168671   5.766   5.761  12.721  1.4683 -0.5708  1.4402
15752TIP3    H268672   5.859   5.880  12.730 -0.2649  0.9093  0.1463
15753TIP3   OH268673   0.643   1.709  16.790 -0.2913  0.3049 -0.2606
15753TIP3    H168674   0.721   1.655  16.780  0.9175  1.8219  0.6715
15753TIP3    H268675   0.626   1.743  16.702 -0.6980 -1.0710 -0.7279
15754TIP3   OH268676   0.184   2.027  15.937 -0.2747 -0.1176 -0.1938
15754TIP3    H168677   0.154   1.966  15.870 -0.1192  0.3170 -0.6597
15754TIP3    H268678   0.279   2.012  15.942 -0.3512 -0.4814  0.2673
15755TIP3   OH268679   1.126   1.439   1.807 -0.2440  0.0385  0.0138
15755TIP3    H168680   1.074   1.470   1.733 -0.0771  0.9374  0.2592
15755TIP3    H268681   1.170   1.518   1.839  2.6772 -1.0271 -1.2751
15756TIP3   OH268682   3.570   5.342   3.964 -0.4625 -0.0030 -0.5566
15756TIP3    H168683   3.594   5.328   4.056  0.5232 -0.3555 -0.8651
15756TIP3    H268684   3.625   5.415   3.936  1.0373 -1.5016 -1.5665
15757TIP3   OH268685   1.713   4.339  16.215 -0.4884 -0.0491  0.6611
15757TIP3    H168686   1.672   4.350  16.129 -0.9370 -0.0586  0.8734
15757TIP3    H268687   1.755   4.253  16.211 -0.5479 -0.0697  0.4658
15758TIP3   OH268688   1.765   3.572  13.855 -0.1001 -0.0295  0.5686
15758TIP3    H168689   1.825   3.505  13.890 -0.5023 -0.6871 -0.0062
15758TIP3    H268690   1.682   3.554  13.899 -0.0461  0.5026  0.8977
15759TIP3   OH268691   6.783   6.179  13.692 -0.0076 -0.2657 -0.2210
15759TIP3    H168692   6.756   6.118  13.625 -1.2487 -0.5345  0.5091
15759TIP3    H268693   6.855   6.134  13.738 -0.1306 -0.6809 -0.4338
15760TIP3   OH268694   3.259   2.601  12.318  0.3539  0.4136  0.3165
15760TIP3    H168695   3.202   2.661  12.270  0.2171 -0.6678 -0.9030
15760TIP3    H268696   3.216   2.589  12.402 -0.6776  0.4341 -0.1999
15761TIP3   OH268697   6.077   3.021  12.945 -0.6412 -0.5206 -0.4605
15761TIP3    H168698   6.062   2.961  13.018  1.8092 -0.8717 -0.2208
15761TIP3    H268699   6.021   3.096  12.964  1.5103  0.3150  2.9038
15762TIP3   OH268700   0.719   1.976  12.707 -0.1288 -0.0668 -0.0867
15762TIP3    H168701   0.740   2.065  12.679 -0.3018 -0.1038 -0.3382
15762TIP3    H268702   0.651   1.987  12.774 -0.7134 -0.0502 -0.6810
15763TIP3   OH268703   5.090   2.422   2.860  0.3879  0.1707  0.3440
15763TIP3    H168704   5.027   2.398   2.928 -0.3674 -0.4171 -0.5396
15763TIP3    H268705   5.152   2.349   2.858  0.8572  0.5574  0.9386
15764TIP3   OH268706   1.178   1.748  12.796  0.3172 -0.0736 -0.6558
15764TIP3    H168707   1.193   1.701  12.878 -1.5074  0.1246 -0.2065
15764TIP3    H268708   1.127   1.688  12.742  0.1014  0.4400 -1.0307
15765TIP3   OH268709   4.468   3.362   2.756 -0.3524 -0.0254  0.4639
15765TIP3    H168710   4.482   3.268   2.746  1.1957  0.2106  0.3125
15765TIP3    H268711   4.501   3.382   2.844  0.8967  0.6560 -0.1439
15766TIP3   OH268712   3.760   6.597   1.614 -0.1923 -0.3184  0.3713
15766TIP3    H168713   3.820   6.586   1.541 -0.1143  2.0135  0.0667
15766TIP3    H268714   3.816   6.622   1.688 -0.5387 -0.3499  0.6465
15767TIP3   OH268715   1.681   4.532  16.795 -0.6225  0.3191  1.0028
15767TIP3    H168716   1.599   4.502  16.835 -0.7504 -0.9837 -0.2149
15767TIP3    H268717   1.728   4.573  16.867 -0.9481 -1.8164  2.4734
15768TIP3   OH268718   4.188   0.422  15.655  0.0420  0.3693 -0.5310
15768TIP3    H168719   4.177   0.385  15.567 -0.9133  0.0908 -0.2907
15768TIP3    H268720   4.269   0.382  15.687 -0.0722 -0.1963 -0.9366
15769TIP3   OH268721   5.630   1.761  11.010  0.3402  0.0378  0.1647
15769TIP3    H168722   5.611   1.852  11.033 -1.1040 -0.2190  0.0218
15769TIP3    H268723   5.660   1.721  11.092  3.0230  1.1600 -0.2327
15770TIP3   OH268724   5.265   5.621   3.214 -0.0491  0.0536  0.4761
15770TIP3    H168725   5.207   5.695   3.193  0.0070  0.0735  0.3931
15770TIP3    H268726   5.207   5.544   3.210  0.2078 -0.0787 -0.9261
15771TIP3   OH268727   4.216   4.392   5.247  0.1323 -0.4529 -0.3293
15771TIP3    H168728   4.231   4.414   5.155  0.4123  2.3463  0.3385
15771TIP3    H268729   4.267   4.456   5.296 -3.5344  0.9937  1.8323
15772TIP3   OH268730   2.680   1.359  12.002 -0.2140  0.5756  0.1110
15772TIP3    H168731   2.683   1.365  11.907  1.0467  0.5104  0.1401
15772TIP3    H268732   2.607   1.300  12.020  0.5551 -0.6914 -0.8655
15773TIP3   OH268733   5.243   0.229   4.707 -0.2133  0.3722 -0.7512
15773TIP3    H168734   5.213   0.319   4.699 -0.2496  0.6039  1.7477
15773TIP3    H268735   5.314   0.221   4.643  1.6869  3.0012  0.9649
15774TIP3   OH268736   0.166   6.450   2.078 -0.4807 -0.4368 -0.2154
15774TIP3    H168737   0.114   6.370   2.078 -0.8354 -0.2293  1.3499
15774TIP3    H268738   0.167   6.478   2.170  0.1859  0.9965 -0.6405
15775TIP3   OH268739   4.255   2.179   3.565  0.5303  0.6099  0.4127
15775TIP3    H168740   4.213   2.181   3.479  2.2095 -0.4186 -0.4623
15775TIP3    H268741   4.184   2.164   3.627 -0.2236 -2.6450 -1.1574
15776TIP3   OH268742   5.685   5.983  10.604 -0.4905 -0.2842 -0.5806
15776TIP3    H168743   5.685   5.892  10.634  0.8891  0.2047  1.0434
15776TIP3    H268744   5.778   6.007  10.600 -0.8603  1.5077  0.5495
15777TIP3   OH268745   0.075   2.880   4.451 -0.1305 -0.1317 -0.1741
15777TIP3    H168746   0.091   2.965   4.492 -0.4736 -0.9905  1.8227
15777TIP3    H268747   0.097   2.893   4.359  1.0488  1.7646  0.3442
15778TIP3   OH268748   6.155   1.138  12.986 -0.3369  0.7887 -0.9529
15778TIP3    H168749   6.190   1.152  13.074  1.3332  2.2206 -1.7979
15778TIP3    H268750   6.101   1.215  12.969 -0.6536  0.5173 -1.1676
15779TIP3   OH268751   3.725   2.289   1.649  0.1663  0.6780 -0.5561
15779TIP3    H168752   3.658   2.355   1.630 -0.2359  0.5239  0.2827
15779TIP3    H268753   3.751   2.308   1.740 -0.3860 -0.6889 -0.1101
15780TIP3   OH268754   2.516   1.278   0.494 -0.6621  0.2752 -0.5208
15780TIP3    H168755   2.497   1.289   0.587  0.5329  1.6659 -0.4271
15780TIP3    H268756   2.589   1.338   0.477  0.5584 -1.5321 -1.8829
15781TIP3   OH268757   0.039   2.271  16.348  0.0868 -0.1553  0.2625
15781TIP3    H168758  -0.037   2.214  16.336 -0.2381  0.4151 -0.3849
15781TIP3    H268759   0.106   2.213  16.387  0.3788 -1.4729 -2.0741
15782TIP3   OH268760   3.469   2.172  11.442 -0.5442 -0.2337 -0.8290
15782TIP3    H168761   3.450   2.239  11.508 -1.6013  1.1527 -2.5148
15782TIP3    H268762   3.385   2.129  11.427 -0.2433 -0.7361 -1.0839
15783TIP3   OH268763   0.733   2.845  15.061 -0.9805  0.3924  0.3125
15783TIP3    H168764   0.825   2.870  15.069 -1.1096  0.9027  0.1990
15783TIP3    H268765   0.718   2.785  15.134  0.1377 -1.7693 -1.1949
15784TIP3   OH268766   0.364   4.154   1.640 -0.0666 -0.1918 -0.1885
15784TIP3    H168767   0.417   4.201   1.576  1.5312 -0.2907  1.0126
15784TIP3    H268768   0.337   4.074   1.596 -0.5087  0.5857 -1.3377
15785TIP3   OH268769   6.036   0.088  15.057 -0.1375 -0.3861 -0.4016
15785TIP3    H168770   5.968   0.118  14.997  1.1580  1.4266 -0.9705
15785TIP3    H268771   6.006   0.118  15.143 -0.1710  0.2108 -0.6194
15786TIP3   OH268772   3.203   2.707   4.544  0.0693 -0.0989 -0.1571
15786TIP3    H168773   3.242   2.661   4.618 -1.7012 -1.6328 -0.1349
15786TIP3    H268774   3.159   2.783   4.583 -0.0842 -0.4046  0.2680
15787TIP3   OH268775   3.387   5.609  13.147 -0.2008  0.5738 -0.4685
15787TIP3    H168776   3.319   5.648  13.092 -0.9229 -0.4782 -0.3349
15787TIP3    H268777   3.379   5.655  13.231 -0.4844  0.7221 -0.5773
15788TIP3   OH268778   2.236   3.393  16.250 -0.1476  0.0161 -0.9889
15788TIP3    H168779   2.145   3.377  16.226 -0.7268  1.3701  0.2217
15788TIP3    H268780   2.234   3.406  16.345  1.2619  0.3183 -0.9877
15789TIP3   OH268781   6.703   0.710  14.095 -0.0576  0.0377 -0.2261
15789TIP3    H168782   6.783   0.743  14.137 -0.5070  1.0624 -0.1435
15789TIP3    H268783   6.667   0.786  14.049 -1.7119 -0.0407  0.8736
15790TIP3   OH268784   4.613   3.806   4.536 -0.1278  0.4197 -0.3067
15790TIP3    H168785   4.581   3.885   4.581  1.7959  0.5360  0.9276
15790TIP3    H268786   4.669   3.763   4.601 -1.8405 -2.4259 -0.6862
15791TIP3   OH268787   0.992   0.856  12.864 -0.3214 -0.4559  0.1067
15791TIP3    H168788   0.905   0.827  12.837 -0.0655 -1.2692  0.1415
15791TIP3    H268789   1.017   0.796  12.934  0.6082 -0.7261 -0.4579
15792TIP3   OH268790   2.827   0.580  11.995 -0.4628  0.0434 -0.2279
15792TIP3    H168791   2.845   0.653  11.936 -2.1411  0.1263 -0.6651
15792TIP3    H268792   2.824   0.620  12.082  0.3342  0.2089 -0.2765
15793TIP3   OH268793   4.002   4.928  15.343  0.1227  0.1862  0.8512
15793TIP3    H168794   4.078   4.897  15.294  1.1954 -2.6122  4.0851
15793TIP3    H268795   4.036   5.000  15.397  0.6537 -1.4037  2.6804
15794TIP3   OH268796   1.020   4.090  15.143 -0.4947  0.5075  0.1335
15794TIP3    H168797   1.111   4.061  15.133 -0.4616  0.6520  0.0109
15794TIP3    H268798   0.990   4.047  15.223  0.9131  3.4976  2.3656
15795TIP3   OH268799   5.462   0.337   4.149  0.8983  0.5693 -0.3963
15795TIP3    H168800   5.428   0.412   4.197  3.0371  2.6229 -2.0039
15795TIP3    H268801   5.449   0.359   4.057  1.5995 -1.0093 -0.8912
15796TIP3   OH268802   4.993   6.267  10.736 -0.0669  0.0371 -0.5973
15796TIP3    H168803   4.952   6.183  10.713  0.0424 -0.3346  0.5440
15796TIP3    H268804   5.087   6.250  10.732 -0.0194 -0.6009  2.0293
15797TIP3   OH268805   1.694   0.731  13.173  0.3348  0.2417  0.3825
15797TIP3    H168806   1.637   0.797  13.211  1.7654  1.5149  0.3517
15797TIP3    H268807   1.687   0.656  13.233 -0.4421  0.8165  1.0147
15798TIP3   OH268808   3.963   5.132  16.281 -0.3207  0.3499 -0.5383
15798TIP3    H168809   3.929   5.218  16.307 -1.2476  0.0837 -0.8562
15798TIP3    H268810   4.056   5.135  16.306 -0.3584  1.4170 -0.4778
15799TIP3   OH268811   1.525   4.614  11.244  0.3580 -0.4803 -0.2433
15799TIP3    H168812   1.485   4.631  11.159  0.5094  3.3316  0.3469
15799TIP3    H268813   1.456   4.574  11.296 -0.3485 -0.9620 -1.5357
15800TIP3   OH268814   6.752   6.272   2.057  0.3169  0.3772  0.0966
15800TIP3    H168815   6.695   6.349   2.051 -0.5240 -0.1549  1.2178
15800TIP3    H268816   6.715   6.210   1.994 -0.3057  0.0540  0.7818
15801TIP3   OH268817   3.783   3.331   3.661 -0.2434 -0.4411 -0.0645
15801TIP3    H168818   3.728   3.399   3.699  1.4560 -0.4320  2.4686
15801TIP3    H268819   3.805   3.364   3.574 -1.4209  1.1180  0.2186
15802TIP3   OH268820   2.204   2.996  13.081 -0.1434  0.2051 -0.1266
15802TIP3    H168821   2.260   2.941  13.137 -0.4124  0.7624  0.6945
15802TIP3    H268822   2.215   3.084  13.116 -1.4600  0.3358 -0.0433
15803TIP3   OH268823   2.526   4.396   1.380  0.0561  0.2966 -0.3002
15803TIP3    H168824   2.512   4.466   1.317  1.7801  0.7713 -0.1776
15803TIP3    H268825   2.463   4.413   1.449 -2.2418 -0.5435 -2.1356
15804TIP3   OH268826   6.007   0.128   6.382  0.3418  0.1577  0.4420
15804TIP3    H168827   6.075   0.184   6.419  0.9379 -0.0136 -0.3792
15804TIP3    H268828   5.950   0.187   6.334  1.6056 -0.0380 -1.3784
15805TIP3   OH268829   5.612   0.809  17.083 -0.7885  0.0586 -1.0235
15805TIP3    H168830   5.559   0.884  17.055  0.0748  0.0452 -2.7800
15805TIP3    H268831   5.698   0.826  17.044  0.3197 -0.2377  1.2327
15806TIP3   OH268832   1.551   2.491   5.240 -0.0816  0.4286  0.3469
15806TIP3    H168833   1.465   2.522   5.211 -0.0214  1.4933  1.2446
15806TIP3    H268834   1.542   2.481   5.335  0.8556  0.8440  0.4901
15807TIP3   OH268835   1.036   4.418  12.202  0.1640  0.0828  0.2210
15807TIP3    H168836   0.998   4.494  12.158  0.1812 -0.2775 -0.4168
15807TIP3    H268837   0.965   4.354  12.207  0.1410  0.1435  0.7858
15808TIP3   OH268838   6.171   5.904   4.280  0.6902  0.8529  0.0874
15808TIP3    H168839   6.176   5.812   4.256  0.9472  0.9248 -0.1450
15808TIP3    H268840   6.199   5.908   4.371 -1.6590  0.3928  0.8486
15809TIP3   OH268841   1.118   5.635  11.597 -0.0405 -0.2039  0.3920
15809TIP3    H168842   1.112   5.671  11.509 -1.5493  0.0806  0.5983
15809TIP3    H268843   1.079   5.548  11.591  0.6302 -0.5231  0.6002
15810TIP3   OH268844   5.011   3.630   6.210  0.6692 -0.2112  0.0201
15810TIP3    H168845   5.060   3.567   6.263 -0.1791 -1.2514 -0.4414
15810TIP3    H268846   4.924   3.592   6.200  0.4165  0.6152 -1.0134
15811TIP3   OH268847   0.166   4.746  15.775  0.1410 -0.0515  0.1086
15811TIP3    H168848   0.162   4.815  15.709 -2.8877  0.2472  0.5265
15811TIP3    H268849   0.125   4.670  15.734  1.0137 -0.8084  0.5998
15812TIP3   OH268850   6.706   6.547  13.243  0.5325  0.3185  0.6797
15812TIP3    H168851   6.708   6.556  13.338 -0.1380  1.2153  0.6149
15812TIP3    H268852   6.719   6.635  13.210  1.8656 -0.1489 -0.0862
15813TIP3   OH268853   0.668   1.805   1.846  0.4268  0.3997 -1.0175
15813TIP3    H168854   0.679   1.896   1.874  1.2887  0.2926 -0.9858
15813TIP3    H268855   0.748   1.761   1.876 -0.4573 -0.6039 -0.1003
15814TIP3   OH268856   5.723   0.678   1.677  0.2418  0.0853 -0.2536
15814TIP3    H168857   5.727   0.586   1.651 -2.2446 -0.1388  0.0243
15814TIP3    H268858   5.799   0.719   1.635  0.6648 -1.8320 -1.3867
15815TIP3   OH268859   1.376   5.392   3.753 -0.4418  0.8909  0.8060
15815TIP3    H168860   1.457   5.354   3.787 -1.2927  0.3667  2.2902
15815TIP3    H268861   1.386   5.387   3.658  0.1917 -1.5658  0.9523
15816TIP3   OH268862   5.823   3.206   1.383  0.7190  0.4785 -0.6498
15816TIP3    H168863   5.801   3.212   1.476 -0.1368  0.8322 -0.8650
15816TIP3    H268864   5.902   3.259   1.374  0.8905  0.3203 -0.0946
15817TIP3   OH268865   5.340   3.817  14.128  0.2241 -0.0226  0.0421
15817TIP3    H168866   5.276   3.758  14.170 -0.6683  0.4910 -0.5910
15817TIP3    H268867   5.372   3.767  14.053 -1.1732  0.6118 -0.9984
15818TIP3   OH268868   3.321   4.747  13.620  0.3619  0.4499 -0.0068
15818TIP3    H168869   3.390   4.747  13.687  0.8812  0.8842 -0.5236
15818TIP3    H268870   3.295   4.656  13.611  1.2965  0.1976 -0.2247
15819TIP3   OH268871   1.674   6.662   2.671 -0.0943  0.2638  0.3163
15819TIP3    H168872   1.648   6.704   2.753  1.5872  1.1570  0.4164
15819TIP3    H268873   1.621   6.705   2.604 -1.4139 -0.4109  0.9181
15820TIP3   OH268874   2.575   5.790  14.206  0.0559  0.5930 -0.1951
15820TIP3    H168875   2.607   5.835  14.284  1.6466  0.0784 -0.5358
15820TIP3    H268876   2.506   5.848  14.172  1.1162  2.0836  0.1503
15821TIP3   OH268877   3.649   0.746  13.641 -0.2041  0.1427 -0.1022
15821TIP3    H168878   3.684   0.781  13.723 -0.3009 -0.5554  0.2449
15821TIP3    H268879   3.623   0.656  13.662  0.0167 -0.1341 -0.9621
15822TIP3   OH268880   5.672   3.001   4.191 -0.1963 -0.0181  0.3622
15822TIP3    H168881   5.653   2.918   4.147 -0.7831 -0.3196  1.1720
15822TIP3    H268882   5.713   2.976   4.274 -3.2362  0.3659  2.0412
15823TIP3   OH268883   3.538   3.855  12.146 -0.9441  0.5390 -0.1117
15823TIP3    H168884   3.512   3.944  12.124 -0.2947  1.0848  1.2826
15823TIP3    H268885   3.459   3.803  12.133 -0.5714  0.7499 -3.9153
15824TIP3   OH268886   5.898   3.939  13.285 -0.5806 -0.6511 -0.0916
15824TIP3    H168887   5.822   3.917  13.339 -2.3133  2.2315 -1.2314
15824TIP3    H268888   5.973   3.912  13.338 -2.2549  0.3363  2.9606
15825TIP3   OH268889   1.365   6.521   4.920 -0.1315  0.1435 -0.3561
15825TIP3    H168890   1.335   6.472   4.843  0.3791  2.3734 -2.0281
15825TIP3    H268891   1.459   6.503   4.924 -0.3686 -0.9424  0.4854
15826TIP3   OH268892   4.833   0.348  15.272 -0.3936 -0.2738  0.2875
15826TIP3    H168893   4.829   0.427  15.219  1.4876 -1.2220 -1.3382
15826TIP3    H268894   4.812   0.277  15.211 -0.9367 -1.1405  1.4608
15827TIP3   OH268895   5.655   4.883  17.219  0.2284  0.5366 -0.6585
15827TIP3    H168896   5.639   4.790  17.209 -0.2251  0.0861  3.4585
15827TIP3    H268897   5.585   4.926  17.171 -1.9800 -1.3234  0.8302
15828TIP3   OH268898   5.155   4.188   6.081 -0.2102  0.1925 -0.3158
15828TIP3    H168899   5.107   4.238   6.147 -0.6733 -1.1292  0.3563
15828TIP3    H268900   5.241   4.172   6.121 -0.8468 -1.5009  0.4026
15829TIP3   OH268901   2.883   3.260   0.013  0.0371  0.4204  0.1819
15829TIP3    H168902   2.961   3.206   0.021 -0.5694 -0.5250 -0.2892
15829TIP3    H268903   2.888   3.296  -0.076  0.5617  1.3462  0.5741
15830TIP3   OH268904   2.913   2.448  16.366 -0.9897 -1.1778 -0.4204
15830TIP3    H168905   2.998   2.483  16.392 -2.1712  0.4365  1.3438
15830TIP3    H268906   2.925   2.353  16.369  0.5520 -0.9743  0.5167
15831TIP3   OH268907   4.299   0.051  15.590 -0.5431  0.5159  0.4574
15831TIP3    H168908   4.298   0.061  15.495 -1.2933  2.2492  0.6321
15831TIP3    H268909   4.278  -0.041  15.604  1.1436 -0.1448 -1.0852
15832TIP3   OH268910   4.895   1.126   4.574 -0.3513  0.1915  0.7353
15832TIP3    H168911   4.918   1.109   4.666 -0.0359 -0.0033  0.6224
15832TIP3    H268912   4.888   1.039   4.535 -2.4658  0.2039  1.0405
15833TIP3   OH268913   5.462   1.173   0.336 -0.4837 -0.3291 -0.1741
15833TIP3    H168914   5.447   1.119   0.414 -1.1934  1.7436  1.1521
15833TIP3    H268915   5.379   1.218   0.322 -0.0770 -0.0102 -1.6365
15834TIP3   OH268916   2.958   5.832   3.354  0.2771  0.2027  0.1228
15834TIP3    H168917   2.917   5.767   3.410 -0.0606  0.9758  0.7868
15834TIP3    H268918   2.912   5.825   3.271 -0.2323  0.0824  0.4131
15835TIP3   OH268919   0.728   6.547  12.165  0.5888 -0.6243 -0.1030
15835TIP3    H168920   0.737   6.523  12.258 -0.1578 -1.7089 -0.3042
15835TIP3    H268921   0.634   6.543  12.149  0.7554 -0.8765 -1.0218
15836TIP3   OH268922   0.704   0.910  14.456 -0.4943  0.2141 -0.9190
15836TIP3    H168923   0.721   0.901  14.549 -0.1792 -0.5873 -1.0568
15836TIP3    H268924   0.610   0.894  14.446 -0.6019  0.7003 -0.6891
15837TIP3   OH268925   4.232   1.560  15.895 -0.1271  0.7091  0.2891
15837TIP3    H168926   4.166   1.592  15.955 -0.0789  3.0025 -0.8533
15837TIP3    H268927   4.186   1.547  15.812  0.3144 -0.2092  0.1696
15838TIP3   OH268928   0.484   4.448   1.101 -0.1623 -0.4077 -0.0667
15838TIP3    H168929   0.405   4.399   1.125 -1.1466  0.6226 -1.1304
15838TIP3    H268930   0.548   4.381   1.077 -0.5084 -1.2798  1.3906
15839TIP3   OH268931   1.116   3.328   2.494 -0.8195  0.1578 -0.2495
15839TIP3    H168932   1.062   3.253   2.470 -1.4961  1.1636 -1.9317
15839TIP3    H268933   1.055   3.388   2.539  0.2151 -1.2721  3.2004
15840TIP3   OH268934   4.112   5.408  11.839 -0.0124 -0.2700 -0.5044
15840TIP3    H168935   4.144   5.491  11.873  2.0351 -0.8151 -1.0542
15840TIP3    H268936   4.017   5.419  11.835  0.2487  2.1392 -0.8470
15841TIP3   OH268937   5.991   4.816   5.084  0.0895 -0.4566  0.6191
15841TIP3    H168938   6.034   4.817   4.999 -0.5256  0.8205  0.3092
15841TIP3    H268939   6.012   4.901   5.123 -3.2368  0.7819 -0.1148
15842TIP3   OH268940   2.292   5.410   4.889  0.8321 -0.4076 -0.0514
15842TIP3    H168941   2.247   5.416   4.805  2.4344 -2.4276 -1.1207
15842TIP3    H268942   2.229   5.440   4.953 -1.0122 -0.4294 -1.8138
15843TIP3   OH268943   6.436   3.108   1.605 -0.0197 -0.2078 -0.2586
15843TIP3    H168944   6.519   3.142   1.639 -1.4115  2.0007  1.0344
15843TIP3    H268945   6.428   3.021   1.644 -0.2267  1.1625  2.8732
15844TIP3   OH268946   6.280   6.256  16.621 -0.2465  0.6245  0.6244
15844TIP3    H168947   6.276   6.178  16.676  0.4388  1.6470  2.1588
15844TIP3    H268948   6.189   6.275  16.599 -0.2702 -1.9051 -1.6707
15845TIP3   OH268949   0.361   5.104  10.484 -0.2475  0.4766 -0.7464
15845TIP3    H168950   0.323   5.180  10.441 -1.1252  0.3399 -0.2224
15845TIP3    H268951   0.446   5.093  10.443 -0.4716  1.2320 -1.4153
15846TIP3   OH268952   1.471   6.569  16.685  0.3652 -0.4809  0.5289
15846TIP3    H168953   1.513   6.619  16.755 -0.7133  0.6855  0.3666
15846TIP3    H268954   1.533   6.573  16.612  0.2228  0.7470  0.4677
15847TIP3   OH268955   3.163   4.259  15.069 -0.8326  0.0048  0.0773
15847TIP3    H168956   3.254   4.281  15.085 -0.5049 -0.9167 -0.4882
15847TIP3    H268957   3.124   4.250  15.156 -0.1565 -0.5317  0.3221
15848TIP3   OH268958   1.962   6.129   4.235 -0.7392 -0.2981 -0.1345
15848TIP3    H168959   2.031   6.159   4.176 -0.8659 -1.7550 -1.0372
15848TIP3    H268960   2.007   6.116   4.319 -0.0275 -0.6846 -0.5686
15849TIP3   OH268961   4.894   0.439   1.517 -0.5253 -0.1770 -0.4070
15849TIP3    H168962   4.802   0.459   1.499 -0.7838  0.4646  1.5065
15849TIP3    H268963   4.907   0.353   1.478 -1.3068  0.6470 -2.6365
15850TIP3   OH268964   4.111   6.637   3.968 -0.6681  0.8845 -0.3034
15850TIP3    H168965   4.193   6.663   3.927 -0.1375 -1.8703 -1.0788
15850TIP3    H268966   4.118   6.668   4.058  2.2821 -1.3829  0.3283
15851TIP3   OH268967   0.067   0.655  13.849 -0.2347 -0.2548  0.3400
15851TIP3    H168968   0.141   0.715  13.857  0.2647 -0.7518 -0.5028
15851TIP3    H268969   0.035   0.644  13.938 -1.0111  2.1025  0.4180
15852TIP3   OH268970   2.311   5.666   2.742 -0.4436  0.0570 -0.7440
15852TIP3    H168971   2.310   5.583   2.791 -1.7358 -2.2532 -4.4523
15852TIP3    H268972   2.232   5.711   2.771  0.5410  0.3093  1.7072
15853TIP3   OH268973   4.402   6.055  11.580  0.0669 -0.0604  0.9481
15853TIP3    H168974   4.424   6.142  11.613 -2.1405  1.1273 -0.5414
15853TIP3    H268975   4.361   6.071  11.495 -0.6159 -2.5412  0.7608
15854TIP3   OH268976   4.414   3.037  12.801  0.3212  0.3264  0.2980
15854TIP3    H168977   4.324   3.010  12.817  0.8506 -0.3497  2.3008
15854TIP3    H268978   4.453   2.965  12.752 -0.3117  0.7877 -0.9022
15855TIP3   OH268979   3.445   6.736   2.281 -0.1043  0.1397 -0.1255
15855TIP3    H168980   3.411   6.802   2.221 -0.0190  1.0939  0.8651
15855TIP3    H268981   3.525   6.775   2.316  0.5687 -0.9674 -0.3998
15856TIP3   OH268982   5.385   6.060  15.105 -0.3213  0.1400 -0.6570
15856TIP3    H168983   5.432   6.134  15.067  0.2051  0.1509  0.0206
15856TIP3    H268984   5.434   5.983  15.075 -0.5335  0.0900 -0.8833
15857TIP3   OH268985   4.552   0.900   5.540 -0.2291  0.1473  0.1976
15857TIP3    H168986   4.558   0.806   5.561 -2.4013  0.3624  1.9666
15857TIP3    H268987   4.462   0.911   5.507 -0.0025  1.6341  0.0552
15858TIP3   OH268988   6.585   0.215  12.287 -0.3477  0.1795  0.1379
15858TIP3    H168989   6.597   0.276  12.214 -1.6031 -0.5305 -0.6772
15858TIP3    H268990   6.517   0.254  12.341 -2.2747 -1.2099 -1.2130
15859TIP3   OH268991   0.543   4.220   0.258  1.0463 -0.4373  0.1989
15859TIP3    H168992   0.520   4.195   0.168  1.5995  0.1382 -0.1076
15859TIP3    H268993   0.523   4.142   0.310 -0.8283 -0.2396 -0.1754
15860TIP3   OH268994   5.107   5.352  10.718  0.1935  0.2840 -0.3084
15860TIP3    H168995   5.150   5.351  10.633  0.0478  2.4840 -0.4370
15860TIP3    H268996   5.035   5.290  10.710 -0.9632  1.8604 -2.4095
15861TIP3   OH268997   3.967   2.271  14.018  0.4365  0.3846  0.1725
15861TIP3    H168998   3.992   2.350  13.971 -0.4672 -0.1673 -1.2747
15861TIP3    H268999   3.962   2.203  13.951  0.5050 -0.7490  1.2842
15862TIP3   OH269000   5.361   2.514   3.338 -0.6018 -0.4138 -0.3711
15862TIP3    H169001   5.346   2.486   3.429  1.6891  0.8388  0.4522
15862TIP3    H269002   5.312   2.596   3.330 -0.1973 -0.1304 -0.0057
15863TIP3   OH269003   2.520   5.050   5.612  0.4451 -0.0037  0.3008
15863TIP3    H169004   2.536   5.002   5.530 -0.4245 -0.1304  0.1936
15863TIP3    H269005   2.530   5.142   5.588  3.2585 -0.1644  0.7705
15864TIP3   OH269006   2.087   6.327  12.111  0.4880  0.5238 -0.1766
15864TIP3    H169007   2.004   6.370  12.129  0.5560  0.4292  0.3692
15864TIP3    H269008   2.109   6.282  12.192  0.9404  0.3299 -0.4034
15865TIP3   OH269009   0.709   5.087   3.650  0.7492  0.4651 -0.7343
15865TIP3    H169010   0.653   5.019   3.687  1.7220  0.8153  1.4298
15865TIP3    H269011   0.786   5.040   3.619  0.2297  0.2629 -1.7662
15866TIP3   OH269012   5.412   2.366  12.853  0.1936  0.3673  0.0260
15866TIP3    H169013   5.357   2.442  12.870 -3.2474 -2.1145  0.5568
15866TIP3    H269014   5.372   2.295  12.905  2.1837 -2.2304 -1.8465
15867TIP3   OH269015   3.233   3.415  17.144 -0.3338  0.3226  0.1947
15867TIP3    H169016   3.298   3.356  17.107 -0.8545 -0.5139  0.5804
15867TIP3    H269017   3.188   3.453  17.069  1.8390  2.3609 -0.1366
15868TIP3   OH269018   0.746   0.234   3.921  0.0543 -0.0695  0.6807
15868TIP3    H169019   0.725   0.225   4.015  1.0376 -0.1398  0.8947
15868TIP3    H269020   0.812   0.303   3.918 -0.6063  0.5352 -0.0541
15869TIP3   OH269021   1.020   3.773   0.845 -0.2295 -0.1104  0.8098
15869TIP3    H169022   0.936   3.742   0.812 -0.9718  1.6570  1.0064
15869TIP3    H269023   1.084   3.743   0.781 -1.1296 -0.5899  0.1324
15870TIP3   OH269024   0.871   2.444  15.394 -0.0736 -0.5661  0.0819
15870TIP3    H169025   0.824   2.366  15.422 -0.0776 -0.3543  0.6593
15870TIP3    H269026   0.891   2.491  15.475 -2.1756  1.2264 -0.3785
15871TIP3   OH269027   4.629   1.370   4.259  0.1763 -0.1388 -0.0713
15871TIP3    H169028   4.577   1.300   4.299 -0.4179  0.1328 -0.3586
15871TIP3    H269029   4.567   1.417   4.204  0.4944  0.8145  0.3716
15872TIP3   OH269030   4.693   6.267  11.053  0.5381 -0.4858  0.5155
15872TIP3    H169031   4.746   6.205  11.103  1.3491 -0.3651 -0.2018
15872TIP3    H269032   4.752   6.340  11.034  0.3407 -0.6925 -0.9325
15873TIP3   OH269033   4.666   3.002   4.663 -0.3256 -0.1795  0.1891
15873TIP3    H169034   4.723   2.947   4.718 -0.6023  1.9623  2.6723
15873TIP3    H269035   4.681   2.969   4.574  1.7535 -2.3089  1.2598
15874TIP3   OH269036   5.380   3.978   2.180  0.5453 -0.0188 -0.2193
15874TIP3    H169037   5.456   3.962   2.124 -1.3186 -0.9772 -2.5675
15874TIP3    H269038   5.382   3.906   2.243  1.0299 -0.6265 -0.9167
15875TIP3   OH269039   1.961   4.018   5.590 -0.2415  0.2859  0.1049
15875TIP3    H169040   1.962   4.095   5.647  0.2790 -0.5831  1.2871
15875TIP3    H269041   1.932   3.946   5.647  2.7627 -1.1256 -0.0355
15876TIP3   OH269042   3.559   1.495  15.279 -0.2374  0.1250 -0.1733
15876TIP3    H169043   3.520   1.469  15.362 -0.7891 -0.4366 -0.6032
15876TIP3    H269044   3.608   1.418  15.250 -0.4706  0.1417 -0.6162
15877TIP3   OH269045   4.295   4.134   0.655  0.3664 -0.0553 -0.5963
15877TIP3    H169046   4.336   4.160   0.738 -0.7763 -2.2400  0.7268
15877TIP3    H269047   4.299   4.212   0.600 -0.0471  1.8586  1.9938
15878TIP3   OH269048   3.377   6.273  15.494 -0.5235 -0.4628  0.6262
15878TIP3    H169049   3.373   6.358  15.450 -0.6947 -0.1988  1.1560
15878TIP3    H269050   3.294   6.231  15.473 -0.1438 -0.7993 -0.2365
15879TIP3   OH269051   4.979   2.375  14.632  0.1693  0.5432 -0.0344
15879TIP3    H169052   4.941   2.438  14.571 -0.9547  1.3678  1.5024
15879TIP3    H269053   4.910   2.357  14.695  0.8852 -1.3154  0.2477
15880TIP3   OH269054   5.488   5.998  12.554  0.4030 -0.0381 -0.3414
15880TIP3    H169055   5.452   5.919  12.514  0.1218 -0.5609  0.9359
15880TIP3    H269056   5.579   6.000  12.525 -0.2532  0.5644 -2.4730
15881TIP3   OH269057   2.029   4.681   0.930  0.4552 -0.2510  0.2042
15881TIP3    H169058   2.041   4.774   0.913 -1.1613  0.0602  0.7035
15881TIP3    H269059   2.086   4.637   0.867  1.8733  1.0883  0.5361
15882TIP3   OH269060   3.913   4.557  16.109  0.4199  0.5396 -0.0327
15882TIP3    H169061   3.880   4.506  16.035 -2.7839 -1.7651  2.8488
15882TIP3    H269062   3.841   4.616  16.132  1.1477  0.8234  1.5930
15883TIP3   OH269063   5.485   5.836  15.703 -0.2224 -0.4366 -0.0531
15883TIP3    H169064   5.565   5.883  15.727 -0.0777 -0.1800 -0.9939
15883TIP3    H269065   5.506   5.744  15.716  0.4810 -0.4217 -0.9872
15884TIP3   OH269066   0.544   4.014  12.621  0.2741 -0.5249 -0.2427
15884TIP3    H169067   0.637   4.007  12.601  0.1721 -1.7970 -0.2732
15884TIP3    H269068   0.540   4.074  12.696  1.0846 -0.2400 -0.4274
15885TIP3   OH269069   3.668   1.406  12.181 -0.2940 -0.5728  0.5615
15885TIP3    H169070   3.722   1.421  12.259  0.4803  0.5515 -0.1741
15885TIP3    H269071   3.583   1.444  12.204 -1.0826 -3.1122  2.0476
15886TIP3   OH269072   0.909   5.839  11.808  0.1237 -0.3100 -0.3732
15886TIP3    H169073   0.814   5.825  11.803 -0.7262  2.7143  3.7249
15886TIP3    H269074   0.923   5.919  11.757  0.6178 -1.2641 -1.7308
15887TIP3   OH269075   3.964   3.260   3.944  0.3293 -0.2098 -0.6133
15887TIP3    H169076   3.923   3.285   4.027  0.6725 -4.2687  0.9049
15887TIP3    H269077   3.891   3.246   3.884 -0.0124  0.7446 -0.4382
15888TIP3   OH269078   5.685   2.477   3.623  0.1486 -0.4772  0.2202
15888TIP3    H169079   5.650   2.388   3.633  2.2022 -1.3045  0.2333
15888TIP3    H269080   5.725   2.478   3.536  1.6648 -0.1226  0.9048
15889TIP3   OH269081   2.813   3.508  13.799  0.0720 -0.6881 -0.9604
15889TIP3    H169082   2.876   3.579  13.813 -0.9926  0.3536 -1.3746
15889TIP3    H269083   2.839   3.469  13.716  0.8059 -0.9496 -0.6164
15890TIP3   OH269084   5.887   4.465  11.044  0.4246  0.2679  0.2560
15890TIP3    H169085   5.941   4.505  11.112  1.3826  0.1603 -0.4292
15890TIP3    H269086   5.912   4.511  10.964  1.5494 -1.6893 -0.5456
15891TIP3   OH269087   0.917   2.658   0.833  0.3268 -0.2382  0.4235
15891TIP3    H169088   0.890   2.611   0.911 -1.9435 -0.3079 -0.3601
15891TIP3    H269089   1.005   2.627   0.815 -0.7298 -3.4903  0.4993
15892TIP3   OH269090   2.066   5.919  11.399  0.3536  0.0834 -0.8450
15892TIP3    H169091   2.156   5.893  11.418  0.3449 -0.2237 -1.2170
15892TIP3    H269092   2.073   5.976  11.322  0.4423  1.7153  0.3469
15893TIP3   OH269093   0.722   6.780   3.083 -0.0709  0.8369 -0.2205
15893TIP3    H169094   0.792   6.737   3.035  0.9054  1.6577  0.4411
15893TIP3    H269095   0.724   6.740   3.170 -1.9656 -0.7928 -0.8891
15894TIP3   OH269096   3.484   3.065  15.652  0.0606 -0.7602 -0.2281
15894TIP3    H169097   3.521   3.097  15.570 -1.3984  2.0744  0.1570
15894TIP3    H269098   3.390   3.078  15.643 -0.1179 -0.3376  1.9226
15895TIP3   OH269099   0.726   2.747  16.234  0.1489  0.0131 -0.1933
15895TIP3    H169100   0.761   2.779  16.317  0.7118  2.0232 -1.1625
15895TIP3    H269101   0.654   2.807  16.213 -1.8697 -2.2080  0.2300
15896TIP3   OH269102   3.740   2.032  14.495 -0.3670 -0.1724 -0.3864
15896TIP3    H169103   3.757   2.033  14.589  0.6696  1.7191 -0.5763
15896TIP3    H269104   3.735   1.939  14.473 -1.3417 -0.6422  1.6495
15897TIP3   OH269105   3.319   0.320  14.126 -0.7380  0.0392  0.5562
15897TIP3    H169106   3.257   0.267  14.077  0.5277 -1.2894  0.3639
15897TIP3    H269107   3.316   0.406  14.084 -1.4263 -0.4049 -0.3071
15898TIP3   OH269108   0.403   3.604  15.408 -0.1763  0.4215 -0.1219
15898TIP3    H169109   0.353   3.639  15.334  0.0078  3.0913  0.9490
15898TIP3    H269110   0.350   3.626  15.485  1.1651  0.5467  0.7875
15899TIP3   OH269111   5.230   6.696  16.411 -0.3877  0.0565  0.3620
15899TIP3    H169112   5.228   6.676  16.504 -0.8125 -2.5196 -0.1652
15899TIP3    H269113   5.321   6.678  16.385 -0.9129 -1.7812 -0.2358
15900TIP3   OH269114   6.343   4.753   1.012 -0.0480 -0.1306 -0.0990
15900TIP3    H169115   6.344   4.787   0.923 -1.8666 -1.0083 -0.4756
15900TIP3    H269116   6.274   4.687   1.012  0.6567 -0.9045  1.6836
15901TIP3   OH269117   6.064   1.337   4.733 -0.2774  0.4821 -0.3098
15901TIP3    H169118   6.153   1.306   4.753  0.0415  0.9735 -0.9497
15901TIP3    H269119   6.066   1.431   4.752 -0.2425  0.7728 -1.6938
15902TIP3   OH269120   5.601   4.081  13.115 -0.1542  0.7597 -0.4549
15902TIP3    H169121   5.563   4.041  13.037  0.7513 -1.0107 -0.0265
15902TIP3    H269122   5.696   4.068  13.105 -0.1886 -2.9578  2.6479
15903TIP3   OH269123   4.195   1.505  12.097 -0.7718 -0.0529  0.4036
15903TIP3    H169124   4.140   1.427  12.089 -0.0635 -0.6883  1.6959
15903TIP3    H269125   4.156   1.554  12.170 -0.8382  0.5131 -0.0041
15904TIP3   OH269126   5.267   3.317   3.622  0.1061 -0.0239 -0.0199
15904TIP3    H169127   5.230   3.279   3.542  0.3059  0.0669 -0.1568
15904TIP3    H269128   5.196   3.311   3.686  0.0778 -0.4676 -0.0880
15905TIP3   OH269129   5.255   6.369  16.514 -0.1255 -0.0784 -0.5632
15905TIP3    H169130   5.333   6.317  16.532  0.4234  0.4998 -1.2472
15905TIP3    H269131   5.266   6.447  16.569 -0.9040 -0.6460  0.3980
15906TIP3   OH269132   3.156   1.102   2.682 -0.1722  0.5242  0.0055
15906TIP3    H169133   3.155   1.014   2.719  0.2477  1.1499  1.5473
15906TIP3    H269134   3.064   1.130   2.684  0.0182  1.0985  1.9640
15907TIP3   OH269135   4.566   3.543  12.072  0.1235 -0.3107 -0.2120
15907TIP3    H169136   4.614   3.580  12.146  0.9569 -1.6213 -0.0746
15907TIP3    H269137   4.521   3.617  12.033  1.1843  0.7249  0.4873
15908TIP3   OH269138   3.183   3.942  13.688  0.7429  0.4655 -0.3178
15908TIP3    H169139   3.165   4.029  13.654  2.8395  0.6118 -1.1621
15908TIP3    H269140   3.126   3.933  13.764  0.6913  2.6865 -0.0634
15909TIP3   OH269141   2.718   6.245  12.276 -0.1960 -0.1013  0.0729
15909TIP3    H169142   2.697   6.190  12.200 -1.7697  0.5971 -0.0287
15909TIP3    H269143   2.664   6.208  12.346 -1.5008  1.4698 -0.0741
15910TIP3   OH269144   4.169   2.428  10.855  0.1974 -0.0320 -0.4646
15910TIP3    H169145   4.230   2.355  10.841 -0.4152 -0.4848 -0.7843
15910TIP3    H269146   4.164   2.471  10.769  0.6533  0.4617 -0.2447
15911TIP3   OH269147   0.857   6.137  13.471 -0.3202  0.6317 -0.5281
15911TIP3    H169148   0.901   6.073  13.526  0.8761  1.1251 -0.9120
15911TIP3    H269149   0.767   6.104  13.463  0.1635 -0.7396 -0.3400
15912TIP3   OH269150   0.166   0.828   4.549 -0.0956  0.3561 -0.2095
15912TIP3    H169151   0.150   0.736   4.524  0.5694 -0.3121  1.7683
15912TIP3    H269152   0.247   0.851   4.504  0.6299 -0.5592  0.6068
15913TIP3   OH269153   4.111   6.216  13.332 -0.0259 -0.1776 -0.0019
15913TIP3    H169154   4.063   6.209  13.250 -1.0487  2.2326  0.3595
15913TIP3    H269155   4.066   6.284  13.381  1.7655 -0.1966  1.7464
15914TIP3   OH269156   2.906   3.177   1.803 -0.4442  0.0419 -0.0832
15914TIP3    H169157   2.969   3.104   1.808  0.1671  0.5875  0.3483
15914TIP3    H269158   2.899   3.196   1.710  1.1176  0.8878 -0.0528
15915TIP3   OH269159   2.740   6.543  12.462  0.0518 -0.6721  0.3584
15915TIP3    H169160   2.668   6.487  12.433 -0.2194 -0.3271  0.3680
15915TIP3    H269161   2.806   6.535  12.393  0.3084 -1.5522  0.6895
15916TIP3   OH269162   6.584   4.574   2.974 -0.6762  0.2754 -0.2280
15916TIP3    H169163   6.543   4.518   2.908 -2.7457  0.4226  0.9008
15916TIP3    H269164   6.546   4.660   2.961  0.5010  0.8141 -0.2061
15917TIP3   OH269165   2.338   6.748  13.523 -1.0152 -0.5884  0.2757
15917TIP3    H169166   2.331   6.842  13.540  0.2827 -0.5214  0.4824
15917TIP3    H269167   2.254   6.725  13.483 -0.7145  1.0012 -1.3389
15918TIP3   OH269168   1.877   1.330   2.048 -0.3895  0.1768  0.1011
15918TIP3    H169169   1.894   1.240   2.023  0.2897  0.1967  0.4680
15918TIP3    H269170   1.959   1.376   2.031 -1.2390  1.0931 -1.6974
15919TIP3   OH269171   4.402   5.742   3.334 -0.1602  0.5631 -0.4875
15919TIP3    H169172   4.472   5.694   3.379 -1.7841  1.9921  3.7794
15919TIP3    H269173   4.414   5.833   3.361 -1.4996  1.4228 -2.6571
15920TIP3   OH269174   1.499   4.401   4.221 -1.0004 -0.3026 -0.3130
15920TIP3    H169175   1.565   4.468   4.204  0.0167 -0.7866  1.4920
15920TIP3    H269176   1.415   4.446   4.214 -0.5024  0.3249 -2.6285
15921TIP3   OH269177   4.484   6.213   5.726  0.0031 -0.3384  0.2070
15921TIP3    H169178   4.476   6.175   5.813 -0.5298 -1.9668 -0.5259
15921TIP3    H269179   4.446   6.300   5.734  0.5633 -0.2139  1.7482
15922TIP3   OH269180   2.502   2.196  14.005 -0.2004 -0.1034  0.3240
15922TIP3    H169181   2.583   2.147  13.990 -0.1324 -0.0339  0.4706
15922TIP3    H269182   2.483   2.238  13.921 -1.2070 -1.8065 -0.3343
15923TIP3   OH269183   1.151   0.698  13.513  0.6674 -0.6962  0.1625
15923TIP3    H169184   1.247   0.695  13.508  0.7277  1.4473 -0.5008
15923TIP3    H269185   1.132   0.675  13.604  1.8867 -0.0626  0.5961
15924TIP3   OH269186   1.533   4.381   4.626  0.3359  0.3349  0.2882
15924TIP3    H169187   1.509   4.459   4.576 -0.7854  0.0049  0.3102
15924TIP3    H269188   1.450   4.339   4.647  0.9947 -2.0464 -1.5983
15925TIP3   OH269189   2.615   6.663  11.108 -0.4501 -0.0758 -0.0718
15925TIP3    H169190   2.657   6.737  11.153 -1.2279  0.6080 -0.4693
15925TIP3    H269191   2.622   6.685  11.015 -2.4711  0.4676 -0.1035
15926TIP3   OH269192   2.082   5.187  15.223  0.6525  0.0218  0.5582
15926TIP3    H169193   2.070   5.277  15.193 -0.9111  0.0379  1.1533
15926TIP3    H269194   2.153   5.192  15.287  3.4878  0.1006 -2.5256
15927TIP3   OH269195   2.159   4.588   6.546 -0.1043 -0.5303  1.0598
15927TIP3    H169196   2.107   4.600   6.466  1.5879 -0.2795 -0.0227
15927TIP3    H269197   2.216   4.514   6.527  1.3252  0.4489  1.4917
15928TIP3   OH269198   5.515   5.968  14.109  0.1182 -0.5254 -0.4063
15928TIP3    H169199   5.461   6.018  14.172 -0.1796  0.6133 -1.5402
15928TIP3    H269200   5.604   5.980  14.140 -0.0698 -0.3938  0.1011
15929TIP3   OH269201   2.264   0.279   0.268 -0.0494  0.1918 -0.3585
15929TIP3    H169202   2.329   0.266   0.337  1.9112 -0.8315 -2.3463
15929TIP3    H269203   2.275   0.371   0.242  0.4858  0.0539 -0.6046
15930TIP3   OH269204   0.255   2.089  17.119  0.2805 -0.5182  0.4120
15930TIP3    H169205   0.290   2.125  17.201  0.4009  1.0784 -0.3213
15930TIP3    H269206   0.300   2.138  17.050 -0.5150 -1.1925 -0.6064
15931TIP3   OH269207   2.242   3.044   3.616 -0.0347  0.4985 -0.8206
15931TIP3    H169208   2.150   3.020   3.614 -0.5604  2.3183  0.5974
15931TIP3    H269209   2.260   3.080   3.529 -0.6359  0.1104 -1.1057
15932TIP3   OH269210   3.086   4.041   2.690  0.5366 -0.1348  0.2817
15932TIP3    H169211   3.034   4.090   2.753 -0.6927 -1.7204  0.5313
15932TIP3    H269212   3.034   4.041   2.610  0.0275 -1.9103  0.5910
15933TIP3   OH269213   6.541   5.138   4.669  0.6616 -0.1118  0.0432
15933TIP3    H169214   6.461   5.151   4.721  0.4021 -0.2706 -0.3137
15933TIP3    H269215   6.553   5.043   4.668  1.3499 -0.0304  0.8414
15934TIP3   OH269216   1.134   4.123  12.876 -0.2125  0.3345  0.1421
15934TIP3    H169217   1.126   4.137  12.782 -0.0547  0.1580  0.1000
15934TIP3    H269218   1.201   4.055  12.884 -0.5554  0.0198  0.3613
15935TIP3   OH269219   3.305   6.613  17.184 -0.0780  0.1226  0.0383
15935TIP3    H169220   3.300   6.636  17.276 -0.5002 -1.2317  0.3637
15935TIP3    H269221   3.346   6.527  17.182  1.7322  0.9812 -1.1698
15936TIP3   OH269222   4.390   5.018  14.943  0.3461 -1.0781 -0.1743
15936TIP3    H169223   4.314   4.961  14.943  0.1864 -0.8685 -1.1723
15936TIP3    H269224   4.453   4.975  14.885  0.2011 -0.2202 -0.9835
15937TIP3   OH269225   0.083   1.163   3.452  0.2328  0.9949 -0.1306
15937TIP3    H169226   0.078   1.256   3.476  0.4011  1.1246 -0.5756
15937TIP3    H269227   0.008   1.150   3.394  0.0523  0.7828  0.1496
15938TIP3   OH269228   2.507   1.835  12.167  0.1883  0.4237  0.1439
15938TIP3    H169229   2.519   1.904  12.102 -2.0214  1.4893  0.8120
15938TIP3    H269230   2.507   1.754  12.117 -0.8804  1.1977 -1.1351
15939TIP3   OH269231   2.743   5.901   3.965  0.1081  0.5681  0.4256
15939TIP3    H169232   2.671   5.942   3.918 -0.4188  0.0386  0.7680
15939TIP3    H269233   2.726   5.920   4.057 -1.0977 -1.8432  0.7654
15940TIP3   OH269234   4.164   6.002   6.330  0.3928 -0.9166 -0.2633
15940TIP3    H169235   4.139   5.987   6.239 -1.7206  0.1787  0.0997
15940TIP3    H269236   4.140   5.921   6.376  1.1200 -1.3295 -0.6127
15941TIP3   OH269237   1.828   4.073  16.275  0.3178  0.2602  0.2840
15941TIP3    H169238   1.819   4.002  16.339  1.7141 -0.1779  0.0239
15941TIP3    H269239   1.894   4.041  16.214  0.2193  1.3756 -0.4169
15942TIP3   OH269240   1.625   5.308   5.115 -0.0205  0.2202  0.3055
15942TIP3    H169241   1.554   5.347   5.166  0.2414 -1.8104  2.3270
15942TIP3    H269242   1.580   5.261   5.045 -0.5716  0.6864  0.3421
15943TIP3   OH269243   4.247   6.676   1.424  0.2513 -0.0518 -0.3689
15943TIP3    H169244   4.252   6.771   1.435 -0.9560  0.0348 -0.5943
15943TIP3    H269245   4.201   6.645   1.502  4.3587 -0.9213  1.8795
15944TIP3   OH269246   1.865   0.270   0.688 -0.0876 -0.3358 -0.3286
15944TIP3    H169247   1.929   0.341   0.685 -1.6367  1.1435  0.5307
15944TIP3    H269248   1.845   0.250   0.597  0.8392 -0.1068 -0.5792
15945TIP3   OH269249   1.474   4.921   0.107  0.1403 -0.5901  0.4227
15945TIP3    H169250   1.517   4.886   0.186 -0.8746 -0.6381  0.9632
15945TIP3    H269251   1.427   4.846   0.071  0.3174 -0.4804 -0.0377
15946TIP3   OH269252   2.221   4.593   0.710  0.2440  0.3600 -0.0201
15946TIP3    H169253   2.264   4.675   0.690 -0.0601  0.3542 -0.7083
15946TIP3    H269254   2.193   4.559   0.625  0.4407 -0.4917  0.2476
15947TIP3   OH269255   3.852   5.076  12.884  0.3327 -0.4306  0.1405
15947TIP3    H169256   3.903   5.045  12.810 -0.0796  0.9459 -0.7440
15947TIP3    H269257   3.764   5.042  12.869 -0.0594  0.9308 -0.6965
15948TIP3   OH269258   1.440   2.461   1.719  0.5631 -0.0488  0.4017
15948TIP3    H169259   1.361   2.515   1.723 -0.7010 -1.7844 -0.5959
15948TIP3    H269260   1.490   2.486   1.797 -0.3749  1.9470  0.3965
15949TIP3   OH269261   1.002   6.505  15.002 -0.4890  0.5872 -0.0808
15949TIP3    H169262   1.076   6.555  14.967  0.4031  0.4639  1.5834
15949TIP3    H269263   1.041   6.426  15.039 -1.7013 -0.5102 -1.0815
15950TIP3   OH269264   1.030   2.074  16.071  0.0435 -0.4032  0.8710
15950TIP3    H169265   0.973   2.115  16.135 -1.6700 -3.1995  1.2061
15950TIP3    H269266   0.970   2.030  16.010  1.7408 -0.5438 -0.7424
15951TIP3   OH269267   1.017   4.000  11.202 -0.2517 -0.1224  0.0363
15951TIP3    H169268   1.000   3.906  11.195 -0.6661  0.0474 -1.5354
15951TIP3    H269269   0.940   4.041  11.162  0.8261  0.8214 -1.0946
15952TIP3   OH269270   4.880   4.755  11.394 -0.2254  0.1982 -0.0717
15952TIP3    H169271   4.829   4.809  11.455 -0.1233  0.7225 -0.4437
15952TIP3    H269272   4.814   4.704  11.346 -0.1735 -2.2617  2.3517
15953TIP3   OH269273   5.604   6.404  15.452  0.3491  0.6025  0.1461
15953TIP3    H169274   5.656   6.476  15.488  2.4513  0.6410 -2.7603
15953TIP3    H269275   5.654   6.326  15.473  0.9912  0.5267 -1.6367
15954TIP3   OH269276   3.110   4.521   2.078  0.6612 -0.0105  0.6194
15954TIP3    H169277   3.041   4.550   2.138 -1.7252  0.2921 -2.2008
15954TIP3    H269278   3.141   4.601   2.036 -1.6685 -0.7598 -2.6764
15955TIP3   OH269279   6.716   5.988  13.459  0.0285 -0.5558  0.5203
15955TIP3    H169280   6.770   5.943  13.394  0.5028  0.0699  0.4708
15955TIP3    H269281   6.644   5.927  13.477 -0.1687 -0.6951 -0.6744
15956TIP3   OH269282   0.135   6.591   5.253 -0.2164  0.0977  0.3993
15956TIP3    H169283   0.128   6.496   5.265  0.3288  0.0590  0.4153
15956TIP3    H269284   0.139   6.603   5.158 -0.8435  0.1465  0.3754
15957TIP3   OH269285   1.377   2.713   3.835  0.1250 -0.0538  0.6979
15957TIP3    H169286   1.307   2.661   3.794  0.0082  0.4113  0.2996
15957TIP3    H269287   1.367   2.800   3.797 -0.0421  0.4173  1.7921
15958TIP3   OH269288   4.795   0.468   4.970  0.4202 -0.5169 -0.0863
15958TIP3    H169289   4.728   0.412   5.010 -0.7549  1.7684  1.2690
15958TIP3    H269290   4.830   0.518   5.044  1.2959  0.6623 -1.2948
15959TIP3   OH269291   2.408   1.192  16.131  0.0423  0.1796 -0.5806
15959TIP3    H169292   2.406   1.241  16.049  0.0619 -1.0041 -1.2924
15959TIP3    H269293   2.377   1.104  16.109  1.3590 -0.5655  0.3818
15960TIP3   OH269294   1.411   1.585   3.024 -0.0470  0.1929 -0.0684
15960TIP3    H169295   1.389   1.557   3.113  2.2453  0.4656  0.6081
15960TIP3    H269296   1.418   1.680   3.030  2.6868  0.0215  0.1039
15961TIP3   OH269297   3.538   0.682   5.442  0.6089  0.6488 -0.1512
15961TIP3    H169298   3.544   0.588   5.426 -3.3444  0.6628 -2.4376
15961TIP3    H269299   3.555   0.722   5.357 -1.9242  1.7203 -0.2036
15962TIP3   OH269300   4.138   1.209  13.951 -0.0812 -0.1280 -0.0919
15962TIP3    H169301   4.161   1.281  13.892  0.5818  2.2207  2.9154
15962TIP3    H269302   4.213   1.149  13.945  0.4630  0.6052 -0.8243
15963TIP3   OH269303   3.630   5.744  12.214 -0.2488 -0.7370  0.5998
15963TIP3    H169304   3.596   5.806  12.150 -0.2800 -0.1924  1.1307
15963TIP3    H269305   3.556   5.727  12.272  0.0874 -0.3419  1.1531
15964TIP3   OH269306   4.696   4.292   1.452  0.2694  0.7281 -0.4030
15964TIP3    H169307   4.739   4.250   1.527 -2.7978 -0.2418  0.9072
15964TIP3    H269308   4.685   4.383   1.478  1.9840  1.1164 -0.9798
15965TIP3   OH269309   2.941   4.778   3.262  0.2889  0.3060 -0.1720
15965TIP3    H169310   3.004   4.731   3.207 -0.2874 -0.5021 -0.1465
15965TIP3    H269311   2.861   4.725   3.258 -0.0871  0.8064  0.5874
15966TIP3   OH269312   3.225   3.604   0.471 -0.8400  0.2438  0.1618
15966TIP3    H169313   3.293   3.649   0.421 -0.1759 -0.7222  0.1762
15966TIP3    H269314   3.171   3.560   0.405 -0.6687 -0.0605  0.2221
15967TIP3   OH269315   0.824   5.841  14.033  0.7610  0.3521  0.4733
15967TIP3    H169316   0.881   5.769  14.007  1.2695  1.8199 -2.7309
15967TIP3    H269317   0.859   5.917  13.986 -2.7223  1.6634 -0.1428
15968TIP3   OH269318   1.073   1.645   5.254  0.4951 -1.0094 -0.1141
15968TIP3    H169319   1.122   1.714   5.209  1.9069 -0.9005  1.5421
15968TIP3    H269320   1.026   1.690   5.323  1.8158 -1.7465  1.2952
15969TIP3   OH269321   0.370   4.825  14.241  0.0254  0.0555 -0.1134
15969TIP3    H169322   0.334   4.898  14.292  1.0861  0.1851  0.4672
15969TIP3    H269323   0.306   4.811  14.171 -0.7061  0.8573  0.3793
15970TIP3   OH269324   1.851   4.896  15.521  0.4477 -0.2397  0.6486
15970TIP3    H169325   1.851   4.849  15.605 -1.5198 -0.3691  0.5850
15970TIP3    H269326   1.916   4.851  15.468  0.3629 -1.3265  1.4628
15971TIP3   OH269327   6.473   2.870   2.751 -0.3077  0.3133  0.1093
15971TIP3    H169328   6.488   2.837   2.840 -1.0623  0.3406  0.2439
15971TIP3    H269329   6.498   2.962   2.755  0.0284  0.2187  0.1993
15972TIP3   OH269330   1.265   1.325  15.819  0.2367  0.4405  0.2175
15972TIP3    H169331   1.246   1.234  15.843  2.1447  0.5099  2.0739
15972TIP3    H269332   1.203   1.344  15.748  1.7619 -3.2696 -2.2806
15973TIP3   OH269333   0.201   1.827   1.176 -0.1061 -0.1902 -0.9111
15973TIP3    H169334   0.215   1.810   1.269  2.3331  2.6851 -0.6724
15973TIP3    H269335   0.175   1.742   1.140  1.4685 -1.9534  1.8958
15974TIP3   OH269336   4.452   1.143   1.577 -0.2775 -0.6072 -0.9364
15974TIP3    H169337   4.462   1.114   1.486  1.5001 -1.4362 -0.5055
15974TIP3    H269338   4.489   1.071   1.629 -1.0872 -0.0454  0.4391
15975TIP3   OH269339   4.656   0.317  14.707 -0.2556  0.2432  0.3098
15975TIP3    H169340   4.748   0.295  14.724 -0.6219 -1.8781 -0.4193
15975TIP3    H269341   4.658   0.367  14.626  0.3284  0.8781  0.7074
15976TIP3   OH269342   4.794   1.489  16.629 -0.3797 -0.2965 -0.7786
15976TIP3    H169343   4.703   1.516  16.614 -0.2541  0.1211 -0.7916
15976TIP3    H269344   4.826   1.548  16.697 -0.1251 -0.4657 -0.7493
15977TIP3   OH269345   2.315   4.341  13.874 -0.0722  0.2917  0.0004
15977TIP3    H169346   2.395   4.359  13.923  0.5858 -0.6184 -0.7198
15977TIP3    H269347   2.254   4.409  13.901  0.7899  0.7012  0.9231
15978TIP3   OH269348   6.273   2.414  12.266 -0.1596 -0.3634  0.3473
15978TIP3    H169349   6.305   2.486  12.320 -2.8063 -0.1834  1.7624
15978TIP3    H269350   6.335   2.409  12.193  2.0425  1.0358  2.0725
15979TIP3   OH269351   4.555   6.120   4.424  0.1863 -0.2529  0.0627
15979TIP3    H169352   4.578   6.148   4.335  0.5745  0.4705  0.3864
15979TIP3    H269353   4.469   6.079   4.414 -0.1036  0.4716 -0.5351
15980TIP3   OH269354   0.394   0.788  12.937  0.1114  0.0284 -0.7867
15980TIP3    H169355   0.327   0.856  12.924  0.3504  0.2023 -1.1170
15980TIP3    H269356   0.404   0.747  12.851  1.8726  1.3402 -1.2337
15981TIP3   OH269357   2.509   0.114   4.144 -0.0455  0.2248 -0.6402
15981TIP3    H169358   2.587   0.099   4.092  0.0968  1.1545 -0.7001
15981TIP3    H269359   2.471   0.194   4.109  0.8094  1.6630  1.5718
15982TIP3   OH269360   4.749   3.048   1.803  0.1605 -0.4957 -0.5574
15982TIP3    H169361   4.667   3.009   1.775 -0.5993  0.3960  0.3961
15982TIP3    H269362   4.726   3.103   1.878  1.0296  2.6089 -2.4773
15983TIP3   OH269363   4.618   0.627  15.934  0.0473  0.3487  0.0410
15983TIP3    H169364   4.665   0.551  15.967  1.2269  1.5285  1.1685
15983TIP3    H269365   4.596   0.678  16.012 -0.9687  1.0217 -0.6675
15984TIP3   OH269366   5.006   3.101  14.605  0.5826 -0.2823 -0.1268
15984TIP3    H169367   4.983   3.020  14.559 -0.0538 -0.9749  1.3543
15984TIP3    H269368   4.982   3.083  14.696  0.4555  1.5770  0.2121
15985TIP3   OH269369   4.608   3.665  11.748 -0.5286  0.1576 -0.2135
15985TIP3    H169370   4.545   3.649  11.678 -0.1643  0.9293 -0.7275
15985TIP3    H269371   4.623   3.760  11.746  1.6921 -0.1774 -1.0291
15986TIP3   OH269372   2.707   2.137  12.243 -0.9692  0.2612  0.7389
15986TIP3    H169373   2.615   2.160  12.232 -0.7898  0.9027  0.5548
15986TIP3    H269374   2.706   2.060  12.300 -1.5376  1.3315  2.2193
15987TIP3   OH269375   2.669   2.739   1.769 -0.3870  0.6993 -0.2262
15987TIP3    H169376   2.587   2.690   1.773 -1.6835  2.6332 -1.8188
15987TIP3    H269377   2.662   2.803   1.840 -0.2605  0.8361 -0.3353
15988TIP3   OH269378   0.124   2.909  15.294 -0.8909 -0.3301  0.2333
15988TIP3    H169379   0.101   2.818  15.315 -2.7424 -0.0489 -0.4244
15988TIP3    H269380   0.150   2.906  15.202 -0.0037 -0.3493  0.4833
15989TIP3   OH269381   3.711   5.793  12.620  0.3524  0.3214 -0.4490
15989TIP3    H169382   3.752   5.750  12.695 -0.8057  1.5438  0.9115
15989TIP3    H269383   3.622   5.812  12.649 -0.5054 -0.3485 -2.6033
15990TIP3   OH269384   5.008   1.084   4.162  0.2497  0.4478  0.1897
15990TIP3    H169385   4.913   1.098   4.169  0.0726 -0.7915  0.4099
15990TIP3    H269386   5.016   0.999   4.119  1.2485  0.0503  1.1362
15991TIP3   OH269387   4.205   2.468  11.959 -0.2136  0.6146  0.2205
15991TIP3    H169388   4.178   2.386  12.000 -0.4412  0.7158  0.2806
15991TIP3    H269389   4.141   2.532  11.991 -0.2307  0.7494 -0.0784
15992TIP3   OH269390   5.108   3.103   5.482 -0.6032 -0.4484  0.2652
15992TIP3    H169391   5.042   3.040   5.512 -2.1215  0.5999 -0.7796
15992TIP3    H269392   5.137   3.148   5.561 -1.0024 -1.0374  0.7534
15993TIP3   OH269393   4.493   5.277   0.091 -0.2728  0.6670 -0.6772
15993TIP3    H169394   4.470   5.314   0.006 -2.3205 -0.5053 -0.6622
15993TIP3    H269395   4.551   5.203   0.071 -1.6016 -0.2656 -1.1491
15994TIP3   OH269396   3.517   2.030   2.266 -0.0802 -0.3177  0.1729
15994TIP3    H169397   3.489   1.940   2.278 -1.9950  0.6784  4.2035
15994TIP3    H269398   3.495   2.073   2.349 -1.3806  4.4009 -2.4534
15995TIP3   OH269399   1.466   0.214  14.174 -0.3410 -0.1257 -0.3626
15995TIP3    H169400   1.471   0.195  14.080  0.3225  0.9963 -0.5680
15995TIP3    H269401   1.386   0.171  14.203 -0.9329  0.1154 -1.5938
15996TIP3   OH269402   4.145   5.294  13.917 -0.3544  0.5032  0.1886
15996TIP3    H169403   4.200   5.360  13.958 -1.5094  0.6102  1.6077
15996TIP3    H269404   4.149   5.314  13.824  1.0436  1.2337  0.3897
15997TIP3   OH269405   3.072   6.599  13.599  0.3336 -0.3291 -0.2830
15997TIP3    H169406   3.142   6.648  13.642  0.2084  0.6374 -1.1788
15997TIP3    H269407   3.113   6.516  13.575  0.9930 -0.0154 -0.2528
15998TIP3   OH269408   0.788   2.138   4.993 -0.5732  0.1690 -0.3988
15998TIP3    H169409   0.838   2.057   4.987  0.0915  0.5737 -0.3911
15998TIP3    H269410   0.707   2.113   5.036  0.2673 -0.2114  1.0051
15999TIP3   OH269411   3.341   2.007   3.958 -0.0366 -0.3271  0.1687
15999TIP3    H169412   3.290   2.072   3.909 -1.9244 -0.2067  2.1914
15999TIP3    H269413   3.345   2.041   4.047  1.1132 -1.7647  0.6916
16000TIP3   OH269414   5.136   5.060   0.304  0.0285  0.3181  0.3265
16000TIP3    H169415   5.168   5.148   0.284  2.6717 -0.9152 -1.2115
16000TIP3    H269416   5.135   5.055   0.399  4.1486  0.6546  0.5114
16001TIP3   OH269417   3.001   3.896  14.303  0.1621  0.1192  0.2729
16001TIP3    H169418   3.045   3.857  14.379 -0.2336  1.9658  1.4818
16001TIP3    H269419   2.953   3.971  14.339 -0.9722  0.3342 -1.6243
16002TIP3   OH269420   5.856   0.144  16.895  0.1210 -0.2523  0.2375
16002TIP3    H169421   5.771   0.177  16.924  0.7528  2.5453 -0.9407
16002TIP3    H269422   5.841   0.115  16.805  0.4688  0.4172 -0.0332
16003TIP3   OH269423   5.509   4.288  15.435  0.3593  0.0391 -0.0515
16003TIP3    H169424   5.587   4.320  15.481  0.2983 -0.5156  0.4379
16003TIP3    H269425   5.535   4.203  15.399  0.2247  0.2091 -0.5611
16004TIP3   OH269426   2.260   0.819   6.056  0.4335 -0.9947 -0.0273
16004TIP3    H169427   2.236   0.863   6.138  0.2835 -0.4251 -0.3696
16004TIP3    H269428   2.252   0.726   6.075 -1.4804 -0.8265  0.0416
16005TIP3   OH269429   3.888   5.172   6.744 -0.4204  0.4130 -0.1342
16005TIP3    H169430   3.953   5.107   6.772 -0.2043  0.5988 -0.2063
16005TIP3    H269431   3.928   5.217   6.671 -0.7770  0.2898 -0.4076
16006TIP3   OH269432   1.139   4.277  14.517 -0.2501  0.1707 -0.0119
16006TIP3    H169433   1.106   4.192  14.546  1.2334 -0.5647 -0.4516
16006TIP3    H269434   1.106   4.287  14.428 -0.2160 -0.0536 -0.0485
16007TIP3   OH269435   4.190   5.939  12.676  0.1868 -0.1338 -0.3411
16007TIP3    H169436   4.105   5.972  12.706  0.3560  0.6674 -0.7022
16007TIP3    H269437   4.209   5.993  12.599  1.5250  0.4095  0.3730
16008TIP3   OH269438   4.479   1.549   5.138 -0.0674  0.1477 -0.0078
16008TIP3    H169439   4.421   1.532   5.063 -0.1091  0.2401  0.0031
16008TIP3    H269440   4.420   1.581   5.206 -0.0550 -0.1160  0.1256
16009TIP3   OH269441   4.081   3.590   1.479  0.5009  0.3618 -0.1965
16009TIP3    H169442   4.028   3.662   1.446 -0.6269 -0.2596  0.2270
16009TIP3    H269443   4.171   3.623   1.478 -0.1399  2.2287  1.2361
16010TIP3   OH269444   6.167   5.314  14.309 -0.2328  0.4366 -0.3588
16010TIP3    H169445   6.195   5.355  14.227 -0.0635 -1.1880 -1.1219
16010TIP3    H269446   6.248   5.285  14.350 -0.3444  0.9728  0.2429
16011TIP3   OH269447   4.868   2.931  12.309  0.1814 -0.4510 -0.1093
16011TIP3    H169448   4.902   3.007  12.261  1.2730  0.0282  1.3832
16011TIP3    H269449   4.923   2.859  12.280  3.3924  0.5440  3.1865
16012TIP3   OH269450   6.495   1.160   4.957 -0.2374 -0.0662  0.3258
16012TIP3    H169451   6.517   1.088   5.016 -1.7457 -0.3753  0.5320
16012TIP3    H269452   6.531   1.238   4.999  0.4965 -0.5516  0.6137
16013TIP3   OH269453   0.914   5.390  15.907 -0.1110  0.3230  0.1854
16013TIP3    H169454   0.909   5.404  16.002  1.7551 -2.7844  0.8174
16013TIP3    H269455   0.840   5.332  15.888 -0.3075  0.7010 -0.1862
16014TIP3   OH269456   3.586   4.949  12.875 -0.1223 -0.3608  0.2048
16014TIP3    H169457   3.539   4.990  12.802 -0.5143  0.4923  0.9188
16014TIP3    H269458   3.564   4.856  12.870 -1.6402 -0.0228  0.3262
16015TIP3   OH269459   0.185   6.466  15.677 -0.3687  0.1101 -0.5026
16015TIP3    H169460   0.146   6.423  15.601 -0.4399 -0.7571  0.0193
16015TIP3    H269461   0.276   6.480  15.652  0.7375 -4.1001  0.8492
16016TIP3   OH269462   2.751   6.456   6.174  0.2388 -0.2587 -0.1273
16016TIP3    H169463   2.698   6.410   6.238 -0.0515  1.0629  0.6003
16016TIP3    H269464   2.803   6.387   6.131 -1.4036 -1.4394 -0.2359
16017TIP3   OH269465   5.796   1.299  16.820 -0.5846  0.1700 -0.1429
16017TIP3    H169466   5.714   1.297  16.868  0.3144 -0.2534  1.4267
16017TIP3    H269467   5.832   1.386  16.836  0.0709 -0.2280  0.5758
16018TIP3   OH269468   0.751   0.605  16.283  0.6894  0.5401 -0.1406
16018TIP3    H169469   0.836   0.570  16.309  0.4836  0.2598  0.1532
16018TIP3    H269470   0.709   0.632  16.365  1.1557  2.1825 -0.4325
16019TIP3   OH269471   3.676   5.646  10.963  0.1661  0.1100 -0.0899
16019TIP3    H169472   3.732   5.719  10.938  1.4504 -0.4000  1.2456
16019TIP3    H269473   3.614   5.683  11.027  0.5540  0.1204  0.2792
16020TIP3   OH269474   0.556   4.422  14.702 -0.2380  0.4526  0.2011
16020TIP3    H169475   0.637   4.427  14.753  0.3085  1.2388 -0.7299
16020TIP3    H269476   0.531   4.513  14.688  0.6222  0.3305 -2.4852
16021TIP3   OH269477   6.290   4.790   2.788  0.4189  0.6523  0.1866
16021TIP3    H169478   6.245   4.823   2.866 -0.4539 -0.7031  0.2748
16021TIP3    H269479   6.220   4.780   2.723  0.7579 -0.4828 -0.0112
16022TIP3   OH269480   2.482   3.341   3.548 -0.0521  0.5828 -0.0898
16022TIP3    H169481   2.478   3.248   3.569 -1.7072  0.4327 -0.9439
16022TIP3    H269482   2.395   3.374   3.570 -0.3943  1.3325 -2.4075
16023TIP3   OH269483   0.151   6.332   5.996 -0.5937 -0.0100 -0.5879
16023TIP3    H169484   0.077   6.275   6.015 -0.7084  0.7592  1.3705
16023TIP3    H269485   0.145   6.402   6.060  2.4994 -0.5560  0.3884
16024TIP3   OH269486   6.420   4.476   0.257 -0.5165 -0.0516  1.1938
16024TIP3    H169487   6.425   4.471   0.353 -1.8505 -0.8931  1.2153
16024TIP3    H269488   6.350   4.539   0.240  0.6224  1.1278  0.7621
16025TIP3   OH269489   4.639   0.381  10.819 -0.4171  0.0777 -0.0300
16025TIP3    H169490   4.685   0.338  10.747  0.3616 -1.9966  1.6574
16025TIP3    H269491   4.574   0.317  10.847 -0.7754  0.9003  1.0468
16026TIP3   OH269492   1.656   2.859  15.479 -0.4507 -0.0313  0.0503
16026TIP3    H169493   1.741   2.852  15.436 -0.0935 -0.0852  0.7769
16026TIP3    H269494   1.606   2.785  15.445 -0.2573  0.0733 -0.4712
16027TIP3   OH269495   2.896   1.669  14.343 -0.0974  0.4134  0.4232
16027TIP3    H169496   2.840   1.744  14.321  1.2569  1.0290 -1.0298
16027TIP3    H269497   2.918   1.681  14.435  0.4878  2.0510  0.0825
16028TIP3   OH269498   2.962   3.948   0.811 -0.1149 -0.6582 -0.3514
16028TIP3    H169499   2.913   3.870   0.837  1.0414 -1.9525 -1.9202
16028TIP3    H269500   2.946   4.011   0.881 -0.3762 -2.6047  1.4010
16029TIP3   OH269501   2.400   2.399   5.147  0.3593 -0.0197  0.7039
16029TIP3    H169502   2.391   2.409   5.242  2.0154 -0.0793  0.8788
16029TIP3    H269503   2.365   2.481   5.111 -0.9795 -0.3092  1.3115
16030TIP3   OH269504   1.453   2.600  14.996  0.3932  0.1179  0.0985
16030TIP3    H169505   1.469   2.567  14.907 -1.6891 -0.5228 -0.0658
16030TIP3    H269506   1.513   2.550  15.051  1.1601 -0.0262 -0.8513
16031TIP3   OH269507   0.883   0.841  11.395 -0.2565  0.2950  0.1655
16031TIP3    H169508   0.950   0.772  11.394 -1.2055 -0.6433  0.1139
16031TIP3    H269509   0.800   0.793  11.396 -0.9365  1.4489 -0.5571
16032TIP3   OH269510   5.877   1.963  16.834 -0.1578  0.0510 -1.2693
16032TIP3    H169511   5.862   1.969  16.739  1.8479  0.7826 -1.5581
16032TIP3    H269512   5.913   1.875  16.847 -1.1891 -0.3482 -1.0677
16033TIP3   OH269513   2.721   6.385   1.507  0.5177 -0.1964  0.3218
16033TIP3    H169514   2.766   6.368   1.590 -0.9368  0.4479  1.2731
16033TIP3    H269515   2.638   6.425   1.533  0.3620  0.6983 -1.4959
16034TIP3   OH269516   4.282   2.587  11.592  0.0314 -0.4972  0.0181
16034TIP3    H169517   4.216   2.546  11.536  0.4275 -1.4793  0.2599
16034TIP3    H269518   4.287   2.677  11.562  0.1020 -0.9668 -1.3819
16035TIP3   OH269519   0.967   0.426   0.236  0.3182  0.7968  0.3048
16035TIP3    H169520   0.929   0.449   0.320  1.8302 -0.2985  1.3038
16035TIP3    H269521   0.891   0.413   0.178 -0.8550 -1.4037  2.2719
16036TIP3   OH269522   4.323   5.179   5.845  0.1496  0.1534 -0.2773
16036TIP3    H169523   4.317   5.165   5.750  0.2938 -0.8815 -0.1287
16036TIP3    H269524   4.275   5.261   5.859 -1.7041 -0.7904 -0.9634
16037TIP3   OH269525   4.874   5.411   6.741 -0.2047 -0.0103 -0.1216
16037TIP3    H169526   4.889   5.484   6.801 -0.4703  1.7496 -2.1517
16037TIP3    H269527   4.788   5.429   6.703 -0.6635 -1.8641 -0.0040
16038TIP3   OH269528   4.072   0.904  12.085 -0.3714  0.1500 -0.0631
16038TIP3    H169529   4.039   0.949  12.008 -1.4509  0.2743  0.4641
16038TIP3    H269530   3.998   0.901  12.145  0.2441 -0.6123  0.6756
16039TIP3   OH269531   1.500   4.983   4.528 -0.0649  0.1801 -0.7648
16039TIP3    H169532   1.423   5.034   4.505 -0.4128  0.1277  0.2463
16039TIP3    H269533   1.500   4.909   4.468 -0.9643  0.0266 -0.5817
16040TIP3   OH269534   0.895   3.082   5.156 -0.2151 -0.0573  0.3098
16040TIP3    H169535   0.834   3.082   5.083 -0.9511 -2.2788  0.8847
16040TIP3    H269536   0.903   3.174   5.181 -4.9239  0.1552  1.5047
16041TIP3   OH269537   6.763   1.494   1.381 -0.1214 -0.2058  0.4963
16041TIP3    H169538   6.790   1.542   1.460  1.1825 -0.0690 -0.0048
16041TIP3    H269539   6.818   1.416   1.381  0.1085 -0.0467 -0.4416
16042TIP3   OH269540   1.478   6.701  13.487 -0.3794 -0.1052  0.0066
16042TIP3    H169541   1.501   6.609  13.475  0.2227  0.0852 -0.3657
16042TIP3    H269542   1.411   6.701  13.555 -1.3199 -0.9300 -0.8940
16043TIP3   OH269543   0.144   6.529   1.585 -0.1040 -0.0743  0.1566
16043TIP3    H169544   0.131   6.545   1.678 -1.5535  0.6779 -0.1626
16043TIP3    H269545   0.199   6.451   1.581 -2.5465 -1.9395  1.6092
16044TIP3   OH269546   0.248   2.661  13.360 -0.0689  0.3767  0.2641
16044TIP3    H169547   0.229   2.593  13.296 -1.1951 -0.8176  1.8220
16044TIP3    H269548   0.235   2.744  13.313  0.0279 -0.4759 -1.2818
16045TIP3   OH269549   4.853   2.720   4.020 -0.4195  0.1630  0.5836
16045TIP3    H169550   4.946   2.717   4.040 -0.6375 -0.5071  1.5403
16045TIP3    H269551   4.817   2.640   4.061 -1.4439  0.5510  0.4534
16046TIP3   OH269552   5.680   0.300  13.401  0.4024 -0.1809 -0.1601
16046TIP3    H169553   5.604   0.333  13.448  0.2972 -0.7296  0.0654
16046TIP3    H269554   5.748   0.291  13.468  0.6899  0.3779 -0.3743
16047TIP3   OH269555   3.342   4.528   3.343 -0.1279 -0.2300 -0.1635
16047TIP3    H169556   3.313   4.563   3.259 -0.0066  0.2501 -0.0059
16047TIP3    H269557   3.438   4.532   3.339 -0.1365  0.4730  0.2838
16048TIP3   OH269558   4.511   0.159   4.395  0.3844  0.3304  0.1351
16048TIP3    H169559   4.588   0.108   4.367  0.2519  0.2437 -0.0712
16048TIP3    H269560   4.543   0.211   4.469  0.8118  0.7751 -0.3579
16049TIP3   OH269561   6.652   2.167   0.699  0.4791  0.0254 -0.2767
16049TIP3    H169562   6.679   2.114   0.624 -2.0978  0.1265 -1.3224
16049TIP3    H269563   6.650   2.106   0.773  0.8124 -0.5870 -0.7727
16050TIP3   OH269564   1.257   4.535   4.201  0.6889  0.5776  0.0232
16050TIP3    H169565   1.240   4.625   4.174 -1.5798  0.5972  1.4115
16050TIP3    H269566   1.218   4.528   4.288  0.9086 -1.7374 -0.0323
16051TIP3   OH269567   0.173   2.447  13.226 -0.5316 -0.7049 -1.1698
16051TIP3    H169568   0.200   2.366  13.182  0.5842 -0.7398 -0.4413
16051TIP3    H269569   0.155   2.420  13.316 -1.9640 -0.4759 -1.3776
16052TIP3   OH269570   2.537   0.383   4.950 -0.4401 -0.2349  0.2555
16052TIP3    H169571   2.602   0.318   4.922  0.6025  1.2151 -0.7735
16052TIP3    H269572   2.585   0.439   5.011 -0.8791  0.5427 -0.1186
16053TIP3   OH269573   3.697   3.618   5.315 -0.1279 -0.3466 -0.3618
16053TIP3    H169574   3.701   3.626   5.411 -0.0829  1.0724 -0.4772
16053TIP3    H269575   3.610   3.584   5.297 -0.7261  0.9526  0.0825
16054TIP3   OH269576   3.434   3.659  13.182 -0.6787 -0.0872  0.5452
16054TIP3    H169577   3.407   3.694  13.097  0.2902  0.7508  0.5734
16054TIP3    H269578   3.447   3.565  13.166  0.6522  0.2609 -0.5431
16055TIP3   OH269579   4.820   0.775  12.754  0.0644 -0.6259  0.1672
16055TIP3    H169580   4.825   0.789  12.660  2.3064 -2.1587  0.0277
16055TIP3    H269581   4.749   0.712  12.765 -0.6259  0.0334 -0.4071
16056TIP3   OH269582   6.656   5.355   3.335  0.2505  0.2484  0.1314
16056TIP3    H169583   6.668   5.413   3.410 -1.9607  0.5120  0.2968
16056TIP3    H269584   6.644   5.413   3.260 -1.6002  0.0342  0.2395
16057TIP3   OH269585   2.768   3.591  13.534 -0.0677 -0.0414  0.1318
16057TIP3    H169586   2.677   3.560  13.530  0.1551 -0.9632  1.5104
16057TIP3    H269587   2.820   3.511  13.532  0.6849  0.4477  0.0771
16058TIP3   OH269588   1.645   0.360   1.716  1.1034 -0.1093 -0.1486
16058TIP3    H169589   1.662   0.270   1.745 -1.9128 -0.1884  1.5864
16058TIP3    H269590   1.705   0.413   1.769  0.3473 -0.8386  1.4941
16059TIP3   OH269591   4.526   1.200   0.076  0.0505 -0.0834 -0.1058
16059TIP3    H169592   4.610   1.227   0.114 -0.1600 -0.3560  0.5720
16059TIP3    H269593   4.468   1.191   0.151 -0.5167 -0.1499 -0.5490
16060TIP3   OH269594   6.606   3.244  12.404  0.2397  0.3384 -0.3670
16060TIP3    H169595   6.524   3.248  12.355 -0.5133  0.1999  0.8486
16060TIP3    H269596   6.652   3.325  12.382  0.4721 -0.3021 -2.2507
16061TIP3   OH269597   4.393   0.008   2.568  0.0073 -0.4072  0.3445
16061TIP3    H169598   4.412   0.046   2.481 -1.4531  0.3698  0.3482
16061TIP3    H269599   4.480  -0.007   2.606  0.6727  2.3647  0.0805
16062TIP3   OH269600   1.246   3.525   0.077 -0.3301 -0.0546  0.7735
16062TIP3    H169601   1.275   3.616   0.077 -1.6061  0.3768 -0.1117
16062TIP3    H269602   1.153   3.529   0.052 -0.3408 -1.6037  0.4656
16063TIP3   OH269603   3.983   3.849  11.634  0.0241 -0.4415  0.6318
16063TIP3    H169604   3.904   3.862  11.687  0.0636 -1.8128  1.0268
16063TIP3    H269605   4.019   3.938  11.624 -1.5441  0.1998  0.4554
16064TIP3   OH269606   2.887   4.184  11.558  0.3447  0.4424  0.5844
16064TIP3    H169607   2.930   4.099  11.564  0.9045  0.7375  0.8200
16064TIP3    H269608   2.844   4.184  11.472  0.4239 -0.0396  0.5462
16065TIP3   OH269609   6.301   5.231   5.567 -0.3743  0.0475 -0.0581
16065TIP3    H169610   6.344   5.244   5.482  1.0683  1.5839  0.8642
16065TIP3    H269611   6.248   5.310   5.578 -1.7794 -0.8568 -0.2052
16066TIP3   OH269612   3.851   1.911  11.243  0.6678  0.2365  0.2806
16066TIP3    H169613   3.884   1.822  11.260  1.9815  0.4512 -1.0407
16066TIP3    H269614   3.843   1.916  11.148  1.7077  1.9000  0.2525
16067TIP3   OH269615   3.061   3.402   1.419 -0.1748  0.0220 -0.1014
16067TIP3    H169616   2.987   3.458   1.445 -1.7707 -2.3923  0.7004
16067TIP3    H269617   3.040   3.316   1.455  2.2086 -1.1234 -1.3475
16068TIP3   OH269618   4.359   0.652   0.328 -0.1664 -0.1394  0.0434
16068TIP3    H169619   4.399   0.587   0.271  0.9148 -0.3554  1.0299
16068TIP3    H269620   4.287   0.606   0.371 -0.0416 -0.4070 -0.0335
16069TIP3   OH269621   2.489   3.659  12.116 -0.0805  0.6223  0.6244
16069TIP3    H169622   2.420   3.618  12.063 -0.2599 -0.2745  1.5437
16069TIP3    H269623   2.507   3.742  12.071 -1.9734  1.0145  0.5578
16070TIP3   OH269624   0.842   6.603   2.558 -0.3184 -0.1364 -0.0152
16070TIP3    H169625   0.781   6.669   2.592 -0.9737 -0.1552 -1.1247
16070TIP3    H269626   0.804   6.577   2.474  0.0672 -1.7381  0.2878
16071TIP3   OH269627   1.090   3.672  13.050 -0.6845  0.7960 -0.3087
16071TIP3    H169628   1.082   3.753  13.101 -1.3812 -0.4291  1.6076
16071TIP3    H269629   1.045   3.690  12.968 -0.5066  2.4643 -0.0653
16072TIP3   OH269630   0.481   3.265  12.613  0.0031  0.0901  0.0185
16072TIP3    H169631   0.412   3.200  12.600 -0.0312  0.2569 -0.6557
16072TIP3    H269632   0.554   3.216  12.650 -0.2088 -0.2328  0.0081
16073TIP3   OH269633   1.958   1.134  14.811  0.0505 -0.4591  0.5232
16073TIP3    H169634   1.944   1.170  14.899 -2.1272 -1.4078  0.5991
16073TIP3    H269635   1.972   1.211  14.755  0.6769  0.1865  1.5442
16074TIP3   OH269636   5.392   2.333   1.168 -0.1916  0.1771 -0.3189
16074TIP3    H169637   5.298   2.349   1.156 -0.4237 -0.1289  1.0225
16074TIP3    H269638   5.426   2.414   1.205 -0.7805 -1.2020  3.4454
16075TIP3   OH269639   1.475   1.697  10.551 -0.0239 -0.4227  0.1319
16075TIP3    H169640   1.564   1.685  10.583  0.3296 -0.4643 -0.8804
16075TIP3    H269641   1.455   1.789  10.571 -0.3119 -0.8141  1.7325
16076TIP3   OH269642   1.366   1.095   3.197  0.4561 -0.7816 -0.1387
16076TIP3    H169643   1.301   1.101   3.127 -0.7545  1.8320  1.1443
16076TIP3    H269644   1.402   1.184   3.204  1.7147 -1.3907  1.4542
16077TIP3   OH269645   4.272   5.785   4.322  0.1228  0.7212  0.1957
16077TIP3    H169646   4.308   5.783   4.411  1.8763 -0.3706 -0.4961
16077TIP3    H269647   4.207   5.715   4.321 -0.5316  1.3185  0.8724
16078TIP3   OH269648   2.974   3.294  13.064 -0.0167  0.1560 -0.4833
16078TIP3    H169649   3.029   3.216  13.075 -1.0568 -0.6480 -0.9461
16078TIP3    H269650   3.016   3.360  13.119  0.9849 -0.6687 -0.2331
16079TIP3   OH269651   2.280   4.488   0.373 -0.0122  0.1626  0.4224
16079TIP3    H169652   2.297   4.561   0.314 -0.4143 -1.0649 -1.2513
16079TIP3    H269653   2.366   4.454   0.396  0.1356  0.5281  0.4102
16080TIP3   OH269654   1.883   6.099  12.416  0.3973  0.1499 -0.3402
16080TIP3    H169655   1.806   6.042  12.409 -0.4678  1.1624  0.7070
16080TIP3    H269656   1.891   6.117  12.510  1.9673 -0.0136 -0.4332
16081TIP3   OH269657   4.292   2.010   5.246  0.2396 -0.3432  0.2697
16081TIP3    H169658   4.294   2.086   5.304 -0.2799  0.2288 -0.4628
16081TIP3    H269659   4.218   1.958   5.278 -0.1363  0.0435  0.0358
16082TIP3   OH269660   4.354   5.018  15.234  0.5783 -0.1415  0.4221
16082TIP3    H169661   4.368   5.028  15.140  0.8998 -1.0729  0.3560
16082TIP3    H269662   4.314   5.100  15.262 -1.6345 -0.6974 -0.9354
16083TIP3   OH269663   2.446   5.750   2.243  0.2267 -0.1003 -0.1088
16083TIP3    H169664   2.407   5.814   2.183 -0.6816 -1.1358 -0.6312
16083TIP3    H269665   2.382   5.744   2.315  0.5108 -0.1192  0.1425
16084TIP3   OH269666   5.529   0.404   0.929 -0.2796 -0.0551 -0.0171
16084TIP3    H169667   5.515   0.329   0.871 -0.2892 -2.3389  2.7602
16084TIP3    H269668   5.449   0.455   0.921 -0.3185 -0.3732 -1.9094
16085TIP3   OH269669   6.299   2.326   2.922  0.2377  0.4406  0.7211
16085TIP3    H169670   6.378   2.360   2.880 -0.1423  1.3197  0.7085
16085TIP3    H269671   6.230   2.339   2.857  0.1043 -0.4623  0.6753
16086TIP3   OH269672   5.048   2.797  15.120  0.3354 -0.1785  0.3927
16086TIP3    H169673   4.958   2.787  15.089  0.3702  1.8780 -0.3920
16086TIP3    H269674   5.039   2.831  15.209  0.3382 -0.0187  0.3325
16087TIP3   OH269675   0.818   6.296  13.035 -0.2135  0.3243 -0.3479
16087TIP3    H169676   0.864   6.218  13.068 -0.4649 -0.3196 -1.4898
16087TIP3    H269677   0.770   6.329  13.111  0.0448 -0.5306  0.2001
16088TIP3   OH269678   0.993   2.086  11.086  0.1757  0.4429 -0.3103
16088TIP3    H169679   0.995   1.992  11.103 -1.4845  0.5014  0.3762
16088TIP3    H269680   1.022   2.126  11.168 -1.6018  0.5683  0.2892
16089TIP3   OH269681   6.015   3.020  13.906 -0.5030  0.5647  0.1230
16089TIP3    H169682   6.042   3.112  13.916 -3.0322  1.3482  0.1206
16089TIP3    H269683   5.924   3.019  13.935 -0.9895 -1.6377 -1.3866
16090TIP3   OH269684   2.132   2.274   3.205  0.0395 -0.2638 -0.6351
16090TIP3    H169685   2.110   2.204   3.143  1.9453 -1.8396  0.4102
16090TIP3    H269686   2.063   2.340   3.193 -1.2850 -1.9080 -2.2761
16091TIP3   OH269687   5.723   5.867   5.109 -0.0960  0.5782 -0.0757
16091TIP3    H169688   5.629   5.855   5.100  0.0731 -1.6481  0.8260
16091TIP3    H269689   5.732   5.932   5.179 -0.9472  0.5526  0.0653
16092TIP3   OH269690   0.125   4.428  16.720  0.3755  0.8657  0.8166
16092TIP3    H169691   0.122   4.479  16.801  0.7587  2.5300 -0.2042
16092TIP3    H269692   0.063   4.471  16.662  0.7807  0.2188 -0.0977
16093TIP3   OH269693   3.165   1.585  12.519 -0.3412  0.4156  0.3641
16093TIP3    H169694   3.114   1.541  12.451 -1.1186 -0.0287  1.2210
16093TIP3    H269695   3.159   1.678  12.498 -1.9158  0.4112  0.7156
16094TIP3   OH269696   3.915   6.004   0.349  0.2098  0.2773  0.0584
16094TIP3    H169697   3.927   5.912   0.329 -1.9330 -0.4225  1.8124
16094TIP3    H269698   3.969   6.050   0.284 -0.1948 -2.1236 -2.0527
16095TIP3   OH269699   5.373   3.389  16.104 -0.2084 -0.1151  0.1323
16095TIP3    H169700   5.415   3.311  16.139 -0.3907  0.0217  0.6707
16095TIP3    H269701   5.336   3.433  16.182  0.5906  0.9276 -0.0665
16096TIP3   OH269702   3.960   4.694  13.891  0.2561 -0.5040  0.3662
16096TIP3    H169703   3.885   4.745  13.920  0.2300 -0.4358  0.1801
16096TIP3    H269704   4.022   4.698  13.964  2.1078  3.4429 -1.2214
16097TIP3   OH269705   3.443   4.346  16.320  0.0234 -0.1166  0.1440
16097TIP3    H169706   3.517   4.378  16.268  0.4996 -0.6763  0.4672
16097TIP3    H269707   3.483   4.309  16.399 -0.7149  0.9963  1.0544
16098TIP3   OH269708   5.438   0.646   0.705 -0.0410  0.2397  0.1309
16098TIP3    H169709   5.376   0.576   0.724  0.3230  0.1226  0.9115
16098TIP3    H269710   5.500   0.608   0.643 -0.4397  0.1936 -0.2411
16099TIP3   OH269711   2.451   1.317   4.368  0.5533 -0.4528  0.0441
16099TIP3    H169712   2.408   1.393   4.407 -1.2263 -0.8506 -1.0897
16099TIP3    H269713   2.544   1.339   4.367 -0.0327  2.1310 -1.1500
16100TIP3   OH269714   4.001   3.163   3.621 -1.0277 -0.3031 -0.2580
16100TIP3    H169715   3.926   3.116   3.584 -1.1241 -1.5273  1.4490
16100TIP3    H269716   3.963   3.217   3.691 -0.5977  0.6551 -0.7483
16101TIP3   OH269717   5.292   6.745  11.007 -0.0158 -0.0431  0.3089
16101TIP3    H169718   5.379   6.785  11.013  0.4433 -0.7150 -1.5451
16101TIP3    H269719   5.258   6.773  10.922 -2.0190  0.9546  1.3886
16102TIP3   OH269720   5.583   2.350   4.301  0.3575 -0.5283 -0.4988
16102TIP3    H169721   5.501   2.311   4.270  1.1045 -1.8615 -0.8335
16102TIP3    H269722   5.627   2.381   4.221  0.8216 -1.0894 -0.4650
16103TIP3   OH269723   4.807   5.744   5.594  0.1625 -0.3068 -0.3719
16103TIP3    H169724   4.715   5.720   5.609  0.0120 -1.5567 -3.0070
16103TIP3    H269725   4.855   5.692   5.659 -0.9040 -0.4101  0.3641
16104TIP3   OH269726   3.331   2.598  11.836 -0.0756 -0.2510 -0.2895
16104TIP3    H169727   3.294   2.669  11.784 -0.7471 -1.3172 -1.2835
16104TIP3    H269728   3.258   2.538  11.852  0.6112 -1.0336  0.0030
16105TIP3   OH269729   2.295   1.839  11.863 -0.0079 -0.3739  0.7920
16105TIP3    H169730   2.350   1.768  11.895  0.3726  0.2996  1.6704
16105TIP3    H269731   2.207   1.817  11.893 -0.2848 -1.5591 -0.7950
16106TIP3   OH269732   1.667   4.772  13.137 -0.3600  0.3084 -0.0313
16106TIP3    H169733   1.678   4.854  13.089  0.8550 -0.0292 -0.3576
16106TIP3    H269734   1.661   4.705  13.069  3.2055 -0.3945  0.2495
16107TIP3   OH269735   3.193   5.151   3.601 -0.3594  0.6090 -0.6356
16107TIP3    H169736   3.166   5.179   3.688  0.6425  0.2168 -0.1825
16107TIP3    H269737   3.136   5.077   3.580  1.2613 -1.1257  0.9093
16108TIP3   OH269738   1.002   1.068   5.514 -0.6259  0.3076  0.1492
16108TIP3    H169739   1.062   1.125   5.563 -0.6070 -0.4719  1.0458
16108TIP3    H269740   1.049   1.047   5.434 -1.1847  2.6811 -0.8430
16109TIP3   OH269741   5.026   3.263   1.273 -0.1483 -0.0099 -0.0477
16109TIP3    H169742   5.061   3.182   1.310 -0.0629  0.1844  0.3029
16109TIP3    H269743   5.026   3.249   1.179 -0.7764 -0.6798  0.0484
16110TIP3   OH269744   5.485   2.641   5.055 -0.6727 -0.2113  0.5505
16110TIP3    H169745   5.392   2.652   5.033 -0.1967 -0.2489 -1.6101
16110TIP3    H269746   5.522   2.596   4.980  1.1167 -0.1648  1.3843
16111TIP3   OH269747   1.135   3.156   5.534 -0.3753  0.2613  0.0438
16111TIP3    H169748   1.215   3.158   5.586  1.0871  0.1899 -2.1554
16111TIP3    H269749   1.137   3.072   5.488 -1.7210  0.2515 -0.0220
16112TIP3   OH269750   4.990   4.114   0.303 -0.0391  0.0715  0.4032
16112TIP3    H169751   5.053   4.161   0.249 -0.5888 -0.9841 -1.1976
16112TIP3    H269752   4.987   4.162   0.386  2.0526  0.7414  0.0946
16113TIP3   OH269753   0.313   1.526  10.808  0.3115  0.6805 -0.3628
16113TIP3    H169754   0.278   1.521  10.719 -0.1642  0.3411 -0.1609
16113TIP3    H269755   0.342   1.616  10.818  0.8673  0.5776 -1.0539
16114TIP3   OH269756   4.125   6.234   2.745 -0.2080  0.3820 -0.4831
16114TIP3    H169757   4.101   6.310   2.798 -0.2385 -0.6077  0.9694
16114TIP3    H269758   4.220   6.227   2.754 -0.4613 -1.1255  1.3456
16115TIP3   OH269759   3.288   4.719   6.280  0.5577 -0.4020  0.4152
16115TIP3    H169760   3.346   4.715   6.204  1.4492  0.9340  0.9993
16115TIP3    H269761   3.346   4.708   6.355 -0.0877 -0.1074  0.9634
16116TIP3   OH269762   6.310   1.744   0.875 -0.5033 -0.5247  0.4315
16116TIP3    H169763   6.385   1.713   0.824  0.4154  1.0078  0.8184
16116TIP3    H269764   6.278   1.666   0.921  0.4860 -1.3058 -0.1931
16117TIP3   OH269765   6.757   1.403   2.174 -0.0790  0.0837  0.1902
16117TIP3    H169766   6.812   1.404   2.252  0.4940 -1.7953 -0.1518
16117TIP3    H269767   6.729   1.494   2.163  0.3094  0.4908  2.2312
16118TIP3   OH269768   1.431   1.510  15.146 -0.4489  0.5587  0.1446
16118TIP3    H169769   1.506   1.543  15.096  0.4318 -0.7672  0.5567
16118TIP3    H269770   1.434   1.560  15.228  0.1476  0.3386  0.2638
16119TIP3   OH269771   0.793   4.785  14.596  0.0754 -0.0286  0.2970
16119TIP3    H169772   0.733   4.714  14.615  1.2591 -0.7071  1.5982
16119TIP3    H269773   0.802   4.785  14.501 -1.3926 -0.3847  0.1480
16120TIP3   OH269774   5.067   2.493   4.775  0.1932  0.0025  0.1949
16120TIP3    H169775   5.130   2.468   4.707 -1.6644 -0.6803 -1.3295
16120TIP3    H269776   5.119   2.539   4.841  2.1816 -0.0548 -1.2985
16121TIP3   OH269777   3.992   5.713  15.509 -0.4287  0.4044  0.3139
16121TIP3    H169778   4.036   5.630  15.528 -1.6719 -0.1158  0.9793
16121TIP3    H269779   3.900   5.696  15.524 -0.7380  1.8371  0.1731
16122TIP3   OH269780   2.567   6.385  12.997 -0.3406 -0.5761  0.3635
16122TIP3    H169781   2.515   6.464  13.005 -0.1334 -0.4739  0.6936
16122TIP3    H269782   2.610   6.393  12.911 -2.6886 -1.7685 -0.9631
16123TIP3   OH269783   0.867   0.226  10.575  0.3040  0.1579 -0.3092
16123TIP3    H169784   0.947   0.252  10.529  0.3068 -0.1554 -0.4903
16123TIP3    H269785   0.801   0.220  10.505  0.0115  0.8552 -0.0988
16124TIP3   OH269786   4.500   2.736  15.917 -0.2909  1.1284 -0.5369
16124TIP3    H169787   4.595   2.745  15.928 -0.2060 -0.1991 -0.1064
16124TIP3    H269788   4.490   2.689  15.835 -0.5020 -0.2975  0.2805
16125TIP3   OH269789   4.402   6.158  13.569 -0.0169 -0.3182  0.0987
16125TIP3    H169790   4.341   6.225  13.597 -0.3614 -0.7590  0.4112
16125TIP3    H269791   4.377   6.138  13.479  0.0010 -0.1236  0.0506
16126TIP3   OH269792   3.530   2.258  16.268  0.4596  0.5604  0.5488
16126TIP3    H169793   3.468   2.331  16.260 -0.1329  0.0142  0.1039
16126TIP3    H269794   3.616   2.300  16.263  0.1216  1.1983 -0.0812
16127TIP3   OH269795   4.077   5.354   0.148 -0.7007  0.3373  0.1539
16127TIP3    H169796   4.024   5.337   0.226 -0.2546  2.4986  0.9720
16127TIP3    H269797   4.084   5.450   0.144  0.1526  0.2171 -1.9628
16128TIP3   OH269798   0.632   0.668   3.097 -0.1579 -0.5497 -0.3092
16128TIP3    H169799   0.617   0.684   3.191 -1.9139  2.6925 -1.0446
16128TIP3    H269800   0.712   0.616   3.094  1.4272  1.5100  2.9351
16129TIP3   OH269801   6.258   0.682   4.711 -0.0013 -0.4629 -0.1845
16129TIP3    H169802   6.208   0.732   4.646  0.4117 -1.2309 -1.1174
16129TIP3    H269803   6.211   0.599   4.718  1.8826 -1.7422 -2.1140
16130TIP3   OH269804   3.010   5.913  16.958  0.2377 -0.2008  0.6275
16130TIP3    H169805   2.994   5.948  17.045  1.8696 -0.1070  0.9123
16130TIP3    H269806   3.093   5.865  16.966  0.3072 -0.3561 -0.8223
16131TIP3   OH269807   3.840   0.732  13.868  0.1471 -0.4683  0.0067
16131TIP3    H169808   3.908   0.676  13.904  1.8808  1.0522 -0.8039
16131TIP3    H269809   3.840   0.809  13.925  0.1706  0.1918 -0.8617
16132TIP3   OH269810   0.808   3.356   2.531  0.1358  0.3490 -0.1234
16132TIP3    H169811   0.749   3.342   2.456  1.2542 -1.8767 -0.6404
16132TIP3    H269812   0.754   3.336   2.608 -0.5237  0.9266 -0.4302
16133TIP3   OH269813   1.821   3.165  12.829  0.2868 -0.3211 -0.5957
16133TIP3    H169814   1.731   3.145  12.803 -0.1283  0.4630  0.2148
16133TIP3    H269815   1.842   3.101  12.897 -0.7246  1.3410  1.3485
16134TIP3   OH269816   5.140   2.774  16.187 -0.1979 -0.2792 -0.0412
16134TIP3    H169817   5.199   2.714  16.234  0.7656  0.9302  0.3223
16134TIP3    H269818   5.193   2.808  16.115 -0.6047  0.4247 -0.0137
16135TIP3   OH269819   1.067   5.638   4.769  0.3801 -0.6506 -0.4923
16135TIP3    H169820   1.137   5.650   4.834  0.7569 -0.9653 -0.8386
16135TIP3    H269821   1.083   5.707   4.704 -0.0735 -0.2538 -0.1867
16136TIP3   OH269822   2.602   0.164   3.139  0.1898 -0.5370  0.2540
16136TIP3    H169823   2.592   0.163   3.044  3.2363  1.2574 -0.1590
16136TIP3    H269824   2.546   0.092   3.169 -2.8658  0.4867 -2.6114
16137TIP3   OH269825   0.325   5.620  13.418 -0.4601 -0.0121 -0.2457
16137TIP3    H169826   0.241   5.574  13.427 -0.1486 -0.2402  1.6204
16137TIP3    H269827   0.321   5.690  13.483  0.2637  0.8199 -1.0864
16138TIP3   OH269828   5.153   0.111  14.237  0.3013  0.0460 -0.6486
16138TIP3    H169829   5.180   0.022  14.214 -0.4546 -0.0944 -0.9822
16138TIP3    H269830   5.115   0.146  14.157  3.3285  1.7356 -1.4096
16139TIP3   OH269831   6.593   2.832  14.774  0.0951 -0.0034 -0.1399
16139TIP3    H169832   6.611   2.913  14.727  0.3608 -0.7189 -1.2932
16139TIP3    H269833   6.639   2.841  14.857 -0.2005  1.1810 -0.1015
16140TIP3   OH269834   2.754   1.191   6.082  0.0301  0.0141  0.7355
16140TIP3    H169835   2.842   1.159   6.102 -1.0720 -1.7791  2.9053
16140TIP3    H269836   2.733   1.151   5.997  1.4061  0.6706  0.0772
16141TIP3   OH269837   2.042   4.544  11.168 -0.0380 -0.6219 -0.7973
16141TIP3    H169838   2.074   4.627  11.203  0.5529 -0.6358 -1.3035
16141TIP3    H269839   2.116   4.507  11.120 -0.1755 -1.6457 -0.2225
16142TIP3   OH269840   6.699   1.212   2.997 -0.4647  0.2413  0.3824
16142TIP3    H169841   6.720   1.126   2.960 -0.6025 -0.0924  1.0710
16142TIP3    H269842   6.649   1.256   2.927  1.8537  0.7696 -0.9844
16143TIP3   OH269843   3.139   4.881   2.616 -0.6479  0.3266  0.2570
16143TIP3    H169844   3.225   4.843   2.599 -0.7995  0.8928 -1.9805
16143TIP3    H269845   3.098   4.886   2.529 -2.3701  1.3973  1.1082
16144TIP3   OH269846   5.509   2.980   1.827 -0.4611  0.2682 -0.0574
16144TIP3    H169847   5.538   2.922   1.757 -1.1208  0.4672 -0.5015
16144TIP3    H269848   5.460   3.049   1.782 -1.1537  0.2350  0.6252
16145TIP3   OH269849   2.031   5.339   3.771  1.0017  0.5543  0.2170
16145TIP3    H169850   2.031   5.268   3.835  3.1974  1.0630  0.8612
16145TIP3    H269851   2.012   5.418   3.822  1.9223  0.8472  0.1371
16146TIP3   OH269852   6.597   0.968   2.721 -0.1204 -0.5147 -0.2902
16146TIP3    H169853   6.634   0.908   2.786  0.3594  0.7796  0.6617
16146TIP3    H269854   6.638   0.941   2.639  0.4728 -1.1735  0.2075
16147TIP3   OH269855   0.777   6.619  15.282  0.5815  0.5344  0.6298
16147TIP3    H169856   0.714   6.587  15.347  1.8501 -0.3524  1.4487
16147TIP3    H269857   0.862   6.597  15.318  1.3104 -0.2603 -1.4820
16148TIP3   OH269858   4.619   4.561  11.633  0.4196  0.2782  0.2332
16148TIP3    H169859   4.611   4.631  11.569 -4.7956 -0.5982 -0.3060
16148TIP3    H269860   4.677   4.497  11.591  1.0695  1.9213 -1.4427
16149TIP3   OH269861   5.867   2.281  16.496 -0.0852 -0.2092 -0.1290
16149TIP3    H169862   5.842   2.287  16.588  0.3762 -0.7597  0.0312
16149TIP3    H269863   5.961   2.262  16.497  0.0626  0.4546 -0.7228
16150TIP3   OH269864   2.528   2.805   4.274  0.3473 -1.1391 -0.4243
16150TIP3    H169865   2.533   2.794   4.179  0.6687 -3.4616 -0.1536
16150TIP3    H269866   2.609   2.766   4.308  0.3421 -0.1461  0.8131
16151TIP3   OH269867   1.969   4.508   1.159 -0.0092  0.2586  0.0475
16151TIP3    H169868   1.965   4.428   1.106 -0.7199 -0.5138  1.2304
16151TIP3    H269869   1.974   4.579   1.095  3.3097 -0.8327 -1.0363
16152TIP3   OH269870   3.996   4.878   0.023 -0.3299 -0.5249 -0.2947
16152TIP3    H169871   4.088   4.868   0.047 -0.6999  0.2713  1.4806
16152TIP3    H269872   3.980   4.807  -0.039  1.4525 -0.7210 -0.5573
16153TIP3   OH269873   4.422   5.599   5.009 -0.3895 -0.6715 -0.1719
16153TIP3    H169874   4.444   5.692   5.008  0.1536 -0.8026 -2.0097
16153TIP3    H269875   4.471   5.563   5.083 -1.3143  0.6483  1.1304
16154TIP3   OH269876   3.420   6.314   1.793  0.1049 -0.3237  0.6291
16154TIP3    H169877   3.515   6.317   1.788  0.1090 -0.7489  0.4596
16154TIP3    H269878   3.391   6.337   1.705  0.0809 -1.8564  0.2205
16155TIP3   OH269879   0.022   1.780  10.829 -0.1539  0.5510 -0.1436
16155TIP3    H169880   0.013   1.692  10.793  0.2860  0.2113  0.5501
16155TIP3    H269881   0.093   1.820  10.779 -1.5946  1.1886 -1.7278
16156TIP3   OH269882   6.281   1.223   2.623  0.2272 -0.0349  0.0534
16156TIP3    H169883   6.219   1.155   2.597  1.9561 -0.8403 -2.0616
16156TIP3    H269884   6.242   1.304   2.591  0.3855 -0.5614 -1.5107
16157TIP3   OH269885   4.424   4.108   3.242 -0.2931 -0.2633 -0.0352
16157TIP3    H169886   4.377   4.191   3.234 -0.1982 -0.2829 -0.7979
16157TIP3    H269887   4.387   4.052   3.174  0.5027 -0.4323 -0.3317
16158TIP3   OH269888   3.433   1.080   4.392  0.1357  0.0255  0.2137
16158TIP3    H169889   3.376   1.138   4.443 -2.0274 -1.0693 -0.9024
16158TIP3    H269890   3.422   0.994   4.433  1.0576 -0.1791  0.0333
16159TIP3   OH269891   2.433   6.000   3.065 -0.4706  0.2842 -0.1286
16159TIP3    H169892   2.441   6.085   3.022  0.1796  0.2799 -0.0239
16159TIP3    H269893   2.518   5.986   3.107 -0.6154 -0.3607 -0.0390
16160TIP3   OH269894   0.184   5.293  12.932 -0.8136 -0.1810  0.2726
16160TIP3    H169895   0.174   5.207  12.973 -0.9660 -0.2521  0.0868
16160TIP3    H269896   0.225   5.346  12.999  0.6424 -0.7997 -0.1176
16161TIP3   OH269897   5.568   4.062   1.037  0.4176 -0.3764 -0.3645
16161TIP3    H169898   5.612   4.062   1.122  0.1808 -0.8870 -0.2393
16161TIP3    H269899   5.511   3.985   1.040 -1.7439  1.1837  0.1505
16162TIP3   OH269900   5.084   5.018   5.273 -0.0735  0.0638 -1.0944
16162TIP3    H169901   5.131   5.082   5.327  0.2807  0.0586 -1.3947
16162TIP3    H269902   5.030   4.969   5.335 -0.5292  0.8103 -0.8932
16163TIP3   OH269903   6.182   3.874  11.918  0.4230  0.0462  0.1136
16163TIP3    H169904   6.204   3.957  11.876  0.1236  1.0322  1.8302
16163TIP3    H269905   6.266   3.835  11.940  0.5913 -0.6893 -1.7612
16164TIP3   OH269906   5.440   1.122   5.661 -0.4620 -0.2875  0.5693
16164TIP3    H169907   5.376   1.103   5.593 -0.2928  0.0020  0.3305
16164TIP3    H269908   5.396   1.095   5.742 -1.6324  1.6451  0.6119
16165TIP3   OH269909   5.966   2.901   5.203  0.1107 -0.5010 -0.2641
16165TIP3    H169910   6.010   2.911   5.118 -0.7529 -1.6522 -0.8614
16165TIP3    H269911   5.873   2.891   5.181 -0.2640  0.3128  0.8915
16166TIP3   OH269912   5.946   1.817   1.911 -0.1857  0.1858 -0.3724
16166TIP3    H169913   5.887   1.759   1.959 -0.1963  1.4403  1.1518
16166TIP3    H269914   5.890   1.863   1.849 -0.6090  0.4467  0.1974
16167TIP3   OH269915   5.552   6.000   3.340 -0.4508 -0.1117 -0.0578
16167TIP3    H169916   5.632   5.961   3.306 -1.6010 -1.9224 -0.7378
16167TIP3    H269917   5.492   6.001   3.266 -0.8819  1.7961  0.2765
16168TIP3   OH269918   5.773   1.581  15.800  0.4141 -0.0181 -0.2124
16168TIP3    H169919   5.820   1.642  15.743 -2.4078  1.7649 -0.7228
16168TIP3    H269920   5.754   1.505  15.745  0.2676  0.4566 -0.8172
16169TIP3   OH269921   0.760   6.133   6.083  0.2990  0.1249  0.0915
16169TIP3    H169922   0.721   6.198   6.142 -0.1988  0.3836 -0.5175
16169TIP3    H269923   0.845   6.112   6.123 -0.2598 -0.1027  1.1804
16170TIP3   OH269924   2.716   6.402  14.396 -0.0092 -0.1770 -0.1098
16170TIP3    H169925   2.801   6.378  14.360  0.4268 -0.9855  1.4030
16170TIP3    H269926   2.725   6.387  14.490 -1.3613  1.1171  0.2443
16171TIP3   OH269927   4.026   0.033  10.886 -0.0516 -0.8742  0.7403
16171TIP3    H169928   4.047  -0.060  10.877  0.1572 -0.6715 -0.9045
16171TIP3    H269929   4.054   0.073  10.804 -0.2994  0.6206  1.3591
16172TIP3   OH269930   1.014   3.957   1.911  0.6930 -0.4463 -0.6185
16172TIP3    H169931   0.941   3.926   1.965 -0.8355  1.0201 -1.7813
16172TIP3    H269932   1.090   3.910   1.944  0.1182  1.5398  3.9037
16173TIP3   OH269933   1.306   5.837  15.833  0.5649 -0.4804 -0.0192
16173TIP3    H169934   1.360   5.844  15.912 -0.0424 -0.1584  0.3738
16173TIP3    H269935   1.269   5.749  15.837  0.5384 -0.4660  0.0542
16174TIP3   OH269936   6.158   2.037   3.919  0.0355 -0.7127 -0.0618
16174TIP3    H169937   6.145   1.944   3.901  0.8399 -1.1681  1.5770
16174TIP3    H269938   6.246   2.042   3.958 -0.5071  0.5507  1.0426
16175TIP3   OH269939   0.987   0.771   5.658 -0.1873 -0.5903  0.0488
16175TIP3    H169940   0.927   0.771   5.584  0.7376  0.4681 -0.7278
16175TIP3    H269941   1.070   0.741   5.622 -0.3041 -2.3467  1.1831
16176TIP3   OH269942   6.676   6.713  12.868 -0.0748  0.3104  0.0717
16176TIP3    H169943   6.634   6.787  12.912  1.4707  1.4026 -0.2425
16176TIP3    H269944   6.621   6.638  12.890 -0.6253  1.2225  1.9421
16177TIP3   OH269945   3.011   0.403   5.624 -0.2824  0.1891  0.7987
16177TIP3    H169946   2.997   0.490   5.662 -2.0835  0.0851  0.4199
16177TIP3    H269947   2.929   0.356   5.640  0.2592 -1.0622  0.0007
16178TIP3   OH269948   3.521   4.903   4.555  0.1523  0.6003 -0.0897
16178TIP3    H169949   3.465   4.850   4.499 -0.4356  2.1906 -1.0624
16178TIP3    H269950   3.610   4.872   4.538 -0.2095 -0.3057 -0.3486
16179TIP3   OH269951   4.793   5.339  14.650 -0.3118  0.7213  0.2643
16179TIP3    H169952   4.760   5.282  14.581  0.9493  2.0647 -1.5134
16179TIP3    H269953   4.716   5.386  14.682 -1.1591 -1.0850  0.9236
16180TIP3   OH269954   5.174   0.131   0.901 -0.1926  0.4273  0.3921
16180TIP3    H169955   5.119   0.125   0.822 -2.3960 -1.3652  2.0118
16180TIP3    H269956   5.129   0.195   0.956 -0.1095 -0.3331  1.3334
16181TIP3   OH269957   3.400   5.515   4.747 -0.3123  0.3443  0.4130
16181TIP3    H169958   3.423   5.422   4.748 -0.3529  0.2986 -1.5931
16181TIP3    H269959   3.481   5.560   4.772 -0.4637 -0.2225  2.0341
16182TIP3   OH269960   2.370   1.775   4.797 -0.7301 -0.3800  0.1359
16182TIP3    H169961   2.430   1.834   4.750 -1.3500 -1.1270 -1.6198
16182TIP3    H269962   2.339   1.714   4.730 -4.2480  0.5983  0.7808
16183TIP3   OH269963   2.490   5.879   6.001  0.1764  1.1875  0.2281
16183TIP3    H169964   2.505   5.888   6.095  1.7662 -0.3453  0.1473
16183TIP3    H269965   2.472   5.786   5.989 -1.0666  1.5606 -0.8520
16184TIP3   OH269966   3.701   6.029  17.036  0.5512  0.4164 -0.0397
16184TIP3    H169967   3.751   6.111  17.034 -0.6780  1.3460  3.6762
16184TIP3    H269968   3.610   6.057  17.023  0.5719 -0.9729 -3.8849
16185TIP3   OH269969   3.823   3.421  13.243 -0.3279  0.5096  0.0269
16185TIP3    H169970   3.850   3.369  13.319 -0.3959  0.2183 -0.1466
16185TIP3    H269971   3.750   3.474  13.274 -0.6707  0.0339  0.0345
16186TIP3   OH269972   2.929   6.409  16.491 -0.2034 -0.3667  0.9741
16186TIP3    H169973   2.935   6.384  16.399  0.4702  0.2442  0.8493
16186TIP3    H269974   3.015   6.386  16.527  0.5930  2.1378  0.7661
16187TIP3   OH269975   5.679   2.837  14.599  0.3437  0.2342  0.3430
16187TIP3    H169976   5.739   2.766  14.577 -0.1780 -0.5621  1.4427
16187TIP3    H269977   5.620   2.799  14.664 -1.2689  1.0455 -0.6233
16188TIP3   OH269978   0.705   3.846  16.204  0.5589 -0.0255 -0.2442
16188TIP3    H169979   0.640   3.833  16.135 -1.1295  1.1122  1.0780
16188TIP3    H269980   0.749   3.928  16.180  0.2134  0.1846 -0.1720
16189TIP3   OH269981   5.661   1.756   3.588 -0.5641  0.1322 -0.2540
16189TIP3    H169982   5.608   1.767   3.509  0.2710 -1.2640 -1.0227
16189TIP3    H269983   5.744   1.799   3.567  0.7937 -2.9247 -1.3186
16190TIP3   OH269984   1.705   0.687  11.741  0.4925  0.2745 -0.0446
16190TIP3    H169985   1.650   0.648  11.809  1.0350  0.1340  0.3159
16190TIP3    H269986   1.649   0.691  11.664 -0.2193  0.7176  0.4980
16191TIP3   OH269987   2.097   1.620   1.163  0.1122 -0.0486  0.2859
16191TIP3    H169988   2.142   1.660   1.237 -0.8274  0.9893  0.3154
16191TIP3    H269989   2.005   1.623   1.186 -0.1550 -0.1379 -0.7221
16192TIP3   OH269990   5.305   5.561  14.881 -0.3471  0.4362 -0.1815
16192TIP3    H169991   5.239   5.492  14.891 -1.3068  1.2932 -0.4673
16192TIP3    H269992   5.291   5.618  14.956  0.6392  0.1615  0.2093
16193TIP3   OH269993   0.484   4.689  14.691  0.4361 -0.4379 -0.4526
16193TIP3    H169994   0.464   4.777  14.659 -1.6201 -0.3082  1.0666
16193TIP3    H269995   0.534   4.703  14.771  1.6962 -0.6938 -1.1853
16194TIP3   OH269996   3.010   2.899   4.195  0.5188 -0.2777  0.1583
16194TIP3    H169997   3.080   2.960   4.172  1.5691 -1.5365 -0.0316
16194TIP3    H269998   2.950   2.902   4.120  1.4760 -0.8140 -0.6338
16195TIP3   OH269999   6.242   4.351   5.038 -0.0870  0.1150  0.5050
16195TIP3    H170000   6.162   4.302   5.017 -0.3150  0.4369  0.6175
16195TIP3    H270001   6.313   4.288   5.024 -0.3384 -0.0849  0.1138
16196TIP3   OH270002   3.731   4.017  12.665 -0.1207 -0.1470 -0.3389
16196TIP3    H170003   3.704   3.968  12.588  2.6076 -2.2859 -0.0189
16196TIP3    H270004   3.784   3.954  12.716 -0.2502  1.7917  2.2973
16197TIP3   OH270005   2.955   4.667  16.647 -0.6582  0.0758 -0.6732
16197TIP3    H170006   2.995   4.693  16.729 -0.9499  2.0389 -1.1409
16197TIP3    H270007   3.029   4.650  16.588 -0.4392 -1.9478  0.1565
16198TIP3   OH270008   0.520   3.901  11.701  0.2566  0.4560  0.3932
16198TIP3    H170009   0.588   3.865  11.758 -0.7320 -0.5032  0.9742
16198TIP3    H270010   0.507   3.990  11.732 -1.5257 -0.6016  2.8663
16199TIP3   OH270011   3.704   1.666   5.343  0.5990  0.5103 -0.7560
16199TIP3    H170012   3.745   1.739   5.296  0.5084  1.4607  0.5976
16199TIP3    H270013   3.640   1.708   5.400  2.0594 -0.4424  1.6426
16200TIP3   OH270014   0.369   4.594  10.967 -0.5740 -0.0126 -0.6212
16200TIP3    H170015   0.329   4.629  10.888 -2.1387 -3.2646 -1.3596
16200TIP3    H270016   0.440   4.538  10.936 -2.0013 -2.3224  0.1060
16201TIP3   OH270017   5.602   0.325  15.104 -0.4514  0.0492 -0.5494
16201TIP3    H170018   5.612   0.408  15.151 -0.1141 -0.6067  0.5412
16201TIP3    H270019   5.524   0.338  15.050  0.4576  1.6198 -1.5506
16202TIP3   OH270020   4.968   4.731   3.891 -0.2653 -0.4500  0.1139
16202TIP3    H170021   4.941   4.822   3.881 -2.1525 -1.0396 -0.3263
16202TIP3    H270022   5.064   4.734   3.895 -0.3001  1.4971 -0.4095
16203TIP3   OH270023   1.557   5.272  14.258 -0.3427  0.0689  0.6822
16203TIP3    H170024   1.495   5.234  14.196 -0.1240  2.2830 -0.9342
16203TIP3    H270025   1.629   5.209  14.261 -0.5683 -0.2954 -0.9934
16204TIP3   OH270026   6.277   0.475   4.098 -0.0237 -0.9689  0.1713
16204TIP3    H170027   6.279   0.553   4.153 -0.8366  0.6275 -2.0309
16204TIP3    H270028   6.298   0.403   4.159 -0.0295  0.8275  2.3742
16205TIP3   OH270029   2.131   3.721  12.738 -0.0826  0.5859  0.1215
16205TIP3    H170030   2.199   3.787  12.743  0.9155 -0.3126 -1.4041
16205TIP3    H270031   2.057   3.766  12.696  0.7859  0.5897 -1.4374
16206TIP3   OH270032   6.406   1.900  16.279  0.2052 -0.5828  0.0907
16206TIP3    H170033   6.339   1.840  16.246  0.4490 -0.4562 -0.6370
16206TIP3    H270034   6.463   1.845  16.333  0.9909 -1.1960 -1.3629
16207TIP3   OH270035   2.790   4.425  15.580  0.3079 -0.2349  0.4233
16207TIP3    H170036   2.792   4.453  15.489 -0.1911  0.6788  0.6943
16207TIP3    H270037   2.877   4.386  15.595  1.3352  1.9656  0.3124
16208TIP3   OH270038   2.994   2.628   5.532  0.0039 -0.2744  0.1696
16208TIP3    H170039   3.006   2.644   5.439  0.5229  1.9170  0.5740
16208TIP3    H270040   2.917   2.572   5.537 -0.2404 -0.1126 -1.5588
16209TIP3   OH270041   4.334   1.429   3.719  0.1796  0.3964  0.7792
16209TIP3    H170042   4.256   1.451   3.669 -0.7044 -1.5700  1.2367
16209TIP3    H270043   4.400   1.408   3.653 -0.3810 -0.2160  0.4102
16210TIP3   OH270044   6.478   2.833   5.260  0.1043 -0.0451  0.0394
16210TIP3    H170045   6.435   2.889   5.326 -1.8357 -0.2306 -1.0249
16210TIP3    H270046   6.474   2.884   5.179 -0.8457 -1.3276 -0.7337
16211TIP3   OH270047   3.499   4.352   1.133 -0.3324 -0.1179  0.7036
16211TIP3    H170048   3.404   4.341   1.135 -0.5451  1.7990  2.7975
16211TIP3    H270049   3.522   4.386   1.220  2.2173 -0.1370  0.0974
16212TIP3   OH270050   3.139   3.844  10.969 -0.6517 -0.1202  0.5416
16212TIP3    H170051   3.064   3.903  10.960 -0.3821  0.2779  0.8903
16212TIP3    H270052   3.215   3.899  10.951 -0.4725 -0.6581 -0.3790
16213TIP3   OH270053   4.038   1.051  11.818  0.4270  0.3869 -0.7510
16213TIP3    H170054   4.132   1.056  11.803  0.5975  0.7042  0.3876
16213TIP3    H270055   4.018   0.957  11.815  1.3884  0.0118  2.4827
16214TIP3   OH270056   3.708   1.375  14.769 -0.0262  0.1295 -0.3636
16214TIP3    H170057   3.755   1.331  14.840  0.8263 -0.0353 -1.0152
16214TIP3    H270058   3.725   1.320  14.692 -1.3306  0.0542 -0.6010
16215TIP3   OH270059   3.781   2.300  13.033 -0.0801  0.4228  0.6631
16215TIP3    H170060   3.851   2.363  13.012 -1.0162  1.8528  1.7024
16215TIP3    H270061   3.709   2.324  12.975  0.0439 -0.6104  0.0757
16216TIP3   OH270062   6.711   0.508  10.658 -0.3446 -0.3525 -0.1716
16216TIP3    H170063   6.697   0.515  10.752  0.5421 -1.7346  0.0818
16216TIP3    H270064   6.772   0.579  10.637 -2.0890  1.2050 -0.0658
16217TIP3   OH270065   5.106   2.366  15.365 -0.3049  0.1505  0.2945
16217TIP3    H170066   5.129   2.315  15.287  0.1372  2.4922 -1.1496
16217TIP3    H270067   5.018   2.336  15.388 -0.5545 -0.3746 -1.2785
16218TIP3   OH270068   5.005   0.720  10.837 -0.2354 -0.2148 -0.4527
16218TIP3    H170069   4.998   0.808  10.875 -0.7533 -0.7679  0.7327
16218TIP3    H270070   4.980   0.732  10.745  1.0892  1.1334 -0.6563
16219TIP3   OH270071   0.624   1.081   5.550  0.2476 -0.1751  0.0871
16219TIP3    H170072   0.661   1.067   5.462 -1.0430  1.1707 -0.6999
16219TIP3    H270073   0.681   1.148   5.589 -1.1914  1.7951 -1.0735
16220TIP3   OH270074   5.693   5.988   4.367 -0.6410 -0.1860 -0.2161
16220TIP3    H170075   5.617   6.045   4.360 -0.0908  0.7055  0.9125
16220TIP3    H270076   5.749   6.030   4.432  0.4134 -1.2911 -0.3840
16221TIP3   OH270077   6.288   2.972   3.906 -0.0842 -0.3883  0.1469
16221TIP3    H170078   6.251   3.028   3.974  0.3309 -1.0765  0.9508
16221TIP3    H270079   6.306   3.031   3.833 -0.8668  0.2919  0.5038
16222TIP3   OH270080   5.857   3.463   1.765  0.3978  0.0859 -0.0283
16222TIP3    H170081   5.762   3.466   1.760  0.3413 -0.6566  0.5485
16222TIP3    H270082   5.879   3.371   1.752  0.9529  0.0349  1.2165
16223TIP3   OH270083   0.510   2.748  13.397  0.3206  0.1834 -0.3255
16223TIP3    H170084   0.566   2.670  13.394  0.5988  0.1726  3.0069
16223TIP3    H270085   0.423   2.716  13.374  0.6832 -0.8436 -0.2909
16224TIP3   OH270086   0.823   1.509   6.332  0.1264  0.0028 -0.3753
16224TIP3    H170087   0.883   1.540   6.263  0.6119  0.8963  0.4381
16224TIP3    H270088   0.738   1.501   6.288  0.5521  0.0247 -1.2183
16225TIP3   OH270089   1.796   1.764  11.508  0.3825 -0.1799  0.4490
16225TIP3    H170090   1.820   1.676  11.479 -2.1441 -0.9180  0.4350
16225TIP3    H270091   1.757   1.751  11.595 -0.5153  0.8461  0.2157
16226TIP3   OH270092   4.537   4.609  16.509 -0.1720  0.3152  0.4740
16226TIP3    H170093   4.454   4.655  16.497 -1.2828 -1.4339  1.3262
16226TIP3    H270094   4.601   4.663  16.462 -1.6267  2.1264  0.5042
16227TIP3   OH270095   3.080   2.559  10.751 -0.8634  0.1940  0.9364
16227TIP3    H170096   3.054   2.471  10.774 -0.6461  0.1769  1.1183
16227TIP3    H270097   2.998   2.604  10.730 -1.1407  0.4361  2.4905
16228TIP3   OH270098   1.998   0.875   0.156  0.2105 -0.1853  0.5701
16228TIP3    H170099   2.058   0.855   0.228  2.6228  1.4374 -0.9031
16228TIP3    H270100   2.014   0.805   0.092  0.3526  0.0969  0.2954
16229TIP3   OH270101   3.034   2.723   2.853  0.1009  0.1176 -0.0819
16229TIP3    H170102   3.035   2.756   2.943 -1.2481  0.3624 -0.1439
16229TIP3    H270103   3.072   2.794   2.801  0.1479  0.2899  0.1875
16230TIP3   OH270104   3.561   4.109  15.317  0.1372 -0.2256  0.3894
16230TIP3    H170105   3.589   4.062  15.395 -3.5365  0.7540  2.4266
16230TIP3    H270106   3.473   4.075  15.298 -0.0358  1.3169 -1.8377
16231TIP3   OH270107   1.852   3.286  16.722 -0.3986 -0.2616  0.3876
16231TIP3    H170108   1.840   3.192  16.728 -1.1537 -0.0907  1.7364
16231TIP3    H270109   1.922   3.306  16.784 -1.2019  0.2257  1.1674
16232TIP3   OH270110   0.495   6.259  14.696  0.1705  0.4299 -0.2168
16232TIP3    H170111   0.503   6.197  14.769 -1.5184 -0.4430 -0.7614
16232TIP3    H270112   0.576   6.249  14.647  0.4318 -0.4508  0.3840
16233TIP3   OH270113   5.614   3.946   2.033  0.2645  0.0682 -0.1251
16233TIP3    H170114   5.656   3.885   1.971  0.7589  1.1602 -0.8762
16233TIP3    H270115   5.687   3.980   2.084 -0.0396 -0.1120  0.4301
16234TIP3   OH270116   6.733   0.064   0.943  0.0123 -0.2327  0.4387
16234TIP3    H170117   6.750   0.005   1.017  0.8205  0.3165  0.7030
16234TIP3    H270118   6.653   0.110   0.967 -0.4407 -0.9914  0.3824
16235TIP3   OH270119   5.762   1.413  11.904  0.1593 -0.5315 -0.2610
16235TIP3    H170120   5.682   1.460  11.879  2.0590  2.4173 -1.0390
16235TIP3    H270121   5.795   1.378  11.821  1.5714  1.3997 -0.5555
16236TIP3   OH270122   4.714   4.143   3.228  0.6073  0.3768 -0.9406
16236TIP3    H170123   4.732   4.140   3.134 -1.1445  0.4089 -1.2962
16236TIP3    H270124   4.628   4.186   3.235  0.5828  0.1059  0.6467
16237TIP3   OH270125   1.979   1.877   4.754 -0.2465 -0.7127  0.2222
16237TIP3    H170126   2.040   1.913   4.690  0.6089 -0.7807  0.9973
16237TIP3    H270127   2.034   1.828   4.815 -0.7863  1.1058  2.2294
16238TIP3   OH270128   6.496   4.129  16.127 -0.3021  0.2577  0.5526
16238TIP3    H170129   6.552   4.207  16.130 -0.2147  0.2194  0.0373
16238TIP3    H270130   6.440   4.137  16.204  0.2961  0.3824  0.9755
16239TIP3   OH270131   2.083   2.145   4.944 -0.1837 -0.4618 -0.1042
16239TIP3    H170132   2.030   2.070   4.916  0.9982 -2.0179  1.6809
16239TIP3    H270133   2.031   2.187   5.012  0.3453 -1.3167  0.8442
16240TIP3   OH270134   2.351   1.482  11.835  0.6809 -0.6872  0.0104
16240TIP3    H170135   2.412   1.542  11.793 -0.7527  1.1205  0.4408
16240TIP3    H270136   2.354   1.505  11.928 -0.2189 -0.9412  0.1152
16241TIP3   OH270137   3.504   5.648   0.902  0.0706 -0.4638  0.1311
16241TIP3    H170138   3.496   5.576   0.841  1.2330  1.0166 -1.8409
16241TIP3    H270139   3.438   5.631   0.969 -0.6567 -2.5437 -1.0868
16242TIP3   OH270140   4.580   5.123   2.400 -0.1629  0.2423 -0.7402
16242TIP3    H170141   4.513   5.119   2.469  0.6196  1.3007  0.0934
16242TIP3    H270142   4.601   5.031   2.382 -0.3899 -0.0479  0.4289
16243TIP3   OH270143   5.325   6.645  14.420 -0.6428 -0.3428 -0.1819
16243TIP3    H170144   5.266   6.675  14.489 -1.9875 -1.6272 -0.7608
16243TIP3    H270145   5.373   6.723  14.394  1.0945 -0.0920  3.3585
16244TIP3   OH270146   1.296   0.091   0.133 -0.1217  0.3663 -0.4527
16244TIP3    H170147   1.205   0.077   0.108 -0.2754 -1.0833  0.8368
16244TIP3    H270148   1.309   0.033   0.208  2.0159  0.1252 -0.9746
16245TIP3   OH270149   6.233   5.097  13.432 -0.1537  0.1298 -0.8223
16245TIP3    H170150   6.252   5.077  13.341 -0.5201  1.5791 -1.2411
16245TIP3    H270151   6.166   5.034  13.458 -0.4092  0.0288 -1.7150
16246TIP3   OH270152   4.944   5.084  14.515 -0.1174  0.8612  0.5846
16246TIP3    H170153   5.003   5.156  14.489  1.8122 -1.1861 -0.9269
16246TIP3    H270154   4.915   5.046  14.432 -1.3695  0.0714  1.3650
16247TIP3   OH270155   1.876   0.242   1.533  0.3935  0.4792 -0.4883
16247TIP3    H170156   1.875   0.148   1.550 -0.8706  0.8975  2.0020
16247TIP3    H270157   1.834   0.251   1.448 -1.3863 -1.0750  0.1735
16248TIP3   OH270158   3.765   3.782   5.852 -0.8196  0.5592 -0.4182
16248TIP3    H170159   3.681   3.737   5.855 -0.3138 -0.4576 -1.0816
16248TIP3    H270160   3.764   3.841   5.927 -1.1140 -1.2631  1.0446
16249TIP3   OH270161   1.447   3.670  15.519 -0.2552  0.0885 -0.1022
16249TIP3    H170162   1.450   3.765  15.510 -0.7416  0.0402 -0.8240
16249TIP3    H270163   1.457   3.637  15.430 -0.6188 -0.5230  0.0780
16250TIP3   OH270164   4.975   3.347   4.898 -0.2078  0.0886  0.1915
16250TIP3    H170165   4.931   3.422   4.938 -0.0102  0.6904 -0.6876
16250TIP3    H270166   4.908   3.308   4.841 -0.5368 -0.8524  1.2095
16251TIP3   OH270167   0.518   6.216   3.954 -0.1141  0.1595  0.4764
16251TIP3    H170168   0.564   6.136   3.978 -2.2847 -1.2996 -0.1267
16251TIP3    H270169   0.429   6.205   3.987 -0.7796  1.7961 -0.6435
16252TIP3   OH270170   0.288   5.431   3.977 -0.5434 -0.0464  0.1003
16252TIP3    H170171   0.321   5.509   4.021 -1.0856  0.5118 -0.4787
16252TIP3    H270172   0.218   5.463   3.921 -0.7650 -0.9512 -0.1433
16253TIP3   OH270173   4.517   4.232   5.727 -0.4736 -0.1404 -0.6027
16253TIP3    H170174   4.428   4.198   5.719  0.0902 -1.4697 -1.5596
16253TIP3    H270175   4.507   4.327   5.728 -1.9897 -0.3057  0.5598
16254TIP3   OH270176   3.369   1.776  15.165  0.1211 -0.0745  0.2079
16254TIP3    H170177   3.414   1.853  15.132  1.6716 -1.8095 -1.9241
16254TIP3    H270178   3.280   1.805  15.185  0.8386  2.3504 -0.0702
16255TIP3   OH270179   1.530   1.910   5.099 -0.0902  0.4450 -0.0959
16255TIP3    H170180   1.496   1.873   5.181 -0.8431  1.6020  0.1253
16255TIP3    H270181   1.506   2.002   5.103 -1.3561  0.2359 -2.2541
16256TIP3   OH270182   1.501   2.156   1.704 -0.2475 -0.8669  0.0099
16256TIP3    H170183   1.438   2.103   1.752 -0.0590 -0.9400  0.1762
16256TIP3    H270184   1.448   2.224   1.661 -0.5853 -1.7094 -0.9172
16257TIP3   OH270185   3.049   4.037  15.648  0.3357 -0.0194  0.0807
16257TIP3    H170186   3.141   4.021  15.669  0.7128 -0.2183 -1.6064
16257TIP3    H270187   3.005   3.956  15.672  0.7886 -0.3399 -0.1466
16258TIP3   OH270188   6.625   2.554   2.512 -0.1459  0.7579  0.2619
16258TIP3    H170189   6.643   2.460   2.523 -0.7955  0.6533  0.4374
16258TIP3    H270190   6.588   2.560   2.424  1.3777  1.0656 -0.3685
16259TIP3   OH270191   2.001   3.760  12.161  0.3573 -0.2737  0.4676
16259TIP3    H170192   2.071   3.702  12.191  0.8435  0.5095  0.8446
16259TIP3    H270193   1.929   3.743  12.221  1.2656  1.1545  1.9807
16260TIP3   OH270194   6.077   5.234  12.105  1.3049 -0.1037 -0.3953
16260TIP3    H170195   6.063   5.283  12.024 -0.0637 -2.0646 -1.3796
16260TIP3    H270196   6.139   5.165  12.081  3.6076  1.3483  1.1010
16261TIP3   OH270197   1.438   3.110  16.981  0.0911  0.2575 -0.3401
16261TIP3    H170198   1.513   3.165  16.961  0.8002 -1.5322 -2.8504
16261TIP3    H270199   1.362   3.161  16.952  0.3842  1.5609  1.1064
16262TIP3   OH270200   5.012   5.716  16.210  0.1926 -0.0015  0.6224
16262TIP3    H170201   5.046   5.792  16.256  0.6106 -0.4602  1.0812
16262TIP3    H270202   4.918   5.732  16.202  0.3269  0.6881  0.4712
16263TIP3   OH270203   3.225   1.372  14.520 -0.1376  0.0967 -0.3734
16263TIP3    H170204   3.272   1.403  14.597 -2.7976  4.0189 -0.1538
16263TIP3    H270205   3.157   1.314  14.554 -0.0724  0.2623  0.0400
16264TIP3   OH270206   4.842   0.459  13.425 -0.5333 -0.2385  0.2234
16264TIP3    H170207   4.805   0.414  13.501  0.7654  0.3696  1.2271
16264TIP3    H270208   4.862   0.547  13.456  1.5246 -0.4793 -0.3647
16265TIP3   OH270209   0.699   3.227   3.272 -0.2799  0.2125  0.4356
16265TIP3    H170210   0.650   3.194   3.348 -0.4106 -0.0751  0.2265
16265TIP3    H270211   0.785   3.249   3.307 -0.2800 -0.0989  0.6272
16266TIP3   OH270212   1.533   1.072   0.022  0.6977 -0.4506 -0.3182
16266TIP3    H170213   1.464   1.029   0.072  0.9000 -0.4071 -0.0050
16266TIP3    H270214   1.614   1.049   0.068  0.7929  0.3573 -0.0906
16267TIP3   OH270215   4.337   6.471   2.659 -0.5376 -0.1578  0.2692
16267TIP3    H170216   4.301   6.407   2.599  2.5083 -1.0105 -0.7592
16267TIP3    H270217   4.308   6.556   2.624  1.7940 -0.5879 -2.9442
16268TIP3   OH270218   2.015   1.889   0.288 -0.1510  0.4276  0.6241
16268TIP3    H170219   1.951   1.911   0.221 -0.9477 -0.8802  0.9286
16268TIP3    H270220   1.962   1.869   0.366  0.5341 -1.6662  0.5963
16269TIP3   OH270221   0.676   4.300   2.151 -0.5718  0.3575  0.0722
16269TIP3    H170222   0.657   4.321   2.060  1.4233  0.1475 -0.4199
16269TIP3    H270223   0.765   4.263   2.149 -0.1659  1.1384  2.2025
16270TIP3   OH270224   1.202   0.753  17.156 -0.2281 -0.5375 -0.1707
16270TIP3    H170225   1.254   0.679  17.126 -1.4448 -0.8743 -1.5249
16270TIP3    H270226   1.162   0.724  17.238 -0.0690 -1.0825 -0.2896
16271TIP3   OH270227   3.772   4.198   4.970 -0.2414 -0.0373 -0.1562
16271TIP3    H170228   3.720   4.274   4.995 -1.3052  0.1840 -2.8232
16271TIP3    H270229   3.714   4.124   4.981  0.0298 -0.1938  0.2232
16272TIP3   OH270230   3.411   6.070  15.273  0.7160 -0.5883 -0.3991
16272TIP3    H170231   3.409   6.141  15.209  1.4566  0.2490  0.4974
16272TIP3    H270232   3.337   6.014  15.248 -1.8294  2.1290  0.7250
16273TIP3   OH270233   2.146   3.238   2.198 -0.1717 -0.0199 -0.5278
16273TIP3    H170234   2.159   3.143   2.194 -2.2236 -0.2871 -2.1528
16273TIP3    H270235   2.178   3.270   2.114  0.2833  0.7132 -0.0808
16274TIP3   OH270236   3.109   2.952   0.973 -0.2612 -0.0985  0.1194
16274TIP3    H170237   3.145   2.965   0.885 -1.3378  0.2085 -0.2801
16274TIP3    H270238   3.018   2.928   0.959 -0.7079  0.9108  1.1818
16275TIP3   OH270239   1.463   1.054  12.797  0.0369 -0.3861 -0.2112
16275TIP3    H170240   1.372   1.067  12.767  0.4212 -1.2953 -1.8739
16275TIP3    H270241   1.479   0.960  12.782  1.1028 -0.3155  0.5037
16276TIP3   OH270242   0.198   0.481   3.148  0.5522  0.0918 -0.2495
16276TIP3    H170243   0.249   0.453   3.072  0.9194  1.3864 -0.5000
16276TIP3    H270244   0.180   0.574   3.131  2.0279  0.8208  2.0036
16277TIP3   OH270245   5.845   3.757   3.059 -0.1483 -0.0395  0.1719
16277TIP3    H170246   5.781   3.759   3.130 -1.6778  1.3697 -1.1794
16277TIP3    H270247   5.916   3.813   3.089 -0.4481 -0.0562  0.9119
16278TIP3   OH270248   0.124   0.177  12.828  0.0365  0.1895  0.0019
16278TIP3    H170249   0.142   0.090  12.865  0.2835 -0.4352 -1.5443
16278TIP3    H270250   0.130   0.164  12.734 -1.3812  1.5793 -0.2936
16279TIP3   OH270251   1.130   5.973   0.502 -0.2964 -0.6328  0.3965
16279TIP3    H170252   1.158   6.005   0.416 -2.1401  4.1939  1.4061
16279TIP3    H270253   1.181   6.025   0.564 -1.1953 -1.8852  2.2272
16280TIP3   OH270254   6.775   4.739   3.626 -0.0732  0.0091  0.1304
16280TIP3    H170255   6.816   4.678   3.687  1.0560  1.1674  0.5408
16280TIP3    H270256   6.743   4.810   3.681  1.1615  1.1783 -0.6263
16281TIP3   OH270257   3.516   3.979  16.630 -0.1252  0.0936 -0.3439
16281TIP3    H170258   3.600   4.010  16.664 -0.4346 -0.1237  0.6585
16281TIP3    H270259   3.523   3.883  16.634 -0.2504  0.0701 -0.6857
16282TIP3   OH270260   2.091   1.609  11.217 -0.0576  0.1254  0.7417
16282TIP3    H170261   2.060   1.658  11.294 -0.5311 -0.9013  1.2140
16282TIP3    H270262   2.051   1.654  11.143  1.6811  2.1033  0.9658
16283TIP3   OH270263   5.536   5.004   1.628  0.2555 -0.3431  0.3674
16283TIP3    H170264   5.528   5.077   1.689  1.2779 -0.2792  0.4225
16283TIP3    H270265   5.460   4.948   1.648 -0.4160  0.5866  0.4635
16284TIP3   OH270266   3.101   3.707   5.636 -0.2211 -0.3565 -0.0966
16284TIP3    H170267   3.029   3.770   5.640 -1.6392 -1.7888 -2.0885
16284TIP3    H270268   3.164   3.746   5.575 -1.2949 -1.0284 -1.6603
16285TIP3   OH270269   0.311   5.481   1.864 -0.2375  0.6958  0.1230
16285TIP3    H170270   0.235   5.524   1.827 -1.3741  0.2280  1.8715
16285TIP3    H270271   0.288   5.465   1.956  1.7059 -0.0198  0.5158
16286TIP3   OH270272   6.608   3.800  11.598  0.7231  0.4641 -0.3923
16286TIP3    H170273   6.538   3.760  11.649  0.1876  1.2241 -0.5194
16286TIP3    H270274   6.640   3.730  11.541 -1.5185  0.6770 -2.0122
16287TIP3   OH270275   4.155   4.971   4.524  0.1732 -0.0898  0.3925
16287TIP3    H170276   4.163   5.042   4.587 -1.5647 -0.1228  0.6802
16287TIP3    H270277   4.244   4.956   4.493  1.1240 -0.3964  3.1823
16288TIP3   OH270278   5.102   3.020   3.467  0.1063  0.0401  0.5437
16288TIP3    H170279   5.012   2.994   3.449  0.6010 -0.8692 -0.7087
16288TIP3    H270280   5.103   3.114   3.451 -0.6189  0.0502  0.5367
16289TIP3   OH270281   6.015   2.647  15.340  0.5465  0.2323  0.0139
16289TIP3    H170282   6.029   2.741  15.329  0.4161  0.2299 -0.1921
16289TIP3    H270283   5.956   2.640  15.415 -1.4205  0.4697 -1.4388
16290TIP3   OH270284   5.857   1.925  11.329  0.2397 -0.4502  0.2662
16290TIP3    H170285   5.871   1.841  11.285 -0.4993 -0.7752  0.6301
16290TIP3    H270286   5.832   1.985  11.260 -1.0461 -0.9895  0.2409
16291TIP3   OH270287   6.440   5.197   3.339  0.2175  0.4725  0.2577
16291TIP3    H170288   6.407   5.192   3.429 -1.0080  0.7805 -0.1705
16291TIP3    H270289   6.519   5.252   3.346 -0.7600  1.8323  0.9019
16292TIP3   OH270290   5.126   1.649  12.671 -0.1104 -0.1502 -0.0336
16292TIP3    H170291   5.063   1.605  12.729  0.2802 -2.4943 -1.3593
16292TIP3    H270292   5.073   1.683  12.599 -0.2273  0.4252  0.3154
16293TIP3   OH270293   6.601   3.707   1.477 -0.6293  0.1273 -0.0360
16293TIP3    H170294   6.658   3.636   1.449 -3.0424 -1.0334 -2.3436
16293TIP3    H270295   6.526   3.663   1.518 -0.8764  1.4719  0.9919
16294TIP3   OH270296   6.784   5.124   4.482  0.0128  0.4251  0.4341
16294TIP3    H170297   6.749   5.175   4.555  2.3443  0.5152  1.5317
16294TIP3    H270298   6.742   5.162   4.404 -2.0782  0.6801  1.6533
16295TIP3   OH270299   5.545   6.261  13.980  0.4098  0.7088 -0.1728
16295TIP3    H170300   5.526   6.189  14.040  1.0515  0.8643  0.2194
16295TIP3    H270301   5.600   6.222  13.913  1.3069  0.9837  0.3986
16296TIP3   OH270302   6.151   5.516   1.561 -0.5104  0.2413 -0.3324
16296TIP3    H170303   6.104   5.473   1.490 -2.2450  1.2229  0.1904
16296TIP3    H270304   6.086   5.526   1.630  1.6297 -2.4472  2.1709
16297TIP3   OH270305   1.385   5.514  13.475 -0.0459 -0.1110 -0.1940
16297TIP3    H170306   1.353   5.604  13.471  0.5663  0.0498 -1.6516
16297TIP3    H270307   1.418   5.505  13.565 -1.7732  0.5233  0.5193
16298TIP3   OH270308   4.722   5.033   6.654 -0.6982  0.6135 -0.1170
16298TIP3    H170309   4.751   5.095   6.587 -0.7105 -0.5070 -1.1774
16298TIP3    H270310   4.773   5.056   6.731  2.3607 -0.6293 -1.6497
16299TIP3   OH270311   2.245   4.763  14.924 -0.1488  0.2066  0.2357
16299TIP3    H170312   2.162   4.749  14.877 -0.9189  1.6098  1.1413
16299TIP3    H270313   2.273   4.675  14.950 -1.2248 -0.3044 -0.3084
16300TIP3   OH270314   1.429   0.418   3.822 -0.0193 -0.3959 -0.1204
16300TIP3    H170315   1.461   0.463   3.900  0.5652 -1.8708  0.5105
16300TIP3    H270316   1.339   0.394   3.843  0.5499 -1.9662  0.6569
16301TIP3   OH270317   4.001   4.737   5.098 -0.1012 -0.0776 -0.1680
16301TIP3    H170318   3.995   4.647   5.128  0.2960 -0.0399  0.0267
16301TIP3    H270319   3.917   4.754   5.055  0.0702 -0.7532 -0.7924
16302TIP3   OH270320   1.777   6.146   5.754  0.4032 -0.0994  0.0576
16302TIP3    H170321   1.710   6.098   5.803  0.7450 -0.8936 -0.2358
16302TIP3    H270322   1.729   6.213   5.706 -0.3879 -1.6501 -1.3723
16303TIP3   OH270323   2.560   4.016  16.623  0.3067  0.0738  0.5713
16303TIP3    H170324   2.587   4.054  16.539 -0.2191 -1.1765 -0.1807
16303TIP3    H270325   2.464   4.020  16.621  0.2560 -0.9292  0.6396
16304TIP3   OH270326   0.807   0.566  17.121 -0.4057 -0.5510 -0.1366
16304TIP3    H170327   0.739   0.500  17.126 -0.3575 -0.7113 -1.5126
16304TIP3    H270328   0.869   0.532  17.057  1.1676 -0.5873  1.3611
16305TIP3   OH270329   5.884   4.921   6.401  0.7747  0.1672 -0.3622
16305TIP3    H170330   5.827   4.852   6.436  0.8991  0.8458  1.1884
16305TIP3    H270331   5.968   4.908   6.445  0.6918  1.5357  0.2159
16306TIP3   OH270332   5.921   6.320   1.795  0.3363 -0.1730 -0.1147
16306TIP3    H170333   6.012   6.346   1.813  0.5298 -0.8494 -0.1044
16306TIP3    H270334   5.926   6.278   1.709 -0.1626  0.8025 -0.6344
16307TIP3   OH270335   0.593   1.341   0.377 -0.1736  0.1398 -0.0900
16307TIP3    H170336   0.593   1.245   0.376 -0.2076  0.1440 -1.1597
16307TIP3    H270337   0.657   1.366   0.310  0.6019  0.8681  0.9085
16308TIP3   OH270338   1.590   2.927   5.173  0.0522  0.1837 -0.2670
16308TIP3    H170339   1.574   3.006   5.121  1.6633  0.0421 -0.9986
16308TIP3    H270340   1.543   2.858   5.126  1.6615  0.0159 -1.6992
16309TIP3   OH270341   4.901   5.600  12.666  0.3686  0.4281 -0.6705
16309TIP3    H170342   4.834   5.583  12.600  3.3680 -1.2363 -3.4686
16309TIP3    H270343   4.929   5.690  12.648  0.7210  0.2035 -1.2711
16310TIP3   OH270344   3.382   5.119   2.838 -0.4479 -0.1409  0.0895
16310TIP3    H170345   3.404   5.188   2.901 -0.5249 -0.9156  0.9767
16310TIP3    H270346   3.327   5.163   2.774  0.4569  0.8999 -0.0012
16311TIP3   OH270347   6.203   6.177   4.160  0.0552 -0.5107  0.0582
16311TIP3    H170348   6.265   6.195   4.230  0.0144 -0.5881  0.1130
16311TIP3    H270349   6.179   6.085   4.171  1.0053 -0.8762 -0.8057
16312TIP3   OH270350   3.050   1.928  16.389  0.0945  0.0785 -0.1311
16312TIP3    H170351   3.047   1.897  16.480 -1.2806 -0.0008 -0.1828
16312TIP3    H270352   2.999   1.863  16.340 -0.2593  0.8030 -0.7393
16313TIP3   OH270353   2.392   3.034   4.355  0.2063 -0.1566  0.1086
16313TIP3    H170354   2.467   3.093   4.368  0.4086 -0.3791 -0.0420
16313TIP3    H270355   2.432   2.949   4.335 -0.1024 -0.0591 -0.9215
16314TIP3   OH270356   4.565   2.870   3.004  0.2229  0.2427 -0.0093
16314TIP3    H170357   4.605   2.805   3.062 -0.0590 -0.4968 -0.6310
16314TIP3    H270358   4.491   2.824   2.964  0.1804  0.8683 -0.6575
16315TIP3   OH270359   3.581   1.924  11.387  0.1458  0.0909 -0.2780
16315TIP3    H170360   3.664   1.927  11.339  0.2444  1.5167 -0.0484
16315TIP3    H270361   3.560   2.016  11.403 -1.4730 -0.2653 -0.3113
16316TIP3   OH270362   6.685   4.952   0.817  0.4739  0.0676 -0.2471
16316TIP3    H170363   6.593   4.924   0.816  0.1625  1.1035 -0.7710
16316TIP3    H270364   6.723   4.910   0.739  0.9845 -2.1036  1.1255
16317TIP3   OH270365   5.808   0.667  16.363 -0.4129 -0.1595 -0.6874
16317TIP3    H170366   5.862   0.618  16.426 -0.7809 -0.4387 -0.5916
16317TIP3    H270367   5.811   0.758  16.395 -0.2855 -0.2362 -0.4828
16318TIP3   OH270368   6.779   2.018   5.671  0.3233 -0.6860  0.2019
16318TIP3    H170369   6.747   1.948   5.727  1.0775 -0.5137  0.8625
16318TIP3    H270370   6.851   1.978   5.621  0.8268 -0.3671  0.6586
16319TIP3   OH270371   3.525   4.993  15.314 -0.2261  0.0158  0.2792
16319TIP3    H170372   3.469   4.925  15.350  0.1901 -0.3642  0.2110
16319TIP3    H270373   3.562   4.955  15.234 -0.9610  0.7633 -0.4377
16320TIP3   OH270374   2.477   6.020   1.568  0.3711  0.2897 -0.4977
16320TIP3    H170375   2.447   6.094   1.621 -1.5477 -0.9066  0.1560
16320TIP3    H270376   2.440   6.037   1.481  0.3677  0.3727 -0.4800
16321TIP3   OH270377   3.411   0.959  13.706  0.8531  0.8512 -0.4422
16321TIP3    H170378   3.410   0.865  13.690 -0.6353  0.9010 -0.7364
16321TIP3    H270379   3.396   0.998  13.620  3.3372  1.4304 -0.6572
16322TIP3   OH270380   5.046   5.295   6.302 -0.4841 -0.0300  0.1880
16322TIP3    H170381   5.066   5.350   6.377 -0.7143 -0.9084  0.9085
16322TIP3    H270382   5.107   5.222   6.309  0.2871  0.4702 -1.1427
16323TIP3   OH270383   3.539   2.045   5.418  0.5068  0.1538  0.2569
16323TIP3    H170384   3.624   2.087   5.402  0.5501 -0.2498 -0.5852
16323TIP3    H270385   3.506   2.088   5.497  2.0489 -0.5560  1.2936
16324TIP3   OH270386   3.545   6.050   3.439 -0.5199  0.7769 -0.4904
16324TIP3    H170387   3.537   6.042   3.534  0.1254  0.3011 -0.4753
16324TIP3    H270388   3.472   6.107   3.414  0.2949  2.2768  0.4784
16325TIP3   OH270389   3.472   3.370   0.573 -0.3024  0.0163 -0.0991
16325TIP3    H170390   3.562   3.365   0.606 -0.2912 -0.9937 -0.2547
16325TIP3    H270391   3.481   3.385   0.479 -0.3260  2.0743  0.2113
16326TIP3   OH270392   6.306   3.004  12.684 -0.5056 -0.1346 -0.4968
16326TIP3    H170393   6.251   3.004  12.762  0.0554  0.7118 -0.0984
16326TIP3    H270394   6.316   3.096  12.661  1.5957 -0.2168  0.0351
16327TIP3   OH270395   0.249   2.505   2.010  0.7016 -0.1304 -0.4408
16327TIP3    H170396   0.247   2.558   1.931 -2.1049  1.7423  0.8228
16327TIP3    H270397   0.157   2.487   2.030  1.2023  1.3124  3.5795
16328TIP3   OH270398   0.886   2.424  16.095 -0.3908 -0.2347  0.4485
16328TIP3    H170399   0.957   2.401  16.036 -0.4990 -1.1637  0.6615
16328TIP3    H270400   0.929   2.451  16.176 -0.2479  0.8566  0.0099
16329TIP3   OH270401   4.369   5.906  16.891 -0.0446  0.3860  0.1937
16329TIP3    H170402   4.298   5.910  16.955  1.4251  0.4494  1.8312
16329TIP3    H270403   4.350   5.978  16.830 -3.0363 -1.4603 -1.1857
16330TIP3   OH270404   3.396   1.129   3.728 -0.0680 -0.3951  0.0899
16330TIP3    H170405   3.324   1.128   3.791 -1.3727 -1.7817 -1.3542
16330TIP3    H270406   3.473   1.152   3.780 -1.2712 -0.5113  1.9909
16331TIP3   OH270407   0.618   1.804  14.195 -0.3107 -0.1048 -0.3454
16331TIP3    H170408   0.556   1.809  14.268  2.0925  2.3225  1.6643
16331TIP3    H270409   0.576   1.854  14.125 -0.1967  2.5796  1.3987
16332TIP3   OH270410   2.128   2.830   4.814 -0.2718 -0.1331  0.7214
16332TIP3    H170411   2.116   2.735   4.816 -2.4391  0.0372 -1.5313
16332TIP3    H270412   2.164   2.847   4.727 -1.6430  1.2395  0.3906
16333TIP3   OH270413   0.248   4.886  13.980  0.2952 -0.1764 -0.3598
16333TIP3    H170414   0.341   4.907  13.986 -0.0243  1.1387 -0.0502
16333TIP3    H270415   0.220   4.924  13.897 -0.0320 -0.3645 -0.3381
16334TIP3   OH270416   1.970   1.092  16.699  0.1352 -0.5872 -0.0127
16334TIP3    H170417   1.923   1.163  16.741 -0.8485 -0.7899 -0.7444
16334TIP3    H270418   2.034   1.135  16.642  1.1633 -0.3163  1.3429
16335TIP3   OH270419   5.005   6.229  13.564 -0.5180 -0.3459  0.1511
16335TIP3    H170420   5.022   6.160  13.628 -1.9169  1.2257  2.2576
16335TIP3    H270421   5.033   6.309  13.606 -0.0735  0.5562 -1.7944
16336TIP3   OH270422   1.228   2.926   2.060  0.4014  0.2888  0.3585
16336TIP3    H170423   1.140   2.890   2.048  0.7404 -0.7720  0.9993
16336TIP3    H270424   1.275   2.900   1.982  0.0329  1.2508 -0.2006
16337TIP3   OH270425   3.579   2.367   5.419  0.1676 -0.6153 -0.0530
16337TIP3    H170426   3.576   2.444   5.363  0.5547 -0.4946  0.0867
16337TIP3    H270427   3.666   2.329   5.402  0.4471 -0.3396  0.7817
16338TIP3   OH270428   4.494   2.706   4.495  0.3056  0.0606  0.4323
16338TIP3    H170429   4.456   2.769   4.556  1.1812  0.8601  0.1658
16338TIP3    H270430   4.458   2.622   4.522 -0.2626  0.5708  1.2888
16339TIP3   OH270431   5.552   0.265   2.935  0.0734 -0.0559 -0.7471
16339TIP3    H170432   5.550   0.252   3.030  1.1106  0.1370 -0.6847
16339TIP3    H270433   5.600   0.189   2.902  2.6932  1.5248 -0.7655
16340TIP3   OH270434   2.883   3.022   5.625  0.1758 -0.0371 -0.2997
16340TIP3    H170435   2.882   2.986   5.536  0.5120  0.3722 -0.4710
16340TIP3    H270436   2.976   3.032   5.645  0.0923  0.1925 -0.0304
16341TIP3   OH270437   4.656   6.111   2.017 -0.2644 -0.3399  0.0065
16341TIP3    H170438   4.710   6.163   2.077  0.6222  0.4958 -1.4894
16341TIP3    H270439   4.698   6.025   2.016  0.1188 -0.1570  0.0525
16342TIP3   OH270440   5.333   1.133   1.649  0.2440 -0.0154  0.1739
16342TIP3    H170441   5.417   1.091   1.632  0.5949  0.6971  0.1171
16342TIP3    H270442   5.289   1.133   1.564  0.2483 -0.2559  0.1716
16343TIP3   OH270443   5.284   3.615  12.938  0.2714 -0.0336  0.0072
16343TIP3    H170444   5.196   3.578  12.935  0.0122  0.5481  0.5140
16343TIP3    H270445   5.305   3.634  12.847 -1.8725  3.9713  0.2301
16344TIP3   OH270446   1.790   5.399  13.560  0.2917  0.6006 -0.0148
16344TIP3    H170447   1.741   5.419  13.480 -0.3899  1.2795  0.5725
16344TIP3    H270448   1.837   5.318  13.540  1.0614  1.4030 -1.5271
16345TIP3   OH270449   2.363   2.766  16.622 -0.6780 -0.2169 -0.0144
16345TIP3    H170450   2.273   2.767  16.587 -0.4520  0.9080 -0.5992
16345TIP3    H270451   2.418   2.745  16.546 -0.4352 -0.7505  0.3092
16346TIP3   OH270452   3.931   1.807   3.694  0.1263  0.0597  0.4407
16346TIP3    H170453   3.954   1.810   3.601 -1.5376  1.4660  0.0383
16346TIP3    H270454   3.866   1.738   3.701  1.5338 -1.2517  0.8952
16347TIP3   OH270455   6.363   3.169   3.687  0.1202  0.3611 -0.1823
16347TIP3    H170456   6.443   3.201   3.728 -1.6749  3.3361  1.1454
16347TIP3    H270457   6.390   3.143   3.598  2.6126  0.7580  0.4200
16348TIP3   OH270458   6.018   3.245  15.669 -0.2654 -0.6869  0.3714
16348TIP3    H170459   5.950   3.279  15.610 -0.4711  0.0288  1.0128
16348TIP3    H270460   6.004   3.293  15.751  0.7992 -0.7880  0.6122
16349TIP3   OH270461   0.871   1.933  15.896  0.1731 -0.2281 -0.6451
16349TIP3    H170462   0.898   2.007  15.841  1.2046 -0.7646 -0.8883
16349TIP3    H270463   0.877   1.857  15.838 -1.1444 -0.4691 -0.4689
16350TIP3   OH270464   0.310   5.159   0.232  0.0027 -0.1671  0.3932
16350TIP3    H170465   0.319   5.251   0.209 -1.6811  0.3810  1.8295
16350TIP3    H270466   0.390   5.138   0.280  0.7001  0.3656 -0.5387
16351TIP3   OH270467   1.348   5.330  11.795 -0.2085  0.6135  0.4159
16351TIP3    H170468   1.271   5.363  11.841  0.2652  0.7315  1.1275
16351TIP3    H270469   1.398   5.409  11.772 -0.1651  0.5219  0.1891
16352TIP3   OH270470   4.714   0.043  12.311  0.3153 -0.0389  0.1703
16352TIP3    H170471   4.700  -0.042  12.269 -0.0805  0.5105 -0.8190
16352TIP3    H270472   4.779   0.026  12.378 -0.0959 -1.2238  0.2756
16353TIP3   OH270473   1.329   1.817  14.430  0.0783 -0.0416  0.2393
16353TIP3    H170474   1.287   1.869  14.361  0.7569 -1.8823 -1.6121
16353TIP3    H270475   1.311   1.866  14.510 -0.0596  2.5962 -1.3130
16354TIP3   OH270476   3.524   4.950   4.205  0.0580  0.2044  0.0538
16354TIP3    H170477   3.443   4.985   4.167 -0.0554 -0.4207 -0.3056
16354TIP3    H270478   3.509   4.855   4.208  0.4676  0.1575  0.7243
16355TIP3   OH270479   3.308   2.401   1.179  0.1335 -0.0411 -0.2536
16355TIP3    H170480   3.315   2.496   1.174  0.3080 -0.0273  0.2680
16355TIP3    H270481   3.242   2.385   1.247  0.1997 -0.2943 -0.2470
16356TIP3   OH270482   4.422   1.813   1.473  0.4954 -0.1551 -0.2511
16356TIP3    H170483   4.458   1.733   1.435 -0.3810 -1.0941  0.8772
16356TIP3    H270484   4.464   1.884   1.423  1.1774 -1.3045 -1.3415
16357TIP3   OH270485   1.481   3.296   5.516 -0.1707 -0.2949 -0.4072
16357TIP3    H170486   1.552   3.298   5.452 -1.0455  1.7227 -1.3755
16357TIP3    H270487   1.497   3.217   5.568  1.9157 -0.6670 -1.5639
16358TIP3   OH270488   1.301   5.184   6.517 -0.3058  0.1111  0.5148
16358TIP3    H170489   1.322   5.134   6.596 -2.6088 -2.6835 -0.5773
16358TIP3    H270490   1.349   5.139   6.447 -0.9370  0.5477 -0.2052
16359TIP3   OH270491   1.846   2.809  12.153 -0.3552 -0.0659 -0.3219
16359TIP3    H170492   1.823   2.876  12.089 -1.8891 -0.7717 -0.5441
16359TIP3    H270493   1.937   2.827  12.176 -1.3282  3.3372  1.1446
16360TIP3   OH270494   4.172   6.025  16.328  0.0890  0.2107 -0.1559
16360TIP3    H170495   4.152   5.932  16.336  0.8416  0.1218  0.9422
16360TIP3    H270496   4.128   6.053  16.249  1.3714 -1.4931 -1.5175
16361TIP3   OH270497   3.859   5.449   6.302 -0.0747  0.1818 -0.6081
16361TIP3    H170498   3.884   5.486   6.217  2.6699 -1.7242 -0.6932
16361TIP3    H270499   3.766   5.469   6.310  0.2849  3.0015 -2.7049
16362TIP3   OH270500   2.284   5.448  11.688 -0.4829 -0.8898  0.0549
16362TIP3    H170501   2.210   5.423  11.632  0.8774 -4.8605 -0.1452
16362TIP3    H270502   2.323   5.523  11.643 -1.7268 -1.5540 -2.2533
16363TIP3   OH270503   5.038   1.665  13.619 -0.0227  0.2371  0.8255
16363TIP3    H170504   5.077   1.738  13.570 -0.9746  0.2231  0.0339
16363TIP3    H270505   5.100   1.648  13.690  3.0328 -1.8263 -2.1690
16364TIP3   OH270506   1.517   5.408   3.086  0.3453 -0.2688 -0.6429
16364TIP3    H170507   1.459   5.374   3.154 -0.3308  2.0745 -0.0162
16364TIP3    H270508   1.602   5.417   3.129 -0.0203  0.9638 -0.1508
16365TIP3   OH270509   6.444   1.841  11.140  0.0481  0.3067  0.1773
16365TIP3    H170510   6.361   1.883  11.163 -0.5057 -0.8624  0.3416
16365TIP3    H270511   6.454   1.858  11.046 -0.2761  0.6280  0.2023
16366TIP3   OH270512   1.777   1.969   1.336  0.2770 -0.1900  0.7884
16366TIP3    H170513   1.756   1.971   1.430  0.1172 -0.3367  0.7571
16366TIP3    H270514   1.698   1.933   1.295  1.0944 -2.0288  0.8074
16367TIP3   OH270515   5.066   1.565   0.998 -0.6588 -0.4372 -0.0935
16367TIP3    H170516   5.152   1.607   1.005 -0.9423  0.1362  0.0038
16367TIP3    H270517   5.038   1.583   0.908 -0.1721 -1.6156 -0.4870
16368TIP3   OH270518   5.805   2.382   1.430  0.2952  0.0547  0.2585
16368TIP3    H170519   5.735   2.440   1.457 -0.3399 -1.0035  0.9301
16368TIP3    H270520   5.885   2.435   1.438 -0.3535  1.0632  0.0787
16369TIP3   OH270521   3.303   1.202  13.325 -0.1336  0.5902  0.1435
16369TIP3    H170522   3.283   1.119  13.281  1.1581  0.7374 -0.7534
16369TIP3    H270523   3.240   1.264  13.288  1.1014  0.7725 -1.7351
16370TIP3   OH270524   4.953   2.621  12.610 -0.2422 -0.0963  0.1382
16370TIP3    H170525   4.946   2.713  12.632 -0.0076  0.0699 -0.4773
16370TIP3    H270526   4.999   2.582  12.684  0.7188  0.4943 -0.1479
16371TIP3   OH270527   2.572   1.039  13.627  0.5399 -0.1414  0.3166
16371TIP3    H170528   2.625   0.974  13.581 -0.3054 -0.5277 -0.1316
16371TIP3    H270529   2.492   0.991  13.651 -0.4563  0.9435 -0.7473
16372TIP3   OH270530   5.142   0.364   4.941  0.2145  0.3084 -0.0852
16372TIP3    H170531   5.112   0.295   4.883  1.5698  0.0379 -0.4805
16372TIP3    H270532   5.131   0.328   5.029 -2.1827  0.8546 -0.1177
16373TIP3   OH270533   4.650   6.272  13.250 -0.1199  0.1968 -0.4805
16373TIP3    H170534   4.559   6.302  13.247  0.6019  2.3481 -3.3705
16373TIP3    H270535   4.655   6.204  13.182  0.9081  1.6402 -1.8778
16374TIP3   OH270536   6.185   5.487   2.964 -0.0955 -0.0230 -0.1786
16374TIP3    H170537   6.154   5.412   2.915  1.6457 -0.3819 -0.7887
16374TIP3    H270538   6.225   5.449   3.043  1.2556  0.1867 -0.7380
16375TIP3   OH270539   3.090   6.475   2.002  0.3320  1.0837  0.1247
16375TIP3    H170540   3.101   6.555   2.053 -0.4409 -0.4666  2.8213
16375TIP3    H270541   3.156   6.415   2.037 -1.7954 -0.8116  0.9855
16376TIP3   OH270542   2.063   3.137   5.330 -0.1854 -0.3765  0.7403
16376TIP3    H170543   1.992   3.087   5.289  0.6446 -1.3322  0.4571
16376TIP3    H270544   2.125   3.153   5.259  0.8015 -1.2146  1.3842
16377TIP3   OH270545   6.345   6.696   3.415 -0.2855 -0.1885  0.4665
16377TIP3    H170546   6.440   6.700   3.429 -0.2196  0.7408 -0.2215
16377TIP3    H270547   6.315   6.631   3.478  0.9642 -1.3700 -0.1304
16378TIP3   OH270548   0.062   3.754   0.545 -0.9374 -0.3423 -0.6603
16378TIP3    H170549   0.114   3.699   0.488  0.4388 -0.1761  0.4171
16378TIP3    H270550  -0.001   3.695   0.586 -1.8618 -0.4730 -2.2649
16379TIP3   OH270551   0.844   4.446  13.099 -0.1475 -0.2608 -0.1324
16379TIP3    H170552   0.782   4.408  13.162 -1.3961 -1.1436 -1.8367
16379TIP3    H270553   0.912   4.487  13.153 -2.3204  0.9248  1.8133
16380TIP3   OH270554   0.835   5.838   3.123  0.2233 -0.1616 -0.6155
16380TIP3    H170555   0.877   5.921   3.102  0.5481 -0.2399 -0.2886
16380TIP3    H270556   0.893   5.771   3.086  0.8181 -0.2999  0.5302
16381TIP3   OH270557   4.797   5.392   2.803  1.1145 -0.3139 -0.3700
16381TIP3    H170558   4.790   5.300   2.829  1.2358 -0.4176 -0.7088
16381TIP3    H270559   4.784   5.440   2.885 -0.3140 -0.5918 -0.4163
16382TIP3   OH270560   4.094   1.477   5.984  0.1276  0.7903 -0.4304
16382TIP3    H170561   4.093   1.485   5.889  1.0879 -0.5352 -0.5803
16382TIP3    H270562   4.104   1.566   6.016 -0.1414  1.2418 -1.5762
16383TIP3   OH270563   2.332   4.787   5.891 -0.1767 -0.5222 -0.3153
16383TIP3    H170564   2.314   4.878   5.914  1.0731 -0.1326 -0.8217
16383TIP3    H270565   2.354   4.745   5.974  0.5872 -0.0308 -0.2671
16384TIP3   OH270566   1.391   6.065   2.845 -0.1520  0.3201  0.2640
16384TIP3    H170567   1.331   6.131   2.880 -2.5030 -2.0711  0.9726
16384TIP3    H270568   1.416   6.013   2.922  2.7235  1.1450 -0.0616
16385TIP3   OH270569   6.558   4.040   5.737  0.0033 -0.1322 -0.2476
16385TIP3    H170570   6.502   4.097   5.790 -1.2576 -0.3834 -1.2718
16385TIP3    H270571   6.587   3.972   5.798  1.0340  1.2660  0.8348
16386TIP3   OH270572   1.346   2.457  15.558  0.5813 -0.0238  0.2374
16386TIP3    H170573   1.369   2.544  15.526 -1.1899 -0.1125 -1.3422
16386TIP3    H270574   1.319   2.472  15.649  2.3483  0.7336  0.6684
16387TIP3   OH270575   3.048   6.728  11.531  0.1511 -0.4242  0.6569
16387TIP3    H170576   3.101   6.807  11.538  0.4195 -0.6412  1.0569
16387TIP3    H270577   2.958   6.760  11.527  0.4078  0.0727 -2.2593
16388TIP3   OH270578   1.099   3.173  11.001 -0.4296  0.1535  0.0772
16388TIP3    H170579   1.167   3.227  11.040 -1.8596  1.4294  0.8698
16388TIP3    H270580   1.019   3.224  11.012 -1.9168 -2.3789  1.4372
16389TIP3   OH270581   6.570   6.001  15.212  0.1820  0.2655  0.5223
16389TIP3    H170582   6.617   6.016  15.130 -1.5304  0.4302 -0.4561
16389TIP3    H270583   6.600   6.070  15.271  0.8936  0.5722 -0.1994
16390TIP3   OH270584   3.487   2.136   3.173 -0.0332  0.5320  0.0699
16390TIP3    H170585   3.395   2.110   3.163 -0.0167  0.5434 -0.1077
16390TIP3    H270586   3.531   2.101   3.096 -0.3790  2.7127 -1.1399
16391TIP3   OH270587   5.075   2.052  16.411  0.2953  0.5554  1.0654
16391TIP3    H170588   4.985   2.082  16.395  0.1372  0.0145  0.9072
16391TIP3    H270589   5.116   2.052  16.325 -0.1010 -0.9177  0.8509
16392TIP3   OH270590   2.831   3.698   0.842  0.4721 -0.2808 -0.6764
16392TIP3    H170591   2.744   3.687   0.803 -0.6375  2.0397  0.9621
16392TIP3    H270592   2.833   3.635   0.914  0.1986 -0.4421 -0.8097
16393TIP3   OH270593   2.695   6.688  14.956  0.1701 -0.5731 -0.3574
16393TIP3    H170594   2.720   6.707  14.865  1.4571 -0.3454  0.0352
16393TIP3    H270595   2.778   6.676  15.002 -0.5052 -2.8538  0.3431
16394TIP3   OH270596   0.289   2.305   2.793 -0.5518  0.2202 -0.2020
16394TIP3    H170597   0.337   2.354   2.860 -1.4879  0.2125  0.4749
16394TIP3    H270598   0.358   2.263   2.740  0.2621  2.4671 -0.9596
16395TIP3   OH270599   0.734   1.963  13.341  0.7405  0.0693 -0.4611
16395TIP3    H170600   0.729   1.869  13.329  1.4778 -0.0926  0.4437
16395TIP3    H270601   0.810   1.990  13.291  0.6661  0.1535 -0.5294
16396TIP3   OH270602   1.509   1.658   1.229  0.2946 -0.2532 -1.0024
16396TIP3    H170603   1.578   1.642   1.293  0.3235 -1.0679 -1.2289
16396TIP3    H270604   1.515   1.752   1.209  1.7919 -0.4478 -1.5471
16397TIP3   OH270605   1.160   4.200   1.660 -0.0738 -0.5379 -0.2400
16397TIP3    H170606   1.224   4.240   1.601 -0.9264 -0.2759 -0.9921
16397TIP3    H270607   1.204   4.198   1.745  0.4951  0.7234 -0.4949
16398TIP3   OH270608   5.957   6.370   2.134 -0.2972  0.3459  0.6920
16398TIP3    H170609   5.966   6.331   2.221  0.5599 -0.1962  0.3672
16398TIP3    H270610   5.888   6.318   2.092  0.3064 -0.3282  0.5334
16399TIP3   OH270611   5.309   2.477  11.785 -0.1702  0.0167 -0.1893
16399TIP3    H170612   5.289   2.385  11.799 -2.2698  0.5249  0.4326
16399TIP3    H270613   5.377   2.497  11.849 -0.7171 -0.7665  0.6519
16400TIP3   OH270614   1.733   6.033   5.479 -0.2130  0.2822  0.7716
16400TIP3    H170615   1.732   6.100   5.411  2.8500 -0.1282  0.2545
16400TIP3    H270616   1.768   6.078   5.556  0.3591 -0.3150  0.8657
16401TIP3   OH270617   0.309   3.686  13.835  0.0167  0.4670 -0.4253
16401TIP3    H170618   0.393   3.713  13.796  0.6482 -1.2798 -0.3230
16401TIP3    H270619   0.334   3.631  13.909 -1.2216  1.5267  0.8174
16402TIP3   OH270620   0.765   4.810   2.837 -0.1510 -0.1392  0.0916
16402TIP3    H170621   0.763   4.714   2.837  0.8820 -0.1589  0.0985
16402TIP3    H270622   0.854   4.833   2.811 -0.7037  0.8318 -0.9921
16403TIP3   OH270623   2.343   1.132   0.330  0.4108  0.9608  0.1873
16403TIP3    H170624   2.263   1.176   0.302  0.2104  0.4807  0.0018
16403TIP3    H270625   2.407   1.203   0.340  0.0420  1.3137  0.0717
16404TIP3   OH270626   4.141   2.010   5.781 -0.3304  0.4419  0.3384
16404TIP3    H170627   4.081   2.013   5.707  0.6512 -1.6057 -0.5614
16404TIP3    H270628   4.208   1.948   5.755  0.4282  0.2512  2.6649
16405TIP3   OH270629   6.494   2.023  14.772  0.2688  0.5644 -0.2122
16405TIP3    H170630   6.502   1.973  14.691 -1.6854 -0.8624  0.4450
16405TIP3    H270631   6.558   1.984  14.831  0.6950  0.6779 -0.5933
16406TIP3   OH270632   1.388   0.793   4.429  0.0225 -0.0961 -0.3200
16406TIP3    H170633   1.426   0.777   4.516 -0.9836 -3.9600 -0.4721
16406TIP3    H270634   1.293   0.798   4.445 -0.0612  0.5838 -1.0187
16407TIP3   OH270635   5.763   4.864  14.340  0.7228 -0.3551  0.4495
16407TIP3    H170636   5.844   4.825  14.306  0.9140 -0.1800  0.6944
16407TIP3    H270637   5.693   4.819  14.294  1.0010  0.6093 -0.9802
16408TIP3   OH270638   3.361   1.647  16.641  0.1082  0.5313  0.5053
16408TIP3    H170639   3.389   1.568  16.687  0.8903  1.2673  1.3350
16408TIP3    H270640   3.370   1.626  16.548  3.1788  0.6188  0.7247
16409TIP3   OH270641   6.077   0.662   2.809  0.0961 -0.4866  0.1048
16409TIP3    H170642   6.121   0.615   2.880  1.5467  0.4558 -0.1398
16409TIP3    H270643   6.030   0.733   2.853 -1.3450 -1.5902  0.3832
16410TIP3   OH270644   6.066   4.613   0.842 -0.2755  0.0069  0.1986
16410TIP3    H170645   5.981   4.653   0.859 -0.0651  0.3628  0.4089
16410TIP3    H270646   6.048   4.519   0.842 -0.6959  0.0842  0.0909
16411TIP3   OH270647   3.548   6.740  15.958 -0.1114  0.0396  0.4658
16411TIP3    H170648   3.479   6.727  15.893 -0.8752  1.1019  1.0370
16411TIP3    H270649   3.619   6.683  15.930 -1.0426 -0.7129 -0.4040
16412TIP3   OH270650   3.411   5.803  16.142 -0.3650 -0.3532 -0.6655
16412TIP3    H170651   3.331   5.801  16.195 -0.2981 -0.8037 -0.5713
16412TIP3    H270652   3.400   5.732  16.079  0.0268 -0.5306 -0.5437
16413TIP3   OH270653   6.692   3.208  10.801 -0.6012  0.1508 -0.0855
16413TIP3    H170654   6.668   3.237  10.713  1.2378  1.8998 -0.0314
16413TIP3    H270655   6.778   3.166  10.790 -0.2479  0.5948  0.9157
16414TIP3   OH270656   4.351   2.858  12.128  0.8986  0.3318  0.3403
16414TIP3    H170657   4.360   2.916  12.204 -0.1730 -0.3838  1.0438
16414TIP3    H270658   4.380   2.772  12.160 -0.1029 -0.0969  0.1215
16415TIP3   OH270659   0.664   1.107  11.449 -0.3007 -0.1264  0.1347
16415TIP3    H170660   0.709   1.183  11.413 -2.3416  0.9367 -0.2236
16415TIP3    H270661   0.712   1.032  11.414  2.3714  0.9751  1.3336
16416TIP3   OH270662   4.889   0.493  13.132 -0.7176 -0.8589  0.1320
16416TIP3    H170663   4.872   0.512  13.225 -1.0890 -2.1496  0.3308
16416TIP3    H270664   4.983   0.472  13.129 -0.7009 -0.7965  0.2109
16417TIP3   OH270665   0.408   6.590  11.886 -0.0874  0.3348  0.1798
16417TIP3    H170666   0.476   6.612  11.823 -0.5729 -1.3544 -0.9501
16417TIP3    H270667   0.330   6.635  11.853 -0.2980 -0.3972 -0.3035
16418TIP3   OH270668   0.711   2.813   0.225 -0.2028  0.6642 -0.0781
16418TIP3    H170669   0.705   2.755   0.302  0.4581  2.4132  1.3202
16418TIP3    H270670   0.639   2.785   0.169 -0.5807 -0.7877  1.0723
16419TIP3   OH270671   2.165   3.188   4.353 -0.4636  0.2127  0.4746
16419TIP3    H170672   2.103   3.128   4.394  0.4746 -0.0109  1.6217
16419TIP3    H270673   2.239   3.133   4.327 -0.1953  0.6569  0.2737
16420TIP3   OH270674   1.699   6.319  14.220  0.7501  0.9724 -0.6433
16420TIP3    H170675   1.730   6.370  14.294  2.1071 -0.3908 -0.2477
16420TIP3    H270676   1.729   6.369  14.143  3.6057 -0.0559 -0.2744
16421TIP3   OH270677   6.574   2.399  11.577 -0.0144  0.1553 -0.1685
16421TIP3    H170678   6.533   2.325  11.622  0.6324  0.9463  1.7608
16421TIP3    H270679   6.504   2.436  11.523 -1.2155  0.0859  1.3214
16422TIP3   OH270680   4.761   0.054   5.688  0.3737  0.4513  0.3362
16422TIP3    H170681   4.783   0.131   5.634  1.1482 -0.1630 -0.2288
16422TIP3    H270682   4.846   0.022   5.720 -0.0760  0.8206  1.9534
16423TIP3   OH270683   4.786   0.136   2.592 -0.4314 -0.3038  0.1554
16423TIP3    H170684   4.720   0.095   2.648  1.1868 -3.0648  0.1363
16423TIP3    H270685   4.822   0.206   2.645 -0.3247 -1.5888  1.8357
16424TIP3   OH270686   0.202   6.681  13.439 -0.1086  0.9590  0.0623
16424TIP3    H170687   0.214   6.689  13.345  1.0575  1.2921  0.2323
16424TIP3    H270688   0.153   6.599  13.450  0.2765  0.6038 -0.7942
16425TIP3   OH270689   3.956   1.366   4.757  0.4149  0.3867  0.1481
16425TIP3    H170690   3.879   1.418   4.738  0.7077  0.7785  0.0339
16425TIP3    H270691   3.959   1.300   4.688  1.5825  1.9184 -1.3002
16426TIP3   OH270692   1.728   2.563  15.145 -0.2572  0.0203 -0.2942
16426TIP3    H170693   1.805   2.584  15.198  0.0311 -1.9176  0.0805
16426TIP3    H270694   1.757   2.572  15.055  0.1899  0.0260 -0.1490
16427TIP3   OH270695   2.873   4.320   0.882  0.0613  0.4194  0.3040
16427TIP3    H170696   2.915   4.253   0.827 -0.1826 -0.0551  0.6954
16427TIP3    H270697   2.904   4.403   0.845 -0.9688  0.1371 -1.2551
16428TIP3   OH270698   1.928   1.657   3.991 -0.0574 -0.4997  0.0789
16428TIP3    H170699   2.007   1.655   4.045  0.2807 -1.9004 -0.4439
16428TIP3    H270700   1.870   1.591   4.031 -0.8722  0.3537  0.3215
16429TIP3   OH270701   3.175   6.447  13.010  0.1089 -0.4994  0.8201
16429TIP3    H170702   3.195   6.534  12.974  0.2111 -0.7931  0.1636
16429TIP3    H270703   3.083   6.452  13.034 -0.2780 -0.6726 -0.5866
16430TIP3   OH270704   3.526   0.190   3.734 -0.6008  0.9123  1.0550
16430TIP3    H170705   3.494   0.147   3.814 -1.1994  3.1890  2.0757
16430TIP3    H270706   3.452   0.242   3.704 -0.0462  0.8554 -0.4463
16431TIP3   OH270707   6.303   4.195   4.085  0.1131  0.0360 -0.3537
16431TIP3    H170708   6.254   4.130   4.035 -0.1844 -1.2541  1.5593
16431TIP3    H270709   6.246   4.218   4.158  1.3828  0.3104  0.5787
16432TIP3   OH270710   2.718   1.954   4.663  0.1531  0.5302  0.0140
16432TIP3    H170711   2.796   2.008   4.671 -0.4102  1.1025  1.7931
16432TIP3    H270712   2.645   2.015   4.665 -0.3876 -0.0683 -0.8304
16433TIP3   OH270713   1.128   3.484  11.035  0.3190 -0.3682  0.6318
16433TIP3    H170714   1.044   3.509  10.996  1.5788 -0.3627 -2.1722
16433TIP3    H270715   1.113   3.490  11.130 -2.4267  0.9473  0.1630
16434TIP3   OH270716   1.438   6.333  14.728 -0.0870 -0.2266 -0.2804
16434TIP3    H170717   1.421   6.316  14.821  1.2750 -0.6935 -0.1089
16434TIP3    H270718   1.517   6.283  14.709 -0.0105  0.3690 -1.5453
16435TIP3   OH270719   0.407   5.984   6.466 -0.1288  0.3230 -0.0186
16435TIP3    H170720   0.441   5.956   6.551  0.4497  1.6352  0.1817
16435TIP3    H270721   0.461   5.937   6.403  0.1864  0.2173  0.3221
16436TIP3   OH270722   3.666   3.211  14.212 -0.4646 -0.0695 -0.0554
16436TIP3    H170723   3.604   3.283  14.208  1.2625  1.6676  2.6655
16436TIP3    H270724   3.748   3.248  14.180 -0.1508 -1.5907 -1.0831
16437TIP3   OH270725   0.373   4.787  12.762 -0.7085  0.0117 -0.1666
16437TIP3    H170726   0.312   4.798  12.834  0.4145 -1.9757  1.1496
16437TIP3    H270727   0.460   4.790  12.803  0.1188  2.4707 -1.9481
16438TIP3   OH270728   1.896   5.991   5.101 -0.1390 -0.2266 -0.2068
16438TIP3    H170729   1.972   5.956   5.054 -0.4693  0.6943 -1.4543
16438TIP3    H270730   1.934   6.051   5.165  0.3488 -1.9121  1.1210
16439TIP3   OH270731   4.081   4.211   6.771 -0.0132 -0.4358 -0.6523
16439TIP3    H170732   4.088   4.304   6.792 -2.3826 -0.4365  0.3790
16439TIP3    H270733   4.117   4.203   6.683  1.0762  1.2893 -0.3840
16440TIP3   OH270734   4.484   1.107  12.100 -0.0290 -0.5575  0.2940
16440TIP3    H170735   4.435   1.096  12.018 -1.7689  1.0971  1.0853
16440TIP3    H270736   4.436   1.055  12.164  0.6656 -0.8891  0.5619
16441TIP3   OH270737   1.605   5.337   1.096 -0.3420 -0.0882 -0.3412
16441TIP3    H170738   1.675   5.347   1.031 -0.4804  1.2008 -0.3042
16441TIP3    H270739   1.615   5.413   1.153 -0.8772 -0.6657  0.5256
16442TIP3   OH270740   5.121   3.290   5.710 -0.4264  0.9357 -0.2317
16442TIP3    H170741   5.158   3.229   5.775  1.5592  1.1131 -1.1508
16442TIP3    H270742   5.193   3.350   5.691 -1.1280  1.1491 -2.2887
16443TIP3   OH270743   4.599   1.919   3.476  0.4363 -0.4543  0.3561
16443TIP3    H170744   4.520   1.885   3.519  0.3595 -2.0244 -0.9381
16443TIP3    H270745   4.623   1.850   3.414  3.4818 -0.5095  1.5084
16444TIP3   OH270746   1.779   5.060  13.780  0.3754 -0.4407  0.2721
16444TIP3    H170747   1.805   5.072  13.688  2.4961 -1.3338  0.7122
16444TIP3    H270748   1.810   5.140  13.824  0.8587 -0.7487  0.4968
16445TIP3   OH270749   1.312   3.442  11.458  0.1916 -0.3146 -0.8693
16445TIP3    H170750   1.399   3.466  11.490 -0.6214  1.0899  0.3533
16445TIP3    H270751   1.297   3.354  11.494 -0.0543  0.5986  1.3487
16446TIP3   OH270752   1.150   1.254  14.714  0.2578  0.1438 -0.0648
16446TIP3    H170753   1.189   1.167  14.726  1.2687  0.7497  1.1469
16446TIP3    H270754   1.215   1.302  14.664 -0.5798  0.0151 -1.2868
16447TIP3   OH270755   1.628   4.232   4.400  0.3518  0.2958  0.0613
16447TIP3    H170756   1.593   4.275   4.322 -2.8986 -0.9071  0.7600
16447TIP3    H270757   1.613   4.294   4.471  0.2907  0.0617  0.2561
16448TIP3   OH270758   5.503   1.688   2.425  0.3611 -0.5045  1.1830
16448TIP3    H170759   5.573   1.736   2.470  0.7203 -1.2487  1.4284
16448TIP3    H270760   5.514   1.597   2.454 -0.3874 -0.7157  0.8178
16449TIP3   OH270761   2.119   6.013   4.862 -0.2977 -0.7123  0.3576
16449TIP3    H170762   2.105   5.956   4.786 -2.6194 -0.1317  0.3266
16449TIP3    H270763   2.208   6.047   4.849 -0.5796 -0.7471 -2.0341
16450TIP3   OH270764   5.287   1.074  15.516 -0.1885 -0.5625  0.5029
16450TIP3    H170765   5.198   1.109  15.522 -0.0173 -0.1445  0.6802
16450TIP3    H270766   5.334   1.119  15.587  0.2871 -0.4069  0.0917
16451TIP3   OH270767   5.307   5.683   4.929  0.1074 -0.3010 -0.3400
16451TIP3    H170768   5.212   5.687   4.917  0.2382  1.3779 -1.0373
16451TIP3    H270769   5.342   5.740   4.860  1.5366  0.1386  0.7266
16452TIP3   OH270770   1.303   3.816   3.943 -0.7206  0.2319  0.2304
16452TIP3    H170771   1.278   3.836   4.033 -0.9469 -1.0980  0.4747
16452TIP3    H270772   1.349   3.732   3.949 -0.9941 -0.0092 -0.9351
16453TIP3   OH270773   1.660   5.718  14.444  0.0038  0.0532  0.1356
16453TIP3    H170774   1.705   5.637  14.470 -0.6440 -0.3190  0.1082
16453TIP3    H270775   1.570   5.706  14.476  0.0231  0.9484  0.5186
16454TIP3   OH270776   0.713   5.340  10.955 -0.4805 -0.2717  0.2108
16454TIP3    H170777   0.804   5.313  10.943 -0.2781 -0.3346  1.7078
16454TIP3    H270778   0.687   5.379  10.872  1.6733  1.9325  0.5347
16455TIP3   OH270779   2.912   6.581   4.532 -0.2176 -0.4619  0.3265
16455TIP3    H170780   2.934   6.673   4.515  0.0727 -0.6548 -0.3221
16455TIP3    H270781   2.819   6.583   4.557 -0.5345 -0.1404 -0.8820
16456TIP3   OH270782   4.996   5.837  13.466 -0.4161  0.6786 -0.0417
16456TIP3    H170783   5.040   5.827  13.550  0.0803  0.6406 -0.3014
16456TIP3    H270784   5.039   5.773  13.409 -1.3129  0.1125 -0.1075
16457TIP3   OH270785   1.330   4.251   3.955 -0.1914 -0.4040  0.3261
16457TIP3    H170786   1.288   4.232   4.039 -0.4969  0.2736  0.3314
16457TIP3    H270787   1.331   4.168   3.909  0.3036 -0.8663  1.1450
16458TIP3   OH270788   0.456   5.439  14.591 -0.4818 -0.4851 -0.0560
16458TIP3    H170789   0.475   5.484  14.674 -1.0093 -0.0628 -0.1596
16458TIP3    H270790   0.538   5.396  14.567 -1.3136 -3.7679  2.6061
16459TIP3   OH270791   2.906   6.509   3.400 -0.0434 -0.2739 -0.0461
16459TIP3    H170792   2.918   6.548   3.313  1.2327 -0.9963 -0.2041
16459TIP3    H270793   2.994   6.483   3.427 -0.3672  0.3892  1.6806
16460TIP3   OH270794   0.798   0.755   5.449  0.1780  0.4950 -0.2573
16460TIP3    H170795   0.712   0.759   5.490  0.4104  0.0493  0.2717
16460TIP3    H270796   0.794   0.821   5.380 -0.4033  0.8547  0.1137
16461TIP3   OH270797   3.593   6.301  15.066  0.2655 -0.3863  0.4093
16461TIP3    H170798   3.652   6.227  15.079 -0.5271 -1.5766 -2.2272
16461TIP3    H270799   3.508   6.260  15.048 -0.4084  1.1724 -0.0285
16462TIP3   OH270800   2.728   1.185  16.866  0.1835  0.2262  0.2134
16462TIP3    H170801   2.750   1.118  16.801 -0.0019 -1.6154  2.0203
16462TIP3    H270802   2.666   1.242  16.821 -0.5898 -1.5029 -0.9661
16463TIP3   OH270803   6.016   2.893  14.451  0.2949  0.3324  0.2476
16463TIP3    H170804   6.016   2.898  14.355  1.8667  0.3301  0.2353
16463TIP3    H270805   5.948   2.954  14.478  1.4504  2.1554 -0.8072
16464TIP3   OH270806   0.484   2.809   2.187 -0.2517 -0.1652 -0.2075
16464TIP3    H170807   0.494   2.897   2.152 -0.8636  0.4980  1.2516
16464TIP3    H270808   0.393   2.805   2.216  0.2419 -0.6792  1.3081
16465TIP3   OH270809   1.617   6.373   5.600  0.0670  0.1276 -0.3198
16465TIP3    H170810   1.646   6.464   5.598 -0.9872  0.4951  0.7203
16465TIP3    H270811   1.577   6.358   5.514  1.2753  0.2914 -0.9188
16466TIP3   OH270812   3.170   6.296  16.598 -0.3337  0.4154 -0.0543
16466TIP3    H170813   3.172   6.220  16.655 -1.2691  0.7495  0.4268
16466TIP3    H270814   3.241   6.281  16.535  0.0412 -0.4297  0.5716
16467TIP3   OH270815   0.521   5.205  13.093  0.2817  0.3407 -0.5945
16467TIP3    H170816   0.538   5.186  13.001  4.3093  0.7389 -0.0374
16467TIP3    H270817   0.537   5.122  13.138  1.8892  0.9694  0.0665
16468TIP3   OH270818   6.304   6.742  12.928  0.0212 -0.3679  0.2130
16468TIP3    H170819   6.305   6.834  12.900  0.1881 -0.0929  1.1127
16468TIP3    H270820   6.291   6.746  13.022 -2.5482 -1.3491 -0.0686
16469TIP3   OH270821   4.392   6.483   5.583  0.0258  0.2457  1.1816
16469TIP3    H170822   4.469   6.535   5.561 -0.7161  0.3393 -1.3502
16469TIP3    H270823   4.334   6.544   5.629 -0.1546  1.2325 -0.3309
16470TIP3   OH270824   2.755   1.601  10.150 -0.0112 -0.1416 -0.4405
16470TIP3    H170825   2.767   1.622  10.242  0.3482  1.0535 -0.7575
16470TIP3    H270826   2.838   1.623  10.109 -0.8504  1.3110 -1.4035
16471TIP3   OH270827   3.119   0.038  17.114  0.0147 -0.1368  0.2837
16471TIP3    H170828   3.084   0.062  17.028  2.0585  0.9122 -0.3135
16471TIP3    H270829   3.166  -0.044  17.099  1.1079  0.4876  0.1607
16472TIP3   OH270830   1.378   3.232  11.055 -0.8666  0.3394 -0.1955
16472TIP3    H170831   1.399   3.319  11.089 -0.3246  0.3113 -0.4527
16472TIP3    H270832   1.334   3.187  11.128 -1.6555  1.0195 -0.2511
16473TIP3   OH270833   6.170   0.449   5.020  0.0718  0.0713  0.4069
16473TIP3    H170834   6.231   0.375   5.013 -2.1830 -1.8349 -0.1101
16473TIP3    H270835   6.226   0.526   5.028  2.5316 -1.4678 -1.2371
16474TIP3   OH270836   1.134   2.867  14.406 -0.1971  0.2215 -0.0615
16474TIP3    H170837   1.202   2.810  14.370  0.4592  1.0939 -0.2332
16474TIP3    H270838   1.149   2.864  14.501  0.3127  0.6906 -0.1231
16475TIP3   OH270839   1.280   3.838  12.842 -0.7760  0.3517  0.0620
16475TIP3    H170840   1.264   3.853  12.935 -1.8923  0.1722 -0.0889
16475TIP3    H270841   1.193   3.819  12.806 -0.1932 -0.6738 -0.8132
16476TIP3   OH270842   1.422   0.541   3.337  0.0165  0.6778 -0.0581
16476TIP3    H170843   1.463   0.550   3.423  1.0443  0.2319 -0.4919
16476TIP3    H270844   1.339   0.588   3.345  0.5903  1.5730  0.8556
16477TIP3   OH270845   6.308   0.595  12.055  0.2649  0.1360 -0.3835
16477TIP3    H170846   6.259   0.676  12.040 -2.2891 -1.1666  0.5801
16477TIP3    H270847   6.275   0.562  12.139  3.1916 -0.5680  0.5706
16478TIP3   OH270848   0.947   0.293  15.197  1.1059  0.4784 -0.0381
16478TIP3    H170849   0.882   0.246  15.249  0.6649 -1.4153 -2.2347
16478TIP3    H270850   0.897   0.361  15.150  0.8191 -0.4649 -1.1163
16479TIP3   OH270851   2.494   3.057   0.404  0.2915  0.2627  0.9446
16479TIP3    H170852   2.570   3.082   0.456  1.2899 -1.9128  0.5783
16479TIP3    H270853   2.430   3.127   0.420  1.6321  1.1079  2.7884
16480TIP3   OH270854   5.785   1.494  17.228  0.4015  0.0693 -0.4267
16480TIP3    H170855   5.854   1.447  17.181  2.2399  1.4824  0.7872
16480TIP3    H270856   5.801   1.473  17.320 -2.5047 -1.8087 -0.3012
16481TIP3   OH270857   0.272   2.120   3.342 -0.4638 -0.4199  0.0426
16481TIP3    H170858   0.241   2.137   3.431  1.2549  1.5207  0.2955
16481TIP3    H270859   0.289   2.026   3.341 -2.2395 -0.7887  1.1844
16482TIP3   OH270860   5.238   2.886  11.969  0.3405 -0.1355  0.1572
16482TIP3    H170861   5.287   2.889  12.050  0.9896 -0.6400 -0.2166
16482TIP3    H270862   5.163   2.944  11.984  0.9743  0.5376  0.7707
16483TIP3   OH270863   0.107   2.630  14.827  0.4096  0.1671  0.3188
16483TIP3    H170864   0.064   2.710  14.795 -0.2539 -0.7246 -1.0495
16483TIP3    H270865   0.043   2.592  14.888  0.9490  0.9383  1.3974
16484TIP3   OH270866   2.048   0.862   0.472  0.3868 -0.8869 -0.1998
16484TIP3    H170867   2.098   0.780   0.468  0.5480 -0.8162  0.3521
16484TIP3    H270868   1.980   0.845   0.537  0.6589 -0.4477  0.2003
16485TIP3   OH270869   5.831   2.049  11.077  0.2479 -0.3164 -0.4297
16485TIP3    H170870   5.923   2.024  11.076  0.2618 -0.3678  0.6988
16485TIP3    H270871   5.827   2.132  11.030  0.3085 -2.0642 -3.6514
16486TIP3   OH270872   2.270   6.538  13.719  0.5087  0.3267  0.1591
16486TIP3    H170873   2.288   6.446  13.698 -0.8378  0.0144  0.3326
16486TIP3    H270874   2.338   6.586  13.671  1.8484 -0.7931  0.8606
16487TIP3   OH270875   5.322   0.576   4.904  0.3456  0.0715 -0.3803
16487TIP3    H170876   5.324   0.563   4.809 -0.5040  1.5113 -0.6091
16487TIP3    H270877   5.259   0.512   4.936 -1.8853  1.8088 -1.1874
16488TIP3   OH270878   0.054   3.982   0.409  0.1383  0.2890 -0.2663
16488TIP3    H170879   0.068   3.898   0.452 -0.3078 -0.7409 -2.0844
16488TIP3    H270880   0.138   4.004   0.369  0.2368  0.6894  0.1507
16489TIP3   OH270881   5.502   0.576  11.428  0.0699  0.2382 -0.6880
16489TIP3    H170882   5.418   0.617  11.448 -0.9660 -2.2959  0.3240
16489TIP3    H270883   5.555   0.592  11.506  0.0183  0.5208 -0.7096
16490TIP3   OH270884   0.646   0.677   1.842  0.0731 -0.1972 -0.0959
16490TIP3    H170885   0.592   0.630   1.779  1.2467 -0.6993 -0.7558
16490TIP3    H270886   0.731   0.632   1.838  1.1480  1.8195 -0.5656
16491TIP3   OH270887   0.198   0.551   4.549 -0.0883 -0.0295 -0.3226
16491TIP3    H170888   0.103   0.546   4.534 -0.0889 -1.2529 -0.0233
16491TIP3    H270889   0.237   0.535   4.464 -0.1430 -0.9985 -0.1700
16492TIP3   OH270890   5.832   6.750   6.068 -0.2832 -0.1270 -0.9661
16492TIP3    H170891   5.885   6.826   6.045  0.5999 -0.8449 -1.3173
16492TIP3    H270892   5.853   6.734   6.160  0.6237 -0.8212 -1.2916
16493TIP3   OH270893   0.616   5.110  15.086  0.0269 -0.1434 -0.1586
16493TIP3    H170894   0.535   5.062  15.099 -1.0494  2.0079  1.3873
16493TIP3    H270895   0.604   5.156  15.003  0.1366 -0.6757 -0.4767
16494TIP3   OH270896   0.767   1.524   0.692  0.1147 -0.4064  0.4040
16494TIP3    H170897   0.731   1.436   0.682  1.5888 -0.9724 -0.0777
16494TIP3    H270898   0.801   1.526   0.782 -1.7484  0.3754  1.1077
16495TIP3   OH270899   5.259   0.766  14.643  0.0173 -0.2182 -0.0628
16495TIP3    H170900   5.306   0.846  14.618  0.3432 -0.2417  0.4639
16495TIP3    H270901   5.223   0.733  14.561  1.2629 -0.4083 -0.5509
16496TIP3   OH270902   1.411   2.882   4.284 -0.2132 -0.1277 -0.6223
16496TIP3    H170903   1.435   2.974   4.299 -0.5038  0.0152 -1.0310
16496TIP3    H270904   1.494   2.835   4.289 -0.0533  0.1672 -0.4825
16497TIP3   OH270905   3.439   6.500  13.419 -0.3494 -0.0106  0.1694
16497TIP3    H170906   3.430   6.500  13.324  1.4380 -0.5741 -0.0111
16497TIP3    H270907   3.349   6.496  13.452 -0.9053 -1.4395 -1.5084
16498TIP3   OH270908   5.796   1.633   2.067 -0.8268  0.8325 -0.3848
16498TIP3    H170909   5.749   1.553   2.044  1.0790 -0.2667 -0.5525
16498TIP3    H270910   5.862   1.605   2.130 -0.1595  2.2792 -0.4066
16499TIP3   OH270911   4.977   0.777  11.362  0.2036  0.2676 -0.1666
16499TIP3    H170912   5.067   0.757  11.387  0.0586 -0.4649 -0.2275
16499TIP3    H270913   4.951   0.847  11.422  0.7082  0.2652  0.0588
16500TIP3   OH270914   1.716   0.594   4.779  0.0779  0.4888  0.3109
16500TIP3    H170915   1.704   0.506   4.815  1.4739  1.2928  2.8240
16500TIP3    H270916   1.805   0.593   4.744 -0.2052  0.6501 -0.4175
16501TIP3   OH270917   1.856   4.199   2.247  0.0264 -0.1719 -0.1903
16501TIP3    H170918   1.908   4.278   2.231 -0.9172  0.1217 -1.9365
16501TIP3    H270919   1.773   4.215   2.201 -0.6889 -1.6237  0.5595
16502TIP3   OH270920   4.165   0.361   1.724 -0.0445 -0.1490 -0.0603
16502TIP3    H170921   4.147   0.400   1.638  1.6198 -0.0648 -0.3903
16502TIP3    H270922   4.084   0.372   1.773 -0.4369  1.3846 -1.0344
16503TIP3   OH270923   2.084   5.043  13.899 -0.2213 -0.4153  0.2892
16503TIP3    H170924   2.163   4.995  13.876 -0.9165 -1.9789  1.0956
16503TIP3    H270925   2.116   5.125  13.936  0.9742 -0.1914 -1.1662
16504TIP3   OH270926   2.728   0.599  15.331  0.0251 -0.3529  0.2213
16504TIP3    H170927   2.662   0.648  15.283  1.1966  0.2805 -0.7722
16504TIP3    H270928   2.728   0.512  15.291  0.0767 -0.2285 -0.0496
16505TIP3   OH270929   4.978   4.219  13.365 -0.4563 -0.3553 -0.4185
16505TIP3    H170930   5.069   4.192  13.352 -0.8515 -1.1168 -1.7290
16505TIP3    H270931   4.931   4.183  13.289 -1.4586  1.9074 -0.9165
16506TIP3   OH270932   6.513   2.280   5.164 -0.0650  0.0892 -0.5102
16506TIP3    H170933   6.517   2.375   5.149  0.5582  0.2088  0.3449
16506TIP3    H270934   6.600   2.248   5.141 -0.1318 -0.1998 -0.3649
16507TIP3   OH270935   1.377   3.366   4.144  0.0808 -0.1373  0.4089
16507TIP3    H170936   1.323   3.300   4.187  0.9418 -0.1927  1.4019
16507TIP3    H270937   1.452   3.318   4.110  0.7974  0.3441  1.2844
16508TIP3   OH270938   6.693   3.327  11.612 -0.4992 -0.5469 -0.2688
16508TIP3    H170939   6.715   3.415  11.582 -1.9624 -0.5557 -1.4619
16508TIP3    H270940   6.606   3.336  11.651  0.4475 -0.9714  2.0562
16509TIP3   OH270941   5.866   5.054  14.823  0.4344  0.4098  0.3701
16509TIP3    H170942   5.839   4.977  14.774  0.5387 -0.2425  1.3200
16509TIP3    H270943   5.874   5.023  14.914  1.1670  1.3643  0.6397
16510TIP3   OH270944   0.062   6.338   3.341  0.3349 -0.0934  0.3744
16510TIP3    H170945   0.124   6.316   3.272 -0.3111  1.6074 -0.7983
16510TIP3    H270946   0.103   6.308   3.422  1.8934 -0.5472 -0.5675
16511TIP3   OH270947   2.220   4.568   3.848  0.0899  0.2349 -0.0911
16511TIP3    H170948   2.255   4.534   3.931  0.8577 -0.3825 -0.6546
16511TIP3    H270949   2.290   4.623   3.814  1.2143 -2.2690 -2.0009
16512TIP3   OH270950   1.983   4.619  13.518  0.5988  0.3057  0.3494
16512TIP3    H170951   2.025   4.533  13.507  0.0758 -0.1344  1.7251
16512TIP3    H270952   2.055   4.681  13.513  1.0582 -0.2520 -0.0945
16513TIP3   OH270953   6.333   1.386  17.219  0.2227  0.6625 -0.6609
16513TIP3    H170954   6.260   1.407  17.277  0.7257  1.1888 -0.2133
16513TIP3    H270955   6.410   1.389  17.276  0.4981 -0.7722 -0.9345
16514TIP3   OH270956   4.153   1.608   4.158  0.5830  0.0220  0.2499
16514TIP3    H170957   4.067   1.644   4.178  1.2637  1.6411  0.3007
16514TIP3    H270958   4.174   1.640   4.070  0.4561 -1.6808 -0.4329
16515TIP3   OH270959   4.130   5.031   6.732  0.0411  0.5344 -1.0411
16515TIP3    H170960   4.165   4.963   6.674  1.0774  2.0464 -2.2167
16515TIP3    H270961   4.161   5.006   6.819 -1.1466 -1.5107 -1.1902
16516TIP3   OH270962   5.352   4.168  15.918 -0.6076 -0.6890  0.3461
16516TIP3    H170963   5.297   4.246  15.924  0.0966 -0.1000 -0.6372
16516TIP3    H270964   5.291   4.095  15.925 -1.4364 -0.0413 -0.0178
16517TIP3   OH270965   2.417   5.988  14.104  0.0210 -0.1312 -0.2704
16517TIP3    H170966   2.372   5.952  14.028 -2.0259  2.5150 -0.4114
16517TIP3    H270967   2.373   6.072  14.119  1.3703  0.0556  2.9347
16518TIP3   OH270968   0.367   1.758   5.066 -0.4966 -0.3902  0.3726
16518TIP3    H170969   0.313   1.720   4.997 -0.8704 -0.8488  0.9212
16518TIP3    H270970   0.389   1.846   5.033 -0.7627 -0.5610 -0.2762
16519TIP3   OH270971   5.926   2.084  12.983  0.1875  0.0394 -0.1134
16519TIP3    H170972   5.841   2.122  13.004 -0.4314 -2.0191  1.3089
16519TIP3    H270973   5.907   2.020  12.914  1.1265  1.8994 -2.1209
16520TIP3   OH270974   4.215   1.818   2.970 -0.1544  0.1018  0.1981
16520TIP3    H170975   4.295   1.844   3.015 -1.2262  1.2009  1.4930
16520TIP3    H270976   4.186   1.740   3.015 -1.1364  1.1078  1.3419
16521TIP3   OH270977   4.437   0.401  11.498  0.0623 -0.3298 -0.1027
16521TIP3    H170978   4.438   0.457  11.576 -1.4371  1.5137 -1.3562
16521TIP3    H270979   4.508   0.435  11.444 -0.9904  0.5277 -0.9634
16522TIP3   OH270980   1.470   3.926   4.799  0.0659  0.6453 -0.3075
16522TIP3    H170981   1.558   3.961   4.791  1.5379 -2.7116  0.2169
16522TIP3    H270982   1.445   3.944   4.890  0.8521  0.2615 -0.0067
16523TIP3   OH270983   5.372   4.151   3.973 -0.4622  0.1436  0.2215
16523TIP3    H170984   5.314   4.079   3.998  0.0390 -0.0393  0.8676
16523TIP3    H270985   5.313   4.225   3.960 -0.8130  0.0482  1.2144
16524TIP3   OH270986   5.298   2.992  16.423  0.6973 -0.0885  0.5062
16524TIP3    H170987   5.264   3.035  16.344  3.0868  0.5092 -0.2515
16524TIP3    H270988   5.278   3.052  16.494 -1.0007 -0.3837  0.3020
16525TIP3   OH270989   4.990   3.156  15.940  0.3803 -0.2988  0.2126
16525TIP3    H170990   4.999   3.208  15.860 -2.0655 -0.0644  0.0767
16525TIP3    H270991   4.975   3.220  16.009 -3.1089 -0.7932 -0.0303
16526TIP3   OH270992   2.566   0.518   0.653 -0.1736 -0.2086  0.3716
16526TIP3    H170993   2.654   0.492   0.679 -0.0692 -2.4067 -1.9848
16526TIP3    H270994   2.577   0.555   0.565 -1.2590  1.8620  1.0734
16527TIP3   OH270995   0.569   4.663   3.499 -0.3311  0.1408 -0.2245
16527TIP3    H170996   0.586   4.573   3.525 -1.7340  0.1168  0.6384
16527TIP3    H270997   0.474   4.670   3.495 -0.2330  1.5262 -0.5009
16528TIP3   OH270998   2.458   5.608   4.089 -0.2620 -0.1769  0.1061
16528TIP3    H170999   2.477   5.702   4.081  1.9561 -0.7169 -1.2949
16528TIP3    H271000   2.383   5.594   4.031 -0.2378  0.6169 -0.1313
16529TIP3   OH271001   6.099   1.643  15.165  0.0143  0.4414  0.3228
16529TIP3    H171002   6.184   1.674  15.133 -0.7128  1.6133 -0.5143
16529TIP3    H271003   6.036   1.681  15.104 -0.9879 -1.9943 -0.2152
16530TIP3   OH271004   6.226   4.049   6.399 -0.2329  0.4076  0.4361
16530TIP3    H171005   6.312   4.010   6.417 -0.3105 -0.4482 -0.9464
16530TIP3    H271006   6.227   4.133   6.445  2.3501  1.6286 -1.7180
16531TIP3   OH271007   3.465   0.977   4.144 -0.3701  0.0975  0.0627
16531TIP3    H171008   3.493   1.055   4.096  0.5068  0.2580  0.8156
16531TIP3    H271009   3.458   1.005   4.235 -2.6511 -0.0419 -0.0327
16532TIP3   OH271010   6.109   3.564  15.082 -0.3923  0.1751  0.2733
16532TIP3    H171011   6.158   3.590  15.004 -1.6318 -2.2922 -1.4133
16532TIP3    H271012   6.162   3.595  15.155  0.7902  2.5847 -1.5256
16533TIP3   OH271013   2.581   0.637  13.260 -0.4069  0.1125  0.0475
16533TIP3    H171014   2.507   0.654  13.318  0.8173  1.4513  1.2528
16533TIP3    H271015   2.601   0.723  13.222  0.4450 -0.2729 -0.3756
16534TIP3   OH271016   2.801   5.448   0.861  0.0554  0.0462 -0.0395
16534TIP3    H171017   2.854   5.497   0.925  0.4871  0.1926 -0.5057
16534TIP3    H271018   2.816   5.494   0.778 -0.4474 -0.1883 -0.2576
16535TIP3   OH271019   0.815   3.338  15.445 -0.4501 -0.1440  0.4095
16535TIP3    H171020   0.813   3.434  15.445  1.0842 -0.0602 -2.2641
16535TIP3    H271021   0.888   3.315  15.504  0.1913  0.4024 -0.1606
16536TIP3   OH271022   5.709   3.883   3.881 -0.5684 -0.0332  0.2481
16536TIP3    H171023   5.739   3.945   3.815 -1.6093 -0.2165 -0.4091
16536TIP3    H271024   5.696   3.937   3.960 -1.9093  0.6953 -0.4391
16537TIP3   OH271025   1.746   1.273   4.179 -0.4163 -0.5678 -0.1261
16537TIP3    H171026   1.761   1.181   4.160  0.6088 -0.7065  1.3132
16537TIP3    H271027   1.827   1.317   4.155  0.6745 -0.6549  3.0915
16538TIP3   OH271028   1.188   5.786  15.176 -0.6654 -0.0117 -0.1435
16538TIP3    H171029   1.147   5.815  15.257 -0.4672 -1.8516  0.6504
16538TIP3    H271030   1.116   5.785  15.112 -1.4820 -1.4254  0.7708
16539TIP3   OH271031   6.730   3.982  12.537 -0.0929 -0.7224  0.2260
16539TIP3    H171032   6.658   3.964  12.477  0.0464  1.6065 -0.6975
16539TIP3    H271033   6.695   4.050  12.596  1.4462  0.6961 -0.4601
16540TIP3   OH271034   6.012   6.430  13.501 -0.0520 -0.5894  0.2699
16540TIP3    H171035   6.104   6.433  13.477  0.0025 -1.1457  0.3986
16540TIP3    H271036   6.009   6.378  13.582 -0.4085 -0.0448  0.6062
16541TIP3   OH271037   2.895   4.884   1.214  0.2477  0.1751 -0.3607
16541TIP3    H171038   2.918   4.970   1.181  0.5790 -0.3134 -1.4334
16541TIP3    H271039   2.807   4.895   1.250  1.7024  1.8231  2.9124
16542TIP3   OH271040   0.665   4.349  13.296 -0.3186  0.5774  0.0809
16542TIP3    H171041   0.675   4.443  13.314 -0.1306  0.4774  0.4917
16542TIP3    H271042   0.685   4.306  13.379  1.4396  0.0758 -0.5841
16543TIP3   OH271043   3.973   0.298   1.226 -0.6609  0.2032 -0.1678
16543TIP3    H171044   3.947   0.207   1.214  2.2385 -0.5463 -1.2128
16543TIP3    H271045   3.942   0.343   1.148 -0.4129 -0.2864 -0.5486
16544TIP3   OH271046   0.602   2.962   4.011  0.0100 -0.8302  0.6526
16544TIP3    H171047   0.539   2.987   3.944 -0.0242 -1.9087  0.2699
16544TIP3    H271048   0.645   3.044   4.036 -0.3796 -0.3411 -0.2712
16545TIP3   OH271049   4.854   6.738  14.171 -0.1803 -0.4706 -0.4667
16545TIP3    H171050   4.796   6.751  14.097 -0.8864  0.0395  0.1670
16545TIP3    H271051   4.843   6.817  14.224  1.6270 -0.0538 -0.6958
16546TIP3   OH271052   4.404   5.941  10.573 -0.1066  0.1513  0.7212
16546TIP3    H171053   4.485   5.986  10.550 -0.6517  1.9640  2.1975
16546TIP3    H271054   4.346   5.957  10.499  0.0127  1.1131  0.8302
16547TIP3   OH271055   3.353   2.151  10.986 -0.0608 -0.2709 -0.2344
16547TIP3    H171056   3.312   2.198  11.058  0.2544 -1.2851  0.6219
16547TIP3    H271057   3.283   2.096  10.950 -0.4643  0.9241 -1.3188
16548TIP3   OH271058   4.684   1.356   0.605  0.9472  0.2829  0.3377
16548TIP3    H171059   4.725   1.271   0.586  2.6363  1.5646 -1.9400
16548TIP3    H271060   4.606   1.358   0.550  1.3419  0.5444 -0.2107
16549TIP3   OH271061   5.796   0.480   2.962 -0.0751  0.1050  0.2758
16549TIP3    H171062   5.720   0.538   2.975 -1.4528 -1.5753 -0.0770
16549TIP3    H271063   5.842   0.481   3.046 -2.4590 -1.6202  1.6467
16550TIP3   OH271064   4.934   1.257   1.515  0.0705  0.1689 -0.9933
16550TIP3    H171065   4.873   1.243   1.587  0.2535  1.0046 -0.6729
16550TIP3    H271066   4.943   1.171   1.475 -0.4032 -0.2034 -0.3152
16551TIP3   OH271067   3.873   5.846  11.356  0.3219 -0.3633  0.2909
16551TIP3    H171068   3.787   5.871  11.323  0.9750  2.0261  0.2779
16551TIP3    H271069   3.933   5.865  11.284  1.0586 -0.5079  0.8518
16552TIP3   OH271070   0.564   2.680  15.826 -0.1585 -0.8982  0.5003
16552TIP3    H171071   0.510   2.631  15.889  0.1166 -0.1897  1.3003
16552TIP3    H271072   0.518   2.763  15.814 -0.1053 -0.9538 -0.0838
16553TIP3   OH271073   6.742   5.469  10.690  0.3077 -0.4973 -0.0851
16553TIP3    H171074   6.764   5.555  10.655 -0.1336 -0.7055 -0.8910
16553TIP3    H271075   6.661   5.444  10.644  0.7839 -1.6113 -0.3491
16554TIP3   OH271076   4.417   1.506  13.615  0.5297 -0.1307  0.0033
16554TIP3    H171077   4.384   1.594  13.633 -0.9638 -0.8790  1.0513
16554TIP3    H271078   4.510   1.518  13.597  0.5064  1.5646  0.9365
16555TIP3   OH271079   3.418   3.790   3.424  0.8525  0.5122  0.3840
16555TIP3    H171080   3.333   3.821   3.395  1.5438  0.9066 -1.2863
16555TIP3    H271081   3.456   3.749   3.346  1.3271 -1.5255  1.6683
16556TIP3   OH271082   0.553   1.631   1.061 -0.1942 -0.0772 -0.5494
16556TIP3    H171083   0.486   1.573   1.025 -0.5200  1.2755 -2.1854
16556TIP3    H271084   0.587   1.678   0.985  0.4741  1.4515  0.6775
16557TIP3   OH271085   5.043   4.007   3.260 -0.1141 -0.0783 -0.0682
16557TIP3    H171086   4.949   4.006   3.280 -0.1425  0.7935 -0.1444
16557TIP3    H271087   5.068   4.099   3.268  1.2185 -0.6184  2.2198
16558TIP3   OH271088   6.567   0.518   3.704 -0.3200 -0.1175  0.0099
16558TIP3    H171089   6.598   0.474   3.625  0.3499  0.6528 -0.1573
16558TIP3    H271090   6.636   0.581   3.725 -0.8568  0.2199  0.7650
16559TIP3   OH271091   1.931   0.689  15.139  0.0652 -0.1338  0.1430
16559TIP3    H171092   1.908   0.724  15.224 -1.6646 -1.0320  0.0741
16559TIP3    H271093   2.012   0.734  15.115 -0.2150  1.1806  1.5987
16560TIP3   OH271094   1.690   1.571   3.770 -0.2807  0.1617 -0.5156
16560TIP3    H171095   1.676   1.640   3.835 -0.5097  0.5885 -1.0219
16560TIP3    H271096   1.742   1.613   3.702  0.8944 -0.5776 -0.1033
16561TIP3   OH271097   3.030   6.152   0.561 -0.3327  0.1210  0.1441
16561TIP3    H171098   2.950   6.174   0.608  0.8452  0.4447  2.0498
16561TIP3    H271099   3.055   6.066   0.594 -0.1044 -0.1451 -0.7148
16562TIP3   OH271100   6.579   5.756  11.950  1.4537  0.5586 -0.0181
16562TIP3    H171101   6.669   5.771  11.921  0.1285  2.9264 -3.1904
16562TIP3    H271102   6.528   5.746  11.869 -0.8673 -2.9910  1.7037
16563TIP3   OH271103   2.080   0.047   2.937 -0.2331 -0.4273  0.0315
16563TIP3    H171104   2.087   0.101   3.016  0.8946 -0.9552  0.3024
16563TIP3    H271105   2.119  -0.036   2.962 -3.3895 -1.9361  0.1109
16564TIP3   OH271106   4.468   1.035   4.829  0.0394  0.3144  0.2824
16564TIP3    H171107   4.468   1.099   4.757 -0.3180  0.7077  0.6278
16564TIP3    H271108   4.528   0.967   4.800  0.7896  1.0352  0.1114
16565TIP3   OH271109   2.958   6.466   2.833  0.3254 -0.2348 -0.4439
16565TIP3    H171110   3.047   6.498   2.850  0.0914  1.0066 -1.4554
16565TIP3    H271111   2.967   6.371   2.828  1.3547 -0.2095  0.8367
16566TIP3   OH271112   4.878   2.543   2.427 -0.0036  0.0941 -0.1633
16566TIP3    H171113   4.843   2.542   2.516 -0.6818 -0.9956 -0.4174
16566TIP3    H271114   4.950   2.480   2.429 -2.2939 -2.7008 -1.2047
16567TIP3   OH271115   2.997   6.691   6.714 -0.1504 -0.5865 -0.5982
16567TIP3    H171116   2.929   6.671   6.650 -0.4409  1.0402 -0.8215
16567TIP3    H271117   2.970   6.644   6.793  0.0519 -2.3553 -1.5503
16568TIP3   OH271118   2.302   4.014   4.914  0.3498 -0.3399 -0.1142
16568TIP3    H171119   2.347   3.953   4.856  2.9745 -0.3098  1.7594
16568TIP3    H271120   2.280   4.089   4.859  0.3444 -1.4394 -1.6334
16569TIP3   OH271121   3.623   2.815  15.167 -0.1820  0.4382 -0.0213
16569TIP3    H171122   3.597   2.782  15.253 -0.6197  0.9510  0.0465
16569TIP3    H271123   3.553   2.876  15.143 -2.1146 -2.5744 -2.4687
16570TIP3   OH271124   3.853   2.323   3.083 -0.4258  0.0590 -0.3643
16570TIP3    H171125   3.819   2.274   3.158 -0.0962 -0.2214 -0.3944
16570TIP3    H271126   3.948   2.321   3.096 -0.4931  2.2777  0.6385
16571TIP3   OH271127   3.263   4.666   3.645 -0.5160 -0.2969  0.2013
16571TIP3    H171128   3.296   4.627   3.563 -1.4831 -0.6242 -0.0353
16571TIP3    H271129   3.279   4.759   3.635 -2.4348 -0.0959 -1.2201
16572TIP3   OH271130   2.448   3.473  15.589  1.0542 -0.3069  0.1022
16572TIP3    H171131   2.400   3.503  15.512 -0.5940 -1.9331  0.4411
16572TIP3    H271132   2.451   3.548  15.647  1.1134  0.5375 -0.9844
16573TIP3   OH271133   0.012   4.908  11.541  0.0374 -0.2531  0.2443
16573TIP3    H171134  -0.025   4.820  11.540 -0.1873 -0.1991  2.1985
16573TIP3    H271135   0.101   4.897  11.573  0.8125 -0.0283 -1.7399
16574TIP3   OH271136   5.094   5.458  16.251  0.1532 -0.6280 -0.4238
16574TIP3    H171137   5.187   5.457  16.230  0.1803 -0.9404 -0.2904
16574TIP3    H271138   5.064   5.545  16.224  1.2669  0.8734  2.7862
16575TIP3   OH271139   6.356   6.139  10.837  0.2232  0.3332  0.6134
16575TIP3    H171140   6.318   6.122  10.751 -1.1908 -1.8431  1.6304
16575TIP3    H271141   6.360   6.235  10.843 -1.0286  0.5267 -1.2657
16576TIP3   OH271142   0.318   4.570  16.241 -0.0367 -0.1797 -0.7132
16576TIP3    H171143   0.230   4.558  16.207 -1.2030 -0.0809  2.0879
16576TIP3    H271144   0.375   4.562  16.165 -2.3062 -2.1460 -2.2821
16577TIP3   OH271145   6.656   4.387  14.074 -0.8970 -0.4502  0.7471
16577TIP3    H171146   6.676   4.456  14.011 -0.8383  0.1486  1.4285
16577TIP3    H271147   6.649   4.308  14.020 -1.3206  0.1386 -0.0841
16578TIP3   OH271148   6.266   5.467  13.821 -0.2533 -0.0616 -0.0036
16578TIP3    H171149   6.332   5.524  13.782 -0.1061  0.8619  1.5908
16578TIP3    H271150   6.242   5.408  13.750  3.5652 -1.5958 -0.1579
16579TIP3   OH271151   6.333   3.556   5.012  0.3941 -0.2075 -0.0215
16579TIP3    H171152   6.242   3.535   4.990  0.5934 -1.8153  0.6177
16579TIP3    H271153   6.363   3.481   5.064  1.6094  1.0247  1.0790
16580TIP3   OH271154   4.474   3.361  12.292  0.0327 -0.1198  0.0904
16580TIP3    H171155   4.447   3.272  12.271  0.2440 -0.2740  0.4730
16580TIP3    H271156   4.502   3.399  12.209 -0.3313 -0.3139 -0.1218
16581TIP3   OH271157   5.136   6.019   5.598 -0.5657  0.0763 -1.0810
16581TIP3    H171158   5.231   6.018   5.615 -0.5707  1.2888 -0.9135
16581TIP3    H271159   5.101   5.949   5.654 -0.2222  2.1071  1.8123
16582TIP3   OH271160   6.290   3.472   0.360  0.2781  0.1281 -0.1086
16582TIP3    H171161   6.310   3.508   0.273  1.8886 -0.1575  0.1154
16582TIP3    H271162   6.328   3.536   0.421  1.3111 -0.8823  0.3262
16583TIP3   OH271163   5.910   3.586  14.138  0.5059 -0.2412  0.1754
16583TIP3    H171164   5.877   3.591  14.048  1.2479 -0.7773 -0.1329
16583TIP3    H271165   5.839   3.544  14.187  0.1937 -0.1696 -0.2115
16584TIP3   OH271166   4.433   1.055  12.394 -0.6785 -0.6143  0.7244
16584TIP3    H171167   4.382   0.996  12.337 -0.7169 -0.1676  0.2934
16584TIP3    H271168   4.517   1.011  12.404 -0.9273 -1.0536  0.9269
16585TIP3   OH271169   6.149   6.407  11.520  0.4163 -0.7335 -0.3306
16585TIP3    H171170   6.141   6.503  11.519 -1.5168 -0.8821  0.3028
16585TIP3    H271171   6.219   6.389  11.457  0.6421  1.0801 -0.6319
16586TIP3   OH271172   6.650   1.965  15.591 -0.7651 -0.5693 -0.1829
16586TIP3    H171173   6.715   1.981  15.523 -0.5902 -1.2598 -0.1866
16586TIP3    H271174   6.699   1.921  15.661 -1.3403 -1.6671 -0.4493
16587TIP3   OH271175   5.471   3.835   4.777 -0.0787  0.5676 -0.0176
16587TIP3    H171176   5.396   3.800   4.728  0.6572  0.0714 -0.8041
16587TIP3    H271177   5.533   3.762   4.780  1.0297  1.4671 -0.7496
16588TIP3   OH271178   3.824   2.941   3.458  0.6157  0.1177 -0.2964
16588TIP3    H171179   3.780   2.940   3.373  1.4114  0.6668 -0.7250
16588TIP3    H271180   3.879   2.862   3.457  0.9517  0.3493 -0.4781
16589TIP3   OH271181   6.542   1.917  17.204  0.1902  0.2062 -0.7266
16589TIP3    H171182   6.468   1.967  17.238 -0.6874  0.0556 -2.4014
16589TIP3    H271183   6.588   1.887  17.283 -1.9145 -0.3053  0.3427
16590TIP3   OH271184   1.263   4.024  13.986  0.9629 -0.1160 -0.0311
16590TIP3    H171185   1.308   4.090  14.038 -0.1271  1.1640 -0.6940
16590TIP3    H271186   1.324   4.003  13.915  1.2456  0.2795  0.0966
16591TIP3   OH271187   1.196   5.014  12.918 -0.1686  0.0412  0.0810
16591TIP3    H171188   1.264   5.017  12.985  0.9766  1.8900 -1.0826
16591TIP3    H271189   1.114   5.021  12.966  0.4173 -2.3366  1.5301
16592TIP3   OH271190   1.802   3.668   6.206  0.0294 -0.0349 -0.0486
16592TIP3    H171191   1.757   3.710   6.133  1.6197  1.0061 -0.4342
16592TIP3    H271192   1.853   3.597   6.166 -0.9415 -0.9888  0.3523
16593TIP3   OH271193   4.992   1.744   4.427 -0.1678 -0.0483  0.0561
16593TIP3    H171194   5.043   1.779   4.354 -0.6572  0.0945 -0.2212
16593TIP3    H271195   4.945   1.669   4.390 -1.2492  0.6754 -0.0527
16594TIP3   OH271196   3.394   0.753   2.511  0.0430  0.3292  0.3378
16594TIP3    H171197   3.423   0.681   2.567 -2.7312 -2.1810 -1.2845
16594TIP3    H271198   3.359   0.818   2.571  1.0160 -0.4505  1.7659
16595TIP3   OH271199   5.723   6.710   3.019 -0.2309 -0.3601 -0.2964
16595TIP3    H171200   5.652   6.710   2.954 -1.2854  0.3371  0.8257
16595TIP3    H271201   5.773   6.789   2.999 -0.4558 -0.2324 -0.3626
16596TIP3   OH271202   3.810   2.764  15.789  0.6153  0.1091 -0.2790
16596TIP3    H171203   3.825   2.837  15.849  1.2323  1.8207 -2.4555
16596TIP3    H271204   3.891   2.713  15.793  1.0250  0.7463 -0.3599
16597TIP3   OH271205   6.372   0.346   2.818  0.0026 -0.1275 -0.2160
16597TIP3    H171206   6.388   0.437   2.793 -0.6661  0.1768  0.4547
16597TIP3    H271207   6.453   0.300   2.795  1.1682  1.0362  1.4866
16598TIP3   OH271208   2.627   4.503  12.247 -0.3579 -0.4852 -0.1763
16598TIP3    H171209   2.680   4.442  12.195 -0.4796  0.9375 -2.0081
16598TIP3    H271210   2.563   4.446  12.290  1.0497 -1.9286  0.0746
16599TIP3   OH271211   4.370   1.184  15.468 -0.1804  0.3650  0.0686
16599TIP3    H171212   4.282   1.209  15.497 -0.0189 -0.0714  0.9449
16599TIP3    H271213   4.420   1.173  15.549 -0.0466 -2.0685 -0.2862
16600TIP3   OH271214   3.290   1.542  13.367 -0.1321  0.2943  0.8560
16600TIP3    H171215   3.321   1.556  13.277  3.0730 -1.1050  1.6776
16600TIP3    H271216   3.238   1.461  13.362  0.0087  0.2366  0.2549
16601TIP3   OH271217   4.654   0.941  15.637 -0.2681  0.3574 -0.1811
16601TIP3    H171218   4.583   0.892  15.597  1.1342 -0.1894 -2.0825
16601TIP3    H271219   4.729   0.926  15.580  1.8581 -0.5552  2.7259
16602TIP3   OH271220   4.718   2.975  13.982 -0.1719  0.5968 -0.2582
16602TIP3    H171221   4.634   3.019  13.964  0.6690  1.9736 -0.9734
16602TIP3    H271222   4.716   2.957  14.076 -0.7477  1.7703 -0.0256
16603TIP3   OH271223   2.416   1.242   4.108  0.1133 -0.1283 -0.2180
16603TIP3    H171224   2.506   1.266   4.084 -0.6555  1.5218 -1.5074
16603TIP3    H271225   2.413   1.253   4.203  0.4041  2.8354 -0.5135
16604TIP3   OH271226   3.513   5.738  14.272  0.3910 -0.5056  0.3653
16604TIP3    H171227   3.501   5.651  14.233 -0.3550  0.4300 -1.5706
16604TIP3    H271228   3.597   5.768  14.239  0.3974 -0.2723  0.5904
16605TIP3   OH271229   0.147   6.625  10.697  0.7849 -0.7771 -0.0503
16605TIP3    H171230   0.079   6.692  10.695  0.3138 -1.2661 -1.8156
16605TIP3    H271231   0.112   6.553  10.644  1.8611 -1.8373  0.6436
16606TIP3   OH271232   2.823   0.031  16.665 -0.1160 -0.1685 -0.0354
16606TIP3    H171233   2.766  -0.044  16.648  1.4766 -1.3405 -0.3268
16606TIP3    H271234   2.862   0.013  16.750 -0.0861  0.5782  0.1144
16607TIP3   OH271235   3.319   0.174  14.671  0.6277  0.0641 -0.0815
16607TIP3    H171236   3.397   0.168  14.615  0.8866 -1.8748  0.4318
16607TIP3    H271237   3.246   0.153  14.612  0.8357 -1.3474  0.1527
16608TIP3   OH271238   1.847   3.343  15.145  0.2451  0.2183 -0.0009
16608TIP3    H171239   1.765   3.311  15.182 -0.7266  2.6213  0.0493
16608TIP3    H271240   1.820   3.405  15.078  2.0140  0.9738 -0.0436
16609TIP3   OH271241   4.154   6.602   3.520 -0.1284 -0.0024 -0.9384
16609TIP3    H171242   4.237   6.612   3.473 -0.0237 -1.2680 -1.0463
16609TIP3    H271243   4.088   6.589   3.451 -0.2394 -0.1125 -0.8136
16610TIP3   OH271244   4.428   3.050   2.224 -0.0404  0.1112 -0.2301
16610TIP3    H171245   4.417   2.959   2.196  0.3004  0.2194 -0.7109
16610TIP3    H271246   4.522   3.059   2.240 -0.3881 -0.3775  2.4063
16611TIP3   OH271247   2.041   5.185   2.239 -0.3327 -0.5246  0.0696
16611TIP3    H171248   2.002   5.164   2.324 -0.2751 -0.1544  0.1859
16611TIP3    H271249   1.972   5.231   2.192  0.4130  1.3984  0.7956
16612TIP3   OH271250   5.393   2.399  12.551  0.4579  0.5179 -0.0626
16612TIP3    H171251   5.394   2.304  12.543  1.4086  0.5806 -0.8893
16612TIP3    H271252   5.415   2.416  12.643  0.7673 -0.0529 -0.0316
16613TIP3   OH271253   0.846   3.983  16.880  0.4667  0.1908 -0.0446
16613TIP3    H171254   0.786   4.029  16.938 -1.1842 -0.3940 -1.2349
16613TIP3    H271255   0.914   4.047  16.859 -1.5680  1.9910 -1.3371
16614TIP3   OH271256   6.567   3.316   5.707  0.2023 -0.1877 -0.0290
16614TIP3    H171257   6.497   3.259   5.741  1.6696 -0.5880  2.4812
16614TIP3    H271258   6.647   3.268   5.728  1.2878  0.9727 -1.5251
16615TIP3   OH271259   6.355   5.434  15.542  0.6491  0.3177  0.0570
16615TIP3    H171260   6.282   5.458  15.599  0.7951 -0.0675  0.4073
16615TIP3    H271261   6.322   5.450  15.453  0.0684 -0.0452  0.2046
16616TIP3   OH271262   1.150   0.394  11.562  0.0858  0.5868  0.2477
16616TIP3    H171263   1.185   0.475  11.601  0.8699  0.4391 -0.1304
16616TIP3    H271264   1.228   0.343  11.540 -0.3816  0.1161 -0.3364
16617TIP3   OH271265   0.942   2.494  11.926  0.0343 -0.0431  0.1540
16617TIP3    H171266   0.870   2.432  11.941 -0.4881  0.7665  1.0543
16617TIP3    H271267   0.906   2.556  11.862  0.8266 -1.1091 -1.3402
16618TIP3   OH271268   6.100   4.161  13.470  0.1308 -0.4159 -0.1295
16618TIP3    H171269   6.116   4.252  13.444  0.1838 -1.0464 -2.3303
16618TIP3    H271270   6.162   4.145  13.541  0.8998  0.9169 -0.4893
16619TIP3   OH271271   0.745   2.312   4.177  0.4341 -0.2413  0.4766
16619TIP3    H171272   0.688   2.240   4.206  0.6829 -0.4607  0.4282
16619TIP3    H271273   0.791   2.276   4.101  0.6623 -0.0773  0.5355
16620TIP3   OH271274   0.966   1.050   2.793  0.9341  0.3931  0.3339
16620TIP3    H171275   0.999   1.139   2.778  0.7557  0.1496 -1.6326
16620TIP3    H271276   1.042   0.993   2.780  0.1491 -0.0508 -2.7292
16621TIP3   OH271277   6.330   3.228  12.024  0.4515  0.8151  0.2802
16621TIP3    H171278   6.284   3.208  12.106  1.5896 -0.0228  0.7336
16621TIP3    H271279   6.394   3.295  12.049 -0.3174  1.7811 -0.2902
16622TIP3   OH271280   4.630   6.153  12.161  0.1124  0.5129  0.1471
16622TIP3    H171281   4.701   6.109  12.115 -1.5686  0.6410 -2.7426
16622TIP3    H271282   4.617   6.103  12.241  2.4447 -0.3723 -0.0030
16623TIP3   OH271283   1.618   3.996  12.516 -0.5240 -0.2097  0.4134
16623TIP3    H171284   1.571   4.078  12.533 -0.1556 -0.1843  1.3014
16623TIP3    H271285   1.558   3.928  12.543 -0.6032 -0.2194  0.2170
16624TIP3   OH271286   2.460   2.037   0.120 -0.6620  0.1651  0.3572
16624TIP3    H171287   2.445   1.949   0.086 -0.7971  0.8434 -1.4134
16624TIP3    H271288   2.548   2.033   0.159 -0.6507 -0.7425  0.2548
16625TIP3   OH271289   2.221   6.352   4.541 -0.0630 -0.5568  0.3920
16625TIP3    H171290   2.195   6.273   4.589  1.1085 -1.7489 -0.8780
16625TIP3    H271291   2.304   6.378   4.581 -0.8743  0.5758  1.3932
16626TIP3   OH271292   0.557   3.353  14.970  0.3737 -0.4903  0.4493
16626TIP3    H171293   0.579   3.276  14.917  2.3114  0.9955 -0.9663
16626TIP3    H271294   0.518   3.414  14.908  1.4517  0.7601  0.9912
16627TIP3   OH271295   1.633   5.074  15.949  0.2224 -0.2781  0.1568
16627TIP3    H171296   1.545   5.053  15.979 -0.1671  0.6374 -0.3184
16627TIP3    H271297   1.674   4.988  15.934 -1.3739 -0.7300 -1.8567
16628TIP3   OH271298   6.334   5.277  12.396  0.2973 -0.4083 -0.4291
16628TIP3    H171299   6.346   5.239  12.309 -1.5018  0.7836 -1.2462
16628TIP3    H271300   6.410   5.334  12.407  0.7144 -0.8231 -1.0868
16629TIP3   OH271301   0.930   4.528   4.846  0.2061  0.1217  0.1404
16629TIP3    H171302   0.864   4.582   4.888 -0.1396  0.2868 -0.6115
16629TIP3    H271303   0.950   4.459   4.910 -0.1536  0.4976  0.6536
16630TIP3   OH271304   2.115   2.917  13.655 -0.7244  0.1195  0.3316
16630TIP3    H171305   2.156   2.849  13.708 -1.2364  0.2276  0.8672
16630TIP3    H271306   2.100   2.876  13.570 -1.5210 -0.6136  0.8115
16631TIP3   OH271307   4.092   5.543   5.494 -0.4140 -0.3824  0.0144
16631TIP3    H171308   4.137   5.474   5.445 -2.4249 -0.3393 -1.9649
16631TIP3    H271309   4.034   5.496   5.554  1.4154 -0.4251  1.7919
16632TIP3   OH271310   3.609   0.268   4.389 -0.0910  0.1785 -0.5419
16632TIP3    H171311   3.568   0.353   4.408  0.4238  0.2245  0.3927
16632TIP3    H271312   3.541   0.217   4.346 -0.9775  0.4248  0.5679
16633TIP3   OH271313   4.369   5.127   2.551 -0.2764 -0.1556 -0.0984
16633TIP3    H171314   4.325   5.092   2.473 -1.7119  2.2890 -0.4389
16633TIP3    H271315   4.316   5.094   2.625  0.3893 -1.4863 -0.1938
16634TIP3   OH271316   2.492   3.121   3.099  0.3965 -0.4658 -0.2549
16634TIP3    H171317   2.426   3.188   3.087  0.1362 -0.8570 -1.0212
16634TIP3    H271318   2.464   3.048   3.043  0.1861 -1.5731  1.2668
16635TIP3   OH271319   2.224   0.884  16.491 -0.4849 -0.1410  0.0289
16635TIP3    H171320   2.254   0.833  16.415  1.1419  0.3110  0.3371
16635TIP3    H271321   2.199   0.818  16.556  0.5821 -0.5517  0.0321
16636TIP3   OH271322   0.664   1.824  16.054  0.1886 -0.8215 -0.2199
16636TIP3    H171323   0.724   1.775  16.111 -0.4345 -0.2256  0.9725
16636TIP3    H271324   0.721   1.881  16.003  0.6813 -0.5338  0.6337
16637TIP3   OH271325   4.343   5.270   1.784 -0.0100  0.6716  0.3553
16637TIP3    H171326   4.345   5.275   1.689 -0.0758 -0.8293  0.2663
16637TIP3    H271327   4.414   5.211   1.807 -1.1727 -0.4571  1.1174
16638TIP3   OH271328   1.648   1.244  14.888 -0.2126 -0.2657  0.2839
16638TIP3    H171329   1.565   1.290  14.899 -1.5201 -2.2762 -0.9571
16638TIP3    H271330   1.643   1.169  14.948  0.3043 -0.9249 -0.4804
16639TIP3   OH271331   0.975   6.040   1.571  0.2199  0.1126 -0.1736
16639TIP3    H171332   0.989   5.980   1.644 -0.2087 -1.4967 -1.3773
16639TIP3    H271333   0.892   6.012   1.533  0.8855  0.3423 -1.8258
16640TIP3   OH271334   1.905   3.059   3.737  0.1029  0.3866  0.0320
16640TIP3    H171335   1.945   3.145   3.752 -1.4817  0.7700  2.2436
16640TIP3    H271336   1.956   2.999   3.791  0.8791 -0.0159 -1.1139
16641TIP3   OH271337   4.880   3.904  11.069 -0.4473 -0.3542 -0.0805
16641TIP3    H171338   4.816   3.833  11.076  1.5651 -2.0233  2.8279
16641TIP3    H271339   4.831   3.983  11.092 -2.1061 -1.2073 -0.6581
16642TIP3   OH271340   4.642   0.430  11.341 -0.4489 -0.0085 -0.3283
16642TIP3    H171341   4.709   0.370  11.376  1.4615  0.9130 -2.2620
16642TIP3    H271342   4.692   0.495  11.292 -2.7631  1.0180 -1.3953
16643TIP3   OH271343   1.213   4.755   3.977 -0.1180  0.5404  0.0002
16643TIP3    H171344   1.190   4.663   3.965 -0.0910  0.6418 -0.8633
16643TIP3    H271345   1.173   4.799   3.902 -0.2372  1.2500  0.4782
16644TIP3   OH271346   1.386   1.154   2.080  0.0900 -0.1367  0.6228
16644TIP3    H171347   1.478   1.143   2.104  0.0482  0.7377  1.2149
16644TIP3    H271348   1.378   1.246   2.055 -0.4407 -0.4193 -0.2837
16645TIP3   OH271349   5.418   4.645  17.236 -0.4378 -0.4040 -0.0221
16645TIP3    H171350   5.377   4.580  17.179 -1.5045  0.0582  0.1981
16645TIP3    H271351   5.422   4.603  17.322 -0.6301 -0.3884 -0.0027
16646TIP3   OH271352   2.262   1.843   2.099 -0.2886 -0.4769  0.2389
16646TIP3    H171353   2.326   1.894   2.049  0.0587 -1.1205  0.0178
16646TIP3    H271354   2.308   1.818   2.179 -0.3668 -0.6738  0.2227
16647TIP3   OH271355   3.346   4.856  12.546  0.3436 -0.0491  0.1687
16647TIP3    H171356   3.436   4.887  12.539  0.1947  0.4615  0.4336
16647TIP3    H271357   3.345   4.801  12.623  0.6281 -0.7740 -0.3423
16648TIP3   OH271358   1.090   6.729  16.262  0.3467 -0.0726  0.4607
16648TIP3    H171359   1.174   6.697  16.226  0.3029 -0.0453  0.3323
16648TIP3    H271360   1.060   6.658  16.319 -1.3540 -1.7019 -2.3436
16649TIP3   OH271361   0.368   3.061  11.597  0.1942 -0.0027  0.2657
16649TIP3    H171362   0.281   3.091  11.624  0.0917 -0.1601  0.1087
16649TIP3    H271363   0.366   2.966  11.610  0.0951 -0.0946 -0.4420
16650TIP3   OH271364   3.710   5.826   1.020  0.1721  0.2101  0.0517
16650TIP3    H171365   3.679   5.786   1.101  0.2562  1.3300  0.6502
16650TIP3    H271366   3.671   5.773   0.951 -1.9542  0.7665  0.7989
16651TIP3   OH271367   1.734   6.773   0.234  0.1069  0.7143  0.2437
16651TIP3    H171368   1.762   6.713   0.303 -1.4574 -0.8184 -0.4342
16651TIP3    H271369   1.763   6.859   0.264  3.0611 -0.4418  0.8735
16652TIP3   OH271370   4.780   2.663   4.604  0.1617  0.2986  0.0870
16652TIP3    H171371   4.689   2.684   4.624 -0.5893 -0.1755 -2.6633
16652TIP3    H271372   4.800   2.588   4.659 -1.6430 -0.6216 -0.4640
16653TIP3   OH271373   5.979   2.888   5.587  0.5525 -0.4118  0.3251
16653TIP3    H171374   5.945   2.859   5.502 -0.5241  0.8159  0.3201
16653TIP3    H271375   5.913   2.859   5.650  0.3917  0.3647  0.5199
16654TIP3   OH271376   3.475   0.130  16.818  0.3217 -0.3464 -0.2847
16654TIP3    H171377   3.516   0.079  16.888 -0.6947  2.6216  2.5570
16654TIP3    H271378   3.384   0.139  16.846 -0.7703 -1.3760 -3.3534
16655TIP3   OH271379   3.410   4.434   3.894  0.3154  0.2552 -0.0379
16655TIP3    H171380   3.412   4.431   3.990  0.3510 -2.1611 -0.0806
16655TIP3    H271381   3.502   4.432   3.868  0.2822 -1.3611 -0.1238
16656TIP3   OH271382   6.786   0.241   1.908  0.1448 -0.0398  0.0306
16656TIP3    H171383   6.703   0.283   1.928  0.1560  0.8513 -1.6672
16656TIP3    H271384   6.823   0.295   1.838  1.8009 -0.8594  0.2555
16657TIP3   OH271385   2.814   4.099  13.068  0.0075  0.1802  0.0608
16657TIP3    H171386   2.779   4.151  13.140  0.1038  1.3289 -0.7228
16657TIP3    H271387   2.774   4.136  12.990 -1.5080 -2.2254 -0.3456
16658TIP3   OH271388   0.636   2.973   5.315 -0.2927  0.4978  0.0615
16658TIP3    H171389   0.718   2.944   5.356  0.3114  4.9505  2.2076
16658TIP3    H271390   0.663   3.030   5.243 -1.5334  0.3180 -0.5750
16659TIP3   OH271391   1.369   1.096  13.182 -0.4531  0.3508 -1.0072
16659TIP3    H171392   1.332   1.015  13.148 -0.4749 -0.2916  0.5271
16659TIP3    H271393   1.328   1.107  13.268 -2.9865  3.7143 -2.5020
16660TIP3   OH271394   5.009   0.560  16.175  0.0196  0.5801 -0.0867
16660TIP3    H171395   5.080   0.600  16.226 -0.4926  0.2593  0.8992
16660TIP3    H271396   4.989   0.623  16.106  2.7303 -0.2415 -1.7110
16661TIP3   OH271397   0.456   5.291  12.709  0.0258 -0.0256 -0.7706
16661TIP3    H171398   0.372   5.251  12.734 -0.5983  1.0641 -1.0715
16661TIP3    H271399   0.521   5.222  12.724 -0.9046 -0.8360 -0.3871
16662TIP3   OH271400   3.316   5.974   6.663 -0.4587 -0.4726  0.2739
16662TIP3    H171401   3.366   5.946   6.739  0.8720 -0.8707 -0.7154
16662TIP3    H271402   3.336   5.908   6.596 -1.4573 -0.0302 -0.4766
16663TIP3   OH271403   3.957   5.733   5.261  0.0217 -0.3371 -0.5300
16663TIP3    H171404   3.971   5.821   5.225 -1.0999  0.1918  0.2896
16663TIP3    H271405   4.044   5.694   5.263  0.7033  1.1660  0.1080
16664TIP3   OH271406   1.299   2.926  12.579 -0.0978  0.5710  0.0736
16664TIP3    H171407   1.306   2.854  12.516 -0.3081 -0.5162  1.2628
16664TIP3    H271408   1.270   2.884  12.660  0.2188  1.9387  0.9131
16665TIP3   OH271409   5.584   3.272  14.184 -0.0065 -0.0082 -0.7332
16665TIP3    H171410   5.519   3.227  14.129 -0.8926  1.4425 -0.8844
16665TIP3    H271411   5.533   3.335  14.234  1.0022 -0.3208  0.7175
16666TIP3   OH271412   6.335   2.945   4.399 -0.1354 -0.6995 -0.0984
16666TIP3    H171413   6.282   2.880   4.353 -0.0246 -2.4620  2.2191
16666TIP3    H271414   6.276   2.982   4.465 -0.0572  1.2538 -1.0641
16667TIP3   OH271415   3.403   4.242   2.535  0.2785  0.1658 -0.4092
16667TIP3    H171416   3.483   4.270   2.490  0.7474 -0.1129  0.2445
16667TIP3    H271417   3.332   4.276   2.480  0.8401  1.3162 -0.4500
16668TIP3   OH271418   1.102   0.347  13.875  0.2000  0.3080 -0.0630
16668TIP3    H171419   1.119   0.266  13.827 -1.9492  0.2651 -0.8055
16668TIP3    H271420   1.099   0.319  13.967 -1.7510 -0.7077 -0.4049
16669TIP3   OH271421   6.784   4.039  16.011 -0.0751  0.2457  0.1253
16669TIP3    H171422   6.765   4.116  16.065 -0.1590 -0.0730  0.5492
16669TIP3    H271423   6.728   3.970  16.047 -0.9270  0.3103 -1.0457
16670TIP3   OH271424   0.474   1.197   5.788 -0.4336  0.4701 -0.3641
16670TIP3    H171425   0.399   1.178   5.844 -1.8410  0.2176 -2.3097
16670TIP3    H271426   0.480   1.293   5.788  0.2010  0.4508  0.9931
16671TIP3   OH271427   0.632   0.500  13.203  0.6262 -0.1877  0.5360
16671TIP3    H171428   0.634   0.553  13.123  3.5860 -2.0213 -0.6861
16671TIP3    H271429   0.645   0.563  13.274  0.1610  1.1823 -0.5714
16672TIP3   OH271430   4.145   6.737  15.149  0.0451  0.1620  0.1865
16672TIP3    H171431   4.061   6.690  15.143 -0.2341  0.8464 -1.4811
16672TIP3    H271432   4.181   6.732  15.061  0.9340  1.4086  0.4762
16673TIP3   OH271433   5.200   5.124   1.001  0.5163  0.3761  0.1359
16673TIP3    H171434   5.227   5.035   0.978  1.8798  1.1059 -1.1160
16673TIP3    H271435   5.256   5.147   1.075 -0.1818  0.0324  0.7880
16674TIP3   OH271436   1.442   5.155  12.585 -0.3790 -0.2440  0.4311
16674TIP3    H171437   1.357   5.112  12.581 -2.1829  3.2613 -1.3665
16674TIP3    H271438   1.475   5.153  12.495  0.8442 -0.3427  0.8598
16675TIP3   OH271439   5.064   2.358   3.457  0.0363  0.0519  0.2041
16675TIP3    H171440   5.048   2.438   3.507  1.3607 -0.4956  1.5511
16675TIP3    H271441   5.039   2.287   3.517 -1.9852 -0.5503 -1.2931
16676TIP3   OH271442   4.164   5.757   3.735  0.0580 -0.0457  0.3923
16676TIP3    H171443   4.206   5.690   3.790 -1.7058 -0.9295  0.7264
16676TIP3    H271444   4.173   5.838   3.785  1.7152 -0.1321  0.2601
16677TIP3   OH271445   2.701   4.980   5.419  0.4047  0.0424 -0.2718
16677TIP3    H171446   2.682   5.052   5.358 -0.2076  1.1668  1.2041
16677TIP3    H271447   2.778   5.010   5.468  0.0684 -0.2383  0.4388
16678TIP3   OH271448   3.774   3.906  11.792 -0.1769  0.4673 -0.3664
16678TIP3    H171449   3.749   3.998  11.789 -0.8834  0.3729  1.5725
16678TIP3    H271450   3.692   3.858  11.786  0.1203 -0.0167 -0.6160
16679TIP3   OH271451   4.981   5.838  15.551  0.8863  0.4263 -0.4944
16679TIP3    H171452   5.067   5.880  15.548  1.7025 -1.2252 -0.8850
16679TIP3    H271453   4.997   5.751  15.588 -0.3157 -0.5596 -2.1721
16680TIP3   OH271454   4.329   3.588   2.124  0.0498 -0.3617 -0.6563
16680TIP3    H171455   4.268   3.516   2.110 -1.8323  1.3060 -1.4384
16680TIP3    H271456   4.280   3.666   2.097  1.2660  1.4384  2.0670
16681TIP3   OH271457   3.398   1.461   4.454  0.3785  0.0035 -0.4338
16681TIP3    H171458   3.460   1.420   4.515  1.2361 -0.2889 -1.4881
16681TIP3    H271459   3.336   1.391   4.432 -0.6595  0.4315  1.0164
16682TIP3   OH271460   3.722   4.917   5.242  0.4833 -0.4036  0.7298
16682TIP3    H171461   3.739   4.872   5.325 -0.4861 -0.6853  0.7785
16682TIP3    H271462   3.670   4.993   5.267  0.0839 -0.5578  0.3614
16683TIP3   OH271463   3.236   4.124   6.713  0.7841  0.1782 -0.5843
16683TIP3    H171464   3.245   4.189   6.783  0.4559 -0.5659  0.1523
16683TIP3    H271465   3.326   4.107   6.685  0.9157  0.4652 -0.3413
16684TIP3   OH271466   1.568   6.323   3.580  0.4929 -0.8199 -0.0412
16684TIP3    H171467   1.650   6.358   3.614  0.3246  1.5950 -1.9977
16684TIP3    H271468   1.589   6.296   3.490 -0.7118 -0.7138 -0.3589
16685TIP3   OH271469   6.324   1.932   4.707 -1.3425 -0.2820 -0.2519
16685TIP3    H171470   6.274   1.956   4.629 -0.3862  0.9329 -0.5078
16685TIP3    H271471   6.415   1.930   4.677 -1.1121 -1.2395  0.4992
16686TIP3   OH271472   6.067   5.839  14.864 -0.2934  0.0118  0.0205
16686TIP3    H171473   5.975   5.863  14.849 -0.0329  0.5037 -0.8263
16686TIP3    H271474   6.110   5.858  14.781  0.9339  1.4831  0.9815
16687TIP3   OH271475   1.672   2.312  13.967 -0.0032 -0.3763 -0.2634
16687TIP3    H171476   1.654   2.307  14.061  0.2078 -1.3221 -0.2715
16687TIP3    H271477   1.674   2.221  13.938 -0.4174 -0.0739 -1.2528
16688TIP3   OH271478   1.920   2.876  15.392 -0.7544  0.0917 -0.2953
16688TIP3    H171479   1.943   2.904  15.303 -1.5875  1.3979 -0.1110
16688TIP3    H271480   1.954   2.945  15.449  0.9893 -1.4113  0.5360
16689TIP3   OH271481   4.690   4.858  12.137  0.2329 -0.8642  0.6419
16689TIP3    H171482   4.720   4.817  12.218  1.8384 -1.6516 -0.3198
16689TIP3    H271483   4.760   4.918  12.112 -0.2230 -0.6596 -0.1898
16690TIP3   OH271484   2.556   5.330   0.838 -0.4644  0.3164  0.7989
16690TIP3    H171485   2.642   5.353   0.873 -0.9822  0.5078  1.9626
16690TIP3    H271486   2.568   5.241   0.804  0.0958  0.2065  1.2728
16691TIP3   OH271487   5.683   2.123  13.481 -0.4944  0.0340 -0.4381
16691TIP3    H171488   5.778   2.137  13.482 -0.3495 -0.9014  1.3559
16691TIP3    H271489   5.656   2.148  13.393  1.1643  1.9435 -0.4499
16692TIP3   OH271490   2.986   5.315  11.223  0.5965  0.3611 -0.1456
16692TIP3    H171491   2.951   5.239  11.178  0.8147  0.2201 -0.0808
16692TIP3    H271492   2.938   5.390  11.187  1.3994  0.3450 -1.2707
16693TIP3   OH271493   6.518   1.478   5.506 -0.0452  0.0285  0.4054
16693TIP3    H171494   6.569   1.497   5.427 -1.5216  0.5813 -0.4542
16693TIP3    H271495   6.550   1.540   5.571  0.1808  0.5803 -0.2208
16694TIP3   OH271496   2.140   5.453   3.218 -0.2440  0.1434  0.2666
16694TIP3    H171497   2.183   5.519   3.273  0.7722 -0.4145  0.1583
16694TIP3    H271498   2.174   5.369   3.250 -1.0531 -0.2946 -0.0051
16695TIP3   OH271499   1.125   3.648   4.275  0.0616  0.1409  0.2937
16695TIP3    H171500   1.117   3.610   4.188  3.1909 -0.5470  0.2547
16695TIP3    H271501   1.128   3.742   4.261 -1.4709  0.1398 -0.1339
16696TIP3   OH271502   3.576   2.576   5.237 -0.4465 -0.2249 -0.2150
16696TIP3    H171503   3.669   2.589   5.220  0.4287 -5.2939 -0.0628
16696TIP3    H271504   3.535   2.579   5.150  0.1110 -0.0237 -0.4726
16697TIP3   OH271505   6.664   2.764  17.004 -0.5880 -0.4228  0.1354
16697TIP3    H171506   6.733   2.724  16.950  0.1883 -0.2269  0.9538
16697TIP3    H271507   6.636   2.841  16.955  0.2135 -0.1638  0.0807
16698TIP3   OH271508   4.795   4.943  10.810  0.6060  0.1546  0.5296
16698TIP3    H171509   4.702   4.924  10.795  1.0858 -2.3675  0.5774
16698TIP3    H271510   4.805   4.940  10.905  0.6198  1.1055  0.5659
16699TIP3   OH271511   4.141   5.981   6.030 -0.3805 -0.0479  0.2169
16699TIP3    H171512   4.133   6.076   6.035  0.0022 -0.0308  0.4495
16699TIP3    H271513   4.057   5.953   5.993 -0.1862  0.4426 -0.6139
16700TIP3   OH271514   4.352   1.302  10.806 -0.7374  0.2249 -0.0927
16700TIP3    H171515   4.313   1.330  10.888  0.6670 -1.9798  1.3724
16700TIP3    H271516   4.433   1.351  10.799 -1.1312  0.8322 -0.4639
16701TIP3   OH271517   2.041   5.434   2.943 -0.0170 -0.3402 -0.3421
16701TIP3    H171518   2.125   5.438   2.991 -0.0786  1.3084 -0.3398
16701TIP3    H271519   2.065   5.410   2.854  0.2898 -1.4803  0.0331
16702TIP3   OH271520   4.722   3.380   2.204  0.2038 -0.0455  0.1852
16702TIP3    H171521   4.653   3.428   2.250  0.0833 -0.0673  0.0274
16702TIP3    H271522   4.742   3.305   2.261  0.5460  0.3120  0.5381
16703TIP3   OH271523   4.580   1.782  15.066 -0.0996 -0.0059  0.2345
16703TIP3    H171524   4.602   1.729  14.990 -1.4342  2.3752 -1.8997
16703TIP3    H271525   4.664   1.810  15.102  0.5296  0.3987 -1.5294
16704TIP3   OH271526   3.887   1.644  12.117  0.1285 -0.1409  0.3122
16704TIP3    H171527   3.892   1.689  12.033 -1.3639  0.8439  0.7342
16704TIP3    H271528   3.965   1.672  12.164  0.6714 -0.2406 -0.5107
16705TIP3   OH271529   1.579   3.222  14.390  0.2293 -0.3448 -0.1357
16705TIP3    H171530   1.561   3.186  14.477  1.3860  0.1638  0.3318
16705TIP3    H271531   1.652   3.282  14.404  0.9973 -0.9087 -1.6106
16706TIP3   OH271532   3.663   1.725   3.457 -0.0289 -0.0301 -0.2110
16706TIP3    H171533   3.599   1.746   3.525 -1.5357 -0.2709 -1.5399
16706TIP3    H271534   3.727   1.797   3.461  0.6121 -0.6946  2.2962
16707TIP3   OH271535   1.951   5.696   5.234 -0.4373 -0.5311 -0.0966
16707TIP3    H171536   2.023   5.706   5.172 -1.3995  1.1452 -0.9989
16707TIP3    H271537   1.917   5.608   5.218 -0.8672 -0.0054 -2.1871
16708TIP3   OH271538   0.346   5.299  15.230  0.0683 -0.4672  0.1852
16708TIP3    H171539   0.292   5.374  15.209 -0.8948 -0.9133  1.0493
16708TIP3    H271540   0.436   5.329  15.215 -0.3784  0.4442 -0.7099
16709TIP3   OH271541   2.770   5.472   1.491  0.2189  0.2738 -0.7070
16709TIP3    H171542   2.759   5.557   1.534 -0.7134  0.8570 -2.0727
16709TIP3    H271543   2.752   5.408   1.559 -0.6386  1.1814 -0.0748
16710TIP3   OH271544   4.717   6.762  13.906 -0.9953 -0.0746  0.3820
16710TIP3    H171545   4.728   6.686  13.849 -0.9162 -0.1385  0.4827
16710TIP3    H271546   4.627   6.791  13.891 -0.5958  0.6531 -0.6912
16711TIP3   OH271547   4.371   0.848  16.590  0.7461  0.1180  0.0127
16711TIP3    H171548   4.344   0.924  16.539 -0.1771 -0.2683 -0.0896
16711TIP3    H271549   4.411   0.789  16.526 -0.2788 -0.3028 -0.2533
16712TIP3   OH271550   3.728   5.048  12.307 -0.4392 -0.6619  0.2177
16712TIP3    H171551   3.726   5.031  12.212  0.3388 -0.3187  0.1365
16712TIP3    H271552   3.696   5.137  12.316  1.5498  0.1051  0.0671
16713TIP3   OH271553   3.709   1.482  17.169  0.3204 -0.1093 -0.5648
16713TIP3    H171554   3.798   1.476  17.135  1.0000 -1.8110  1.4036
16713TIP3    H271555   3.716   1.544  17.242 -0.5496  1.3379 -1.6847
16714TIP3   OH271556   5.114   4.975  15.216 -0.3111 -0.0307 -0.4263
16714TIP3    H171557   5.204   5.004  15.204 -0.7102  1.4128 -0.0749
16714TIP3    H271558   5.073   4.985  15.130 -0.5963  1.0018 -0.1744
16715TIP3   OH271559   6.413   5.126  12.153 -0.5057  0.5286  0.3454
16715TIP3    H171560   6.443   5.164  12.070  0.2094  0.3141  0.4973
16715TIP3    H271561   6.362   5.049  12.127 -0.0133  0.2785  0.1068
16716TIP3   OH271562   0.747   4.854  15.319  0.3091  0.2076  0.3540
16716TIP3    H171563   0.674   4.796  15.296  2.7911 -2.0599 -2.0849
16716TIP3    H271564   0.793   4.807  15.389  0.8855  0.4661  0.1420
16717TIP3   OH271565   5.842   3.385   5.263  0.3575 -0.4131 -0.1016
16717TIP3    H171566   5.854   3.291   5.276 -2.1456 -1.0084 -1.7533
16717TIP3    H271567   5.756   3.404   5.300 -0.9402  0.3888 -3.2913
16718TIP3   OH271568   6.206   2.881  12.467  0.0101  0.2216 -0.1662
16718TIP3    H171569   6.261   2.917  12.537  1.1110 -1.9457  0.1159
16718TIP3    H271570   6.206   2.949  12.400  2.0903  0.7675  0.3288
16719TIP3   OH271571   3.278   3.356   5.104 -0.5379 -0.3347  0.2875
16719TIP3    H171572   3.247   3.289   5.043 -1.2064  0.1593  0.0924
16719TIP3    H271573   3.201   3.408   5.125  0.1899  1.0495 -0.3864
16720TIP3   OH271574   5.808   4.872   0.464 -0.1871  0.1167  0.3462
16720TIP3    H171575   5.769   4.795   0.423  3.7180 -0.2063 -3.0195
16720TIP3    H271576   5.773   4.946   0.414  1.2805  0.0144 -0.8604
16721TIP3   OH271577   0.734   3.372   1.605 -0.1371 -0.1568  0.2833
16721TIP3    H171578   0.690   3.294   1.638  0.5488 -0.5247  0.3479
16721TIP3    H271579   0.665   3.424   1.565 -1.0700  0.5387  2.7399
16722TIP3   OH271580   4.697   3.499  15.301 -0.2706 -0.2618 -0.3703
16722TIP3    H171581   4.636   3.496  15.228 -0.6607 -1.1592 -0.0128
16722TIP3    H271582   4.650   3.459  15.374  0.2912  0.1669  0.2422
16723TIP3   OH271583   5.345   4.789   1.524  0.6678  0.5979 -0.1388
16723TIP3    H171584   5.255   4.800   1.556  0.5110  1.0457 -0.7024
16723TIP3    H271585   5.359   4.695   1.522  0.3681  0.5431  0.3922
16724TIP3   OH271586   1.583   0.556   0.725 -0.4404  0.2579  1.0412
16724TIP3    H171587   1.594   0.647   0.754 -1.3719  0.8055 -0.2584
16724TIP3    H271588   1.607   0.503   0.801 -3.5879  1.6227  3.0982
16725TIP3   OH271589   1.136   3.547  15.218  0.3194 -0.3696  0.3583
16725TIP3    H171590   1.189   3.478  15.178  0.4791 -0.8473  1.3885
16725TIP3    H271591   1.199   3.612  15.247  0.3261 -0.8025  1.3232
16726TIP3   OH271592   4.574   6.284  11.323  0.2516  0.5158 -0.3620
16726TIP3    H171593   4.553   6.351  11.388 -1.4016 -1.0366  0.7453
16726TIP3    H271594   4.540   6.319  11.241 -0.0724  1.3001  0.1044
16727TIP3   OH271595   5.989   1.020   4.948 -0.3346 -0.1615  0.6801
16727TIP3    H171596   6.071   1.019   4.996 -0.4283 -3.5417  0.8829
16727TIP3    H271597   5.953   0.932   4.959 -3.5374  0.9429 -0.1847
16728TIP3   OH271598   4.911   1.318  13.426 -0.2810 -0.5305  0.2961
16728TIP3    H171599   4.836   1.261  13.440  1.2869 -2.8152 -0.1977
16728TIP3    H271600   4.925   1.317  13.331  0.1628  0.1464  0.3451
16729TIP3   OH271601   6.705   6.593   6.330 -0.3193 -0.3967 -0.0085
16729TIP3    H171602   6.683   6.682   6.301  1.1437  0.1262  0.4590
16729TIP3    H271603   6.643   6.537   6.283  0.0225  0.6860 -1.7978
16730TIP3   OH271604   0.264   0.692  15.429  0.1244 -0.4371  0.5286
16730TIP3    H171605   0.324   0.646  15.489  0.7188 -0.7876 -0.3252
16730TIP3    H271606   0.271   0.784  15.454 -0.1168 -0.6532  1.4220
16731TIP3   OH271607   3.996   5.330  16.619 -0.1638 -0.2323  0.0666
16731TIP3    H171608   4.013   5.241  16.586 -2.3113 -0.1702 -1.3331
16731TIP3    H271609   3.936   5.317  16.692 -0.1055  0.0355  0.1636
16732TIP3   OH271610   2.977   6.236  12.444 -0.2787  0.1643  0.3001
16732TIP3    H171611   2.901   6.264  12.394  0.1181 -2.6695 -2.0217
16732TIP3    H271612   3.023   6.317  12.466 -2.9753  1.7810  0.2139
16733TIP3   OH271613   4.374   5.990  13.786 -0.1940  0.2320 -0.4849
16733TIP3    H171614   4.343   6.064  13.839  0.2742  0.1349 -0.0779
16733TIP3    H271615   4.418   6.031  13.711 -1.0699  0.3693 -0.9268
16734TIP3   OH271616   2.443   1.241   2.546 -0.5865 -0.6234  0.1694
16734TIP3    H171617   2.496   1.168   2.578 -0.3839  0.0795  1.4898
16734TIP3    H271618   2.476   1.259   2.458 -0.8901 -2.3551 -0.3132
16735TIP3   OH271619   5.388   4.688  15.360 -0.0825 -0.6881 -0.7840
16735TIP3    H171620   5.366   4.639  15.281  0.1752 -0.4275 -1.0162
16735TIP3    H271621   5.473   4.728  15.341 -0.2468 -0.2271 -0.5582
16736TIP3   OH271622   0.642   1.813  13.012 -0.5564  0.3264  0.2767
16736TIP3    H171623   0.721   1.839  13.060 -0.3717  0.3041 -0.0131
16736TIP3    H271624   0.607   1.895  12.978 -0.9323  0.3930  0.8194
16737TIP3   OH271625   2.152   6.268   2.689  0.2892 -0.0071  0.4338
16737TIP3    H171626   2.149   6.174   2.671  0.2195 -0.0847  0.8582
16737TIP3    H271627   2.198   6.276   2.772  1.2679  0.4093 -0.1373
16738TIP3   OH271628   5.521   4.682   4.667 -0.1568 -0.6461 -0.2200
16738TIP3    H171629   5.450   4.622   4.690  2.3524 -3.3809  0.6521
16738TIP3    H271630   5.526   4.676   4.572  1.0352 -3.0293 -0.0476
16739TIP3   OH271631   1.924   2.280  11.539 -0.2161 -0.2834 -0.2295
16739TIP3    H171632   1.895   2.189  11.547 -1.9116  0.1906 -0.7377
16739TIP3    H271633   1.867   2.317  11.472  1.1408  0.8923 -0.7473
16740TIP3   OH271634   6.181   3.936  16.927  1.2275 -0.5436 -0.2377
16740TIP3    H171635   6.275   3.955  16.928  1.5016 -1.8425 -0.3079
16740TIP3    H271636   6.174   3.847  16.960  0.0852 -0.8006 -1.1390
16741TIP3   OH271637   5.000   4.265   3.732 -0.3246  0.9232  0.2021
16741TIP3    H171638   5.018   4.181   3.773 -0.1341  0.7964 -0.1392
16741TIP3    H271639   4.904   4.272   3.730 -0.3309  0.9566  0.7217
16742TIP3   OH271640   3.551   1.297  13.824  0.0507 -0.1663  0.1440
16742TIP3    H171641   3.562   1.234  13.753  0.1705  2.0434 -1.8642
16742TIP3    H271642   3.640   1.320  13.850  0.0303  0.3529 -0.2287
16743TIP3   OH271643   4.265   2.546   5.357  0.1757  0.1764 -0.1032
16743TIP3    H171644   4.225   2.573   5.274  0.6880 -0.9897 -0.7424
16743TIP3    H271645   4.210   2.586   5.424 -2.0956 -1.4096 -0.9725
16744TIP3   OH271646   3.370   5.924  14.056 -0.3433 -0.3631  0.0152
16744TIP3    H171647   3.464   5.919  14.075 -0.4061  0.1983  0.4790
16744TIP3    H271648   3.333   5.970  14.131 -1.1184 -1.3313  0.2482
16745TIP3   OH271649   1.827   4.480  14.236 -0.0858 -0.1330  0.4106
16745TIP3    H171650   1.869   4.548  14.288  2.0349 -1.1225  0.0171
16745TIP3    H271651   1.824   4.517  14.147  1.3010 -0.6551  0.1448
16746TIP3   OH271652   5.942   6.708   2.802  0.2810 -0.2715  0.4481
16746TIP3    H171653   5.994   6.737   2.728  0.1307 -1.5866 -0.1903
16746TIP3    H271654   5.857   6.752   2.790  0.4623  0.0099  0.1889
16747TIP3   OH271655   2.140   6.586  14.842 -0.0688  0.0851  0.6832
16747TIP3    H171656   2.077   6.607  14.910  0.8887 -0.7661  1.8534
16747TIP3    H271657   2.148   6.490  14.845  0.6061  0.1093 -0.0474
16748TIP3   OH271658   1.916   3.781  16.876  0.1936 -0.9529 -0.2174
16748TIP3    H171659   1.984   3.848  16.869 -0.2611 -0.5899 -1.2642
16748TIP3    H271660   1.835   3.827  16.856 -0.1512 -1.7678 -0.7003
16749TIP3   OH271661   2.354   3.909  16.835  0.2478  0.5019 -0.4055
16749TIP3    H171662   2.301   3.960  16.774 -0.6657  0.1616  0.0890
16749TIP3    H271663   2.444   3.922  16.806 -0.0319  1.8615 -0.6732
16750TIP3   OH271664   5.347   0.208  13.761  0.5076 -0.1265 -0.1512
16750TIP3    H171665   5.427   0.161  13.740  0.2386 -0.6477  0.0051
16750TIP3    H271666   5.371   0.266  13.833  0.8499  0.0297 -0.3873
16751TIP3   OH271667   0.315   2.221   1.948 -0.5016 -0.1373  0.3639
16751TIP3    H171668   0.310   2.244   2.040  3.5422 -1.9444  1.1488
16751TIP3    H271669   0.349   2.300   1.905  1.0436 -0.4325  1.0189
16752TIP3   OH271670   0.485   2.488  13.022 -0.8491 -0.5656  0.2040
16752TIP3    H171671   0.489   2.467  13.116  1.2430  1.6374  0.6717
16752TIP3    H271672   0.553   2.434  12.983 -0.3924 -0.0604  0.2860
16753TIP3   OH271673   0.764   0.075   5.471  0.2714  0.5678  0.3394
16753TIP3    H171674   0.680   0.031   5.480  0.4041  0.0439 -0.9833
16753TIP3    H271675   0.818   0.038   5.541  0.5981 -1.8932 -1.1657
16754TIP3   OH271676   0.759   0.431   0.960 -0.1628 -0.5002  0.4890
16754TIP3    H171677   0.757   0.353   1.016 -3.7437 -0.2861  0.7899
16754TIP3    H271678   0.697   0.491   1.001  0.7125  1.5636 -1.1186
16755TIP3   OH271679   5.983   2.752   2.267  0.0732  0.1219 -0.0895
16755TIP3    H171680   5.900   2.795   2.288  0.1864  1.2318 -1.7580
16755TIP3    H271681   5.958   2.664   2.239 -0.6919  0.8648 -1.8184
16756TIP3   OH271682   5.555   2.192   0.855 -0.0274  0.0235 -0.5015
16756TIP3    H171683   5.545   2.191   0.950  2.4134  0.3192 -0.1980
16756TIP3    H271684   5.511   2.271   0.826 -1.3839 -0.4290  0.2917
16757TIP3   OH271685   3.460   4.890   0.181  0.2379  0.2237 -0.2697
16757TIP3    H171686   3.483   4.798   0.165  1.9522  0.7317 -0.8420
16757TIP3    H271687   3.512   4.914   0.258 -1.7841  0.1451  1.1732
16758TIP3   OH271688   3.960   0.564  11.092 -0.1425  0.1647 -0.2021
16758TIP3    H171689   4.044   0.536  11.055 -0.3699 -2.0171  0.8071
16758TIP3    H271690   3.899   0.493  11.070 -1.4581  1.1924  0.0437
16759TIP3   OH271691   0.744   6.147  12.162  0.5653 -0.1492  0.1674
16759TIP3    H171692   0.821   6.202  12.180  0.1599 -0.0903  1.8003
16759TIP3    H271693   0.685   6.204  12.114  0.4921  0.6202  1.1354
16760TIP3   OH271694   4.327   4.742   1.150  0.2144 -0.4884  0.1919
16760TIP3    H171695   4.392   4.810   1.170 -0.8098  0.1570  1.4710
16760TIP3    H271696   4.285   4.725   1.235 -0.4646 -1.7437 -0.3928
16761TIP3   OH271697   6.185   0.164  16.688  0.3279  0.0955  0.0593
16761TIP3    H171698   6.156   0.076  16.665  0.4362  0.1083 -0.1223
16761TIP3    H271699   6.104   0.213  16.699  0.1155 -0.8692  3.4967
16762TIP3   OH271700   6.169   4.498  14.716  0.4125  0.7301 -0.7418
16762TIP3    H171701   6.079   4.509  14.746 -0.0072  0.1997 -1.7795
16762TIP3    H271702   6.166   4.515  14.622  1.2027 -0.2866 -0.9708
16763TIP3   OH271703   0.144   2.460   6.569 -0.2484 -0.4608 -0.1279
16763TIP3    H171704   0.180   2.377   6.538  1.0001  0.2427 -0.6338
16763TIP3    H271705   0.216   2.522   6.558 -1.2988  0.7766 -0.1474
16764TIP3   OH271706   6.118   3.835   0.024  0.9141  0.9745  0.0480
16764TIP3    H171707   6.196   3.780   0.033 -0.6891 -1.4056 -0.1801
16764TIP3    H271708   6.151   3.917  -0.013  3.1690 -0.3740 -1.0832
16765TIP3   OH271709   1.247   3.713   3.544 -0.2552 -0.1264  0.2135
16765TIP3    H171710   1.255   3.727   3.450 -0.8142  1.7784  0.4243
16765TIP3    H271711   1.337   3.701   3.575  0.0975  1.0291 -0.3245
16766TIP3   OH271712   3.489   6.614  14.213 -0.2122 -0.4217 -0.1014
16766TIP3    H171713   3.445   6.692  14.179  0.3421 -0.3863 -0.7381
16766TIP3    H271714   3.482   6.550  14.142 -0.2430 -0.7943  0.2388
16767TIP3   OH271715   4.138   3.670  11.796  0.1942  0.0855  0.0941
16767TIP3    H171716   4.074   3.703  11.734 -0.4148 -1.0846  0.0811
16767TIP3    H271717   4.119   3.716  11.878 -0.1573  0.3074 -0.1135
16768TIP3   OH271718   2.566   2.083   0.815  0.0684  0.0270 -0.4414
16768TIP3    H171719   2.550   2.041   0.730 -0.3272 -0.0728 -0.3183
16768TIP3    H271720   2.631   2.151   0.796 -2.1451  1.9408 -1.3786
16769TIP3   OH271721   3.480   2.324  17.075  0.3633  0.2051  0.1407
16769TIP3    H171722   3.445   2.326  16.986  1.7224  0.2072 -0.4067
16769TIP3    H271723   3.444   2.401  17.117  1.2050  1.2322 -0.9921
16770TIP3   OH271724   1.939   4.114   1.247 -0.0827  0.1493 -0.2457
16770TIP3    H171725   1.879   4.078   1.312  1.7841 -1.2149  0.7625
16770TIP3    H271726   1.891   4.108   1.164 -1.5912 -0.2463  0.6297
16771TIP3   OH271727   2.598   2.182   5.817  0.1489  0.5691 -0.1894
16771TIP3    H171728   2.548   2.217   5.743  0.4115  0.1749 -0.5577
16771TIP3    H271729   2.571   2.235   5.892 -2.2818 -0.8629  0.0163
16772TIP3   OH271730   2.008   0.461   1.400  0.2657  0.4258 -0.1040
16772TIP3    H171731   1.970   0.395   1.457 -1.1823 -1.1904 -2.8617
16772TIP3    H271732   2.073   0.414   1.349  1.4366  1.8226  0.0828
16773TIP3   OH271733   5.783   5.094  16.074  1.0067 -0.7173 -0.1132
16773TIP3    H171734   5.791   5.187  16.095  1.8387 -0.8747  0.2910
16773TIP3    H271735   5.873   5.061  16.075  0.5541 -2.0037  1.8947
16774TIP3   OH271736   0.806   2.430   2.346 -0.2391  0.0418 -0.3819
16774TIP3    H171737   0.734   2.492   2.341  1.4142  2.0350 -0.1835
16774TIP3    H271738   0.829   2.427   2.439  1.0709  0.7583 -0.6785
16775TIP3   OH271739   6.318   4.203  12.648 -0.1088 -0.6071 -0.5696
16775TIP3    H171740   6.323   4.294  12.676 -0.3999 -0.2756 -1.5547
16775TIP3    H271741   6.250   4.164  12.703 -0.2200 -0.1423 -0.3759
16776TIP3   OH271742   4.244   6.743   5.451 -0.0317 -0.5644 -0.1832
16776TIP3    H171743   4.271   6.727   5.541 -0.0301 -0.4324 -0.1596
16776TIP3    H271744   4.307   6.692   5.399 -0.3848 -1.1002 -0.0912
16777TIP3   OH271745   4.314   1.806   3.644 -0.6510  0.1722  0.1536
16777TIP3    H171746   4.227   1.830   3.611 -0.1623  2.5821  0.5168
16777TIP3    H271747   4.351   1.749   3.577 -2.1657 -0.1287 -0.4359
16778TIP3   OH271748   3.081   3.889  16.206  0.0817 -0.0312  0.4622
16778TIP3    H171749   3.020   3.911  16.276 -1.4456 -1.3713 -0.3885
16778TIP3    H271750   3.160   3.939  16.225 -0.5230  0.0693  2.7917
16779TIP3   OH271751   6.281   1.599   2.069  0.2799 -0.2777 -0.1657
16779TIP3    H171752   6.270   1.664   2.137  0.8173  0.2017 -0.5373
16779TIP3    H271753   6.282   1.515   2.116  1.7126  0.1123  0.5266
16780TIP3   OH271754   0.437   1.107  15.172  0.5713 -0.5368 -0.9328
16780TIP3    H171755   0.499   1.092  15.243 -1.1526  0.4645  0.8400
16780TIP3    H271756   0.370   1.039  15.185  0.0927 -0.1608 -1.4282
16781TIP3   OH271757   3.419   3.234   2.387 -0.0150 -0.0780 -0.7637
16781TIP3    H171758   3.435   3.226   2.481  1.0020 -1.6646 -1.0479
16781TIP3    H271759   3.340   3.183   2.372  0.9046 -1.4496 -1.0481
16782TIP3   OH271760   6.399   5.278   5.307 -0.2775 -0.0614  0.1501
16782TIP3    H171761   6.420   5.222   5.232 -0.6932 -1.4011  1.0098
16782TIP3    H271762   6.401   5.367   5.272  2.1364 -0.4775 -0.8421
16783TIP3   OH271763   4.540   1.815   5.708  0.0794  0.6806  0.8026
16783TIP3    H171764   4.454   1.810   5.752 -0.3779  1.0570 -0.0307
16783TIP3    H271765   4.599   1.765   5.764 -0.6497  0.5751  1.4852
16784TIP3   OH271766   4.546   3.494  13.625  0.8533 -0.5760  0.0144
16784TIP3    H171767   4.552   3.490  13.720  3.4128 -1.0452 -0.1374
16784TIP3    H271768   4.481   3.427  13.602 -1.0637  0.7163  1.5054
16785TIP3   OH271769   3.845   5.128  13.439  0.6109  0.5640  0.0071
16785TIP3    H171770   3.863   5.130  13.533  0.9499 -0.0566 -0.0413
16785TIP3    H271771   3.886   5.047  13.408  0.1145  0.5355 -0.5979
16786TIP3   OH271772   6.644   0.497  10.948  0.4968 -0.3987 -0.3647
16786TIP3    H171773   6.589   0.562  10.905 -0.5737 -2.0999 -1.6278
16786TIP3    H271774   6.590   0.462  11.019  1.2347  0.3589  0.6018
16787TIP3   OH271775   3.244   1.248   1.397 -0.0403 -0.3519 -0.2794
16787TIP3    H171776   3.235   1.267   1.491  0.7230 -0.6557 -0.1441
16787TIP3    H271777   3.195   1.318   1.354 -1.3341 -0.8259  0.3765
16788TIP3   OH271778   5.639   0.057   0.731  0.4409 -0.2728 -0.1711
16788TIP3    H171779   5.669   0.137   0.687  0.9999 -0.1510  0.4144
16788TIP3    H271780   5.661   0.071   0.823 -1.6290 -0.0895  0.3181
16789TIP3   OH271781   2.991   3.767   6.747 -0.2866  0.3233 -0.0970
16789TIP3    H171782   3.042   3.688   6.767 -0.6254  0.1188 -0.0269
16789TIP3    H271783   2.975   3.762   6.653 -0.8107 -0.0001  0.0047
16790TIP3   OH271784   3.032   5.347  14.382  0.1793 -0.6907  0.4388
16790TIP3    H171785   2.974   5.367  14.309 -2.0643  0.7040  2.5400
16790TIP3    H271786   3.033   5.251  14.387 -0.7325 -0.7533 -0.5679
16791TIP3   OH271787   0.828   1.418   2.040 -0.7619 -0.0996  0.4325
16791TIP3    H171788   0.846   1.447   2.130 -2.2209  2.0178  0.0904
16791TIP3    H271789   0.818   1.499   1.991 -1.3322 -1.2367 -1.3665
16792TIP3   OH271790   5.803   6.592  13.478  0.0051  0.1874  0.2378
16792TIP3    H171791   5.877   6.533  13.481  0.8688  1.3073  1.9740
16792TIP3    H271792   5.732   6.545  13.522  0.2358 -0.1438  0.2482
16793TIP3   OH271793   4.024   2.600  15.701  0.3649  0.3478 -0.4149
16793TIP3    H171794   3.991   2.551  15.626  0.5393 -0.3606 -0.0353
16793TIP3    H271795   4.118   2.610  15.684  0.8375 -1.6995  0.7108
16794TIP3   OH271796   5.992   5.595   5.001 -0.2914  0.0368  0.1542
16794TIP3    H171797   5.966   5.614   5.091 -0.8702  2.3474 -0.4817
16794TIP3    H271798   5.999   5.680   4.959  0.6936 -0.9793 -1.8120
16795TIP3   OH271799   4.948   0.689   1.864  0.5079 -0.5128 -0.0282
16795TIP3    H171800   4.858   0.696   1.831  0.8033  0.0413 -0.7249
16795TIP3    H271801   4.990   0.627   1.804  0.1279 -2.1533  1.3305
16796TIP3   OH271802   2.881   2.058  12.648 -0.1440  0.4573 -0.0463
16796TIP3    H171803   2.908   2.042  12.557 -1.5261  1.7652 -0.7288
16796TIP3    H271804   2.811   1.994  12.663 -0.6717  0.9674 -0.2949
16797TIP3   OH271805   2.146   5.506   2.292 -0.5455 -0.0516  0.4455
16797TIP3    H171806   2.189   5.426   2.263 -0.0233  0.4144 -0.0850
16797TIP3    H271807   2.099   5.538   2.215 -0.5585  0.2717  0.5853
16798TIP3   OH271808   0.566   3.035   3.480  0.3322 -0.1905  0.1538
16798TIP3    H171809   0.541   3.105   3.540  0.2048 -1.0002  1.0482
16798TIP3    H271810   0.484   3.009   3.438  0.7395  1.9070 -2.0630
16799TIP3   OH271811   0.027   0.017  11.385  0.2951 -0.2937 -0.3141
16799TIP3    H171812   0.068   0.103  11.392 -0.9162  0.1449  1.9169
16799TIP3    H271813   0.082  -0.031  11.323  3.7158  0.5306  1.9392
16800TIP3   OH271814   4.642   0.199   1.485  0.0755 -0.4253  0.8496
16800TIP3    H171815   4.734   0.180   1.502 -0.0155 -0.9435  0.7722
16800TIP3    H271816   4.596   0.167   1.563  0.1045  1.1061  1.5135
16801TIP3   OH271817   1.043   2.022  13.404  0.0574 -0.2001 -0.1755
16801TIP3    H171818   0.998   2.103  13.426 -0.1302  0.0440 -1.4467
16801TIP3    H271819   1.131   2.050  13.377  0.7493 -0.6094  1.5334
16802TIP3   OH271820   0.037   2.872  12.085 -0.1722  0.5894  0.2117
16802TIP3    H171821   0.113   2.930  12.094 -0.3122  0.8062  0.0175
16802TIP3    H271822  -0.038   2.928  12.106 -0.2249  0.1802  1.1467
16803TIP3   OH271823   2.665   4.138  15.051 -0.3474  0.3562 -0.3862
16803TIP3    H171824   2.707   4.062  15.092  0.9155  0.3002 -1.7456
16803TIP3    H271825   2.719   4.157  14.974 -0.9177  2.3370 -0.3345
16804TIP3   OH271826   0.656   6.383  16.448 -0.0183  0.3385 -0.0209
16804TIP3    H171827   0.596   6.345  16.384 -0.1620  0.3497  0.1080
16804TIP3    H271828   0.734   6.328  16.444 -0.0980  0.2307 -0.0725
16805TIP3   OH271829   2.998   4.770   0.126  0.1406 -0.3251  0.4803
16805TIP3    H171830   2.964   4.708   0.062  4.1509 -3.4862  1.1978
16805TIP3    H271831   3.050   4.832   0.075  1.7495 -1.6938  0.4154
16806TIP3   OH271832   6.191   0.781  14.104 -0.2338  0.3908  0.0986
16806TIP3    H171833   6.156   0.731  14.030 -0.4088  1.3158 -0.4444
16806TIP3    H271834   6.250   0.845  14.064 -0.1161  0.7116  0.7816
16807TIP3   OH271835   0.696   6.470   2.347 -0.1208  0.5926 -0.4258
16807TIP3    H171836   0.616   6.479   2.399 -0.3730  0.4121 -0.7843
16807TIP3    H271837   0.672   6.411   2.276  0.7141 -0.5555  0.2454
16808TIP3   OH271838   5.892   1.143  11.154 -0.2413 -0.3055  0.3056
16808TIP3    H171839   5.964   1.085  11.176 -0.0955 -0.6072 -0.9059
16808TIP3    H271840   5.824   1.085  11.121 -0.4058  0.1345 -0.1339
16809TIP3   OH271841   3.573   3.115   4.290  0.1478 -0.2046 -0.5665
16809TIP3    H171842   3.539   3.203   4.307  0.9770  0.1252 -0.5981
16809TIP3    H271843   3.536   3.061   4.360 -1.0966 -0.0270 -1.0678
16810TIP3   OH271844   1.407   0.253  12.872  0.7062  0.1075 -0.2256
16810TIP3    H171845   1.407   0.283  12.963  1.8213  1.2327 -0.5867
16810TIP3    H271846   1.314   0.253  12.847  0.2881 -1.2106  1.2166
16811TIP3   OH271847   3.345   2.550  17.208  0.0067 -0.1607 -0.1200
16811TIP3    H171848   3.274   2.504  17.253  0.4913  0.0555  0.8801
16811TIP3    H271849   3.354   2.632  17.255  1.1462 -0.3321 -0.0386
16812TIP3   OH271850   2.482   4.193   5.670 -0.5426  0.2613 -0.8808
16812TIP3    H171851   2.419   4.232   5.731  0.4485  0.9936 -0.2976
16812TIP3    H271852   2.429   4.143   5.608 -1.5825 -0.4334  0.5452
16813TIP3   OH271853   5.342   3.550   3.298 -0.1454  0.3192  0.2449
16813TIP3    H171854   5.310   3.490   3.231  0.8759 -1.2937  1.1499
16813TIP3    H271855   5.358   3.632   3.251 -2.3696  0.1506 -0.8495
16814TIP3   OH271856   3.850   2.690   0.904  0.2681 -0.2568 -0.0841
16814TIP3    H171857   3.780   2.738   0.860 -0.3057 -0.7898  0.2432
16814TIP3    H271858   3.881   2.751   0.972 -1.0539 -0.6632  0.9159
16815TIP3   OH271859   4.433   2.221  16.877  0.4992 -0.1741 -0.6307
16815TIP3    H171860   4.355   2.239  16.929  1.0871  1.9710 -0.4215
16815TIP3    H271861   4.492   2.174  16.936  0.3503  0.4510  0.0228
16816TIP3   OH271862   0.468   1.983  13.255 -0.1610 -0.6032 -0.8411
16816TIP3    H171863   0.554   2.001  13.292  0.4263 -2.9487 -0.9938
16816TIP3    H271864   0.475   2.011  13.164  0.6917 -1.4677 -1.0496
16817TIP3   OH271865   4.192   1.693  14.367  0.3880  0.4712  0.3866
16817TIP3    H171866   4.277   1.732  14.389  1.5128 -2.4929  1.5815
16817TIP3    H271867   4.203   1.600  14.384 -2.5176 -0.2719 -1.3813
16818TIP3   OH271868   6.543   3.531  16.496  0.4912  0.0268  0.1621
16818TIP3    H171869   6.574   3.472  16.427 -1.1594 -0.8663  0.1574
16818TIP3    H271870   6.448   3.535  16.483  0.0716 -0.6409  2.7539
16819TIP3   OH271871   6.644   0.413   6.792 -0.2077  0.0855 -0.0741
16819TIP3    H171872   6.619   0.322   6.776  1.6541 -0.6786  1.2784
16819TIP3    H271873   6.693   0.438   6.714  1.3589 -0.8588  0.5861
16820TIP3   OH271874   1.440   2.838  14.418  0.1369 -0.2659 -0.6607
16820TIP3    H171875   1.374   2.806  14.480  1.9900  2.6065  3.0049
16820TIP3    H271876   1.508   2.771  14.419  0.5164  0.1167  1.1133
16821TIP3   OH271877   3.143   6.730  14.171 -0.0518 -0.0304 -0.7616
16821TIP3    H171878   3.195   6.728  14.090  1.5181  0.9523  0.2031
16821TIP3    H271879   3.196   6.684  14.236 -0.0652  1.5877  0.4157
16822TIP3   OH271880   1.966   0.745   1.378  0.0959  0.3887 -0.0556
16822TIP3    H171881   1.985   0.653   1.395  1.3789  0.6659  0.1178
16822TIP3    H271882   2.048   0.790   1.399 -0.9495  1.7398  1.2385
16823TIP3   OH271883   2.643   3.818   2.334 -0.0304  0.2886  0.6444
16823TIP3    H171884   2.583   3.832   2.407 -1.9243 -0.6191 -0.7006
16823TIP3    H271885   2.635   3.725   2.314 -1.0060  0.8742 -1.9375
16824TIP3   OH271886   0.398   2.188   0.860  0.0647 -0.1743  0.1201
16824TIP3    H171887   0.348   2.227   0.932  0.9995  1.9480 -0.3279
16824TIP3    H271888   0.379   2.094   0.865 -3.0095  0.4265  0.6741
16825TIP3   OH271889   2.716   1.819   3.779 -0.4533 -0.6219  0.3324
16825TIP3    H171890   2.719   1.858   3.692 -1.8789  0.8033  0.8809
16825TIP3    H271891   2.687   1.729   3.765  1.9606 -1.2406 -0.8830
16826TIP3   OH271892   1.059   1.957  16.883  0.2467  0.5328  0.6425
16826TIP3    H171893   0.984   1.934  16.827  0.5185 -2.3322  1.3447
16826TIP3    H271894   1.135   1.947  16.827  0.3410  0.1080  0.8461
16827TIP3   OH271895   4.742   2.126  13.773  0.3284  0.1479 -0.2481
16827TIP3    H171896   4.787   2.181  13.708  1.0724  0.3242  0.4119
16827TIP3    H271897   4.812   2.070  13.809  0.0368  0.4827  0.8481
16828TIP3   OH271898   4.824   6.387   3.749 -0.6315  0.8708 -0.0899
16828TIP3    H171899   4.785   6.312   3.706 -0.9453  1.4816 -0.8803
16828TIP3    H271900   4.918   6.368   3.753 -0.8068  0.1072  0.3930
16829TIP3   OH271901   5.959   3.775  12.319  0.0953 -0.0629 -0.1425
16829TIP3    H171902   5.958   3.687  12.355  0.5048  0.4063  1.0524
16829TIP3    H271903   5.928   3.830  12.391  1.8717  1.0163 -0.1801
16830TIP3   OH271904   2.240   5.525   0.970  0.6633  0.0252 -0.2881
16830TIP3    H171905   2.283   5.607   0.944  0.2782 -0.3934 -2.2987
16830TIP3    H271906   2.195   5.547   1.051  3.4400  0.8693  1.0948
16831TIP3   OH271907   1.969   4.139  11.806  0.6936 -0.2789 -0.2949
16831TIP3    H171908   1.965   4.060  11.859  2.6490 -0.7706 -0.8499
16831TIP3    H271909   1.973   4.211  11.869  1.4286 -0.7744  0.2186
16832TIP3   OH271910   6.656   2.679  15.281 -0.0796 -0.8622  0.2305
16832TIP3    H171911   6.671   2.644  15.193 -0.6479 -1.8047  0.4909
16832TIP3    H271912   6.612   2.607  15.327 -1.3178  0.2302  0.7723
16833TIP3   OH271913   1.081   1.090   6.590 -1.0776 -0.2449 -0.6868
16833TIP3    H171914   1.010   1.074   6.652 -2.0961  0.7486 -1.5736
16833TIP3    H271915   1.143   1.019   6.606 -2.1636 -1.0078  0.2506
16834TIP3   OH271916   1.678   5.710   4.165 -0.3964  0.4257 -0.0008
16834TIP3    H171917   1.594   5.675   4.196 -2.0172  1.7256 -2.6862
16834TIP3    H271918   1.708   5.767   4.236 -1.4722 -0.5417  1.2549
16835TIP3   OH271919   0.947   1.035   4.601  0.7654  0.1777  0.0957
16835TIP3    H171920   1.007   1.072   4.536  1.1142 -1.0606 -0.2979
16835TIP3    H271921   0.933   0.944   4.572 -1.7474  0.6061 -0.1428
16836TIP3   OH271922   2.935   0.158   5.452 -0.0145 -0.0656  0.2281
16836TIP3    H171923   3.028   0.167   5.432 -0.0070 -0.0366  0.2741
16836TIP3    H271924   2.932   0.098   5.526 -0.0985 -0.8494 -0.4106
16837TIP3   OH271925   0.919   5.784   0.544  0.7549 -0.1093 -0.0306
16837TIP3    H171926   0.934   5.762   0.636  0.9103  2.3894  0.5763
16837TIP3    H271927   0.935   5.878   0.538 -4.6609  0.9171 -1.4528
16838TIP3   OH271928   3.785   4.350  14.917 -0.1381 -0.3893  0.3375
16838TIP3    H171929   3.879   4.349  14.898 -0.6897 -0.5861 -2.5790
16838TIP3    H271930   3.767   4.439  14.947  0.8421 -0.1372  0.1872
16839TIP3   OH271931   5.683   6.726   4.144 -0.1454 -0.7802  0.4205
16839TIP3    H171932   5.748   6.795   4.130 -1.0616 -0.4081 -2.1397
16839TIP3    H271933   5.713   6.654   4.089 -1.5972 -0.8080 -0.3509
16840TIP3   OH271934   4.618   3.780   0.995  0.2035 -0.3348  0.2809
16840TIP3    H171935   4.552   3.849   0.991  0.1464 -0.4239 -0.4336
16840TIP3    H271936   4.680   3.803   0.927 -0.5105 -1.6874 -0.8519
16841TIP3   OH271937   3.315   4.808   4.379  0.3931 -0.8215  0.0611
16841TIP3    H171938   3.266   4.887   4.360  0.6017 -0.9014 -0.8289
16841TIP3    H271939   3.339   4.773   4.293  0.2920 -1.8515  0.4416
16842TIP3   OH271940   3.101   4.400   3.416  0.0108 -0.2060 -0.7998
16842TIP3    H171941   3.184   4.446   3.401  0.9817 -1.0788  1.7314
16842TIP3    H271942   3.123   4.329   3.475 -2.2209 -1.6048 -1.5966
16843TIP3   OH271943   3.010   4.930  16.016  0.2083  0.4773 -0.0202
16843TIP3    H171944   2.972   4.938  16.103 -2.4363 -0.7695 -1.0019
16843TIP3    H271945   2.941   4.888  15.964  1.6035  1.5231 -2.7816
16844TIP3   OH271946   1.039   3.341   0.594 -0.3575  0.3841  0.1162
16844TIP3    H171947   1.007   3.407   0.656  0.3420  0.6393  0.2104
16844TIP3    H271948   1.059   3.266   0.649 -1.2211  0.0598  0.0001
16845TIP3   OH271949   0.623   1.920  17.152  0.0090 -0.6148  0.0076
16845TIP3    H171950   0.585   1.973  17.082 -1.6378 -0.6692  0.8094
16845TIP3    H271951   0.681   1.980  17.199 -0.2299 -0.0903 -0.3594
16846TIP3   OH271952   0.741   3.552  15.038 -0.1308  0.0313  0.1148
16846TIP3    H171953   0.721   3.615  15.107  0.8393 -0.5015  0.8840
16846TIP3    H271954   0.675   3.484  15.047  0.8198 -0.7293  1.3934
16847TIP3   OH271955   5.504   1.396   3.168 -0.0363  0.3334  0.0115
16847TIP3    H171956   5.463   1.434   3.091 -2.5699 -1.3573  0.4786
16847TIP3    H271957   5.557   1.324   3.135  0.3209  0.7536 -0.3268
16848TIP3   OH271958   1.846   6.741   1.548 -0.2960  0.6325  0.5436
16848TIP3    H171959   1.866   6.654   1.583  0.6724  0.8375  0.5289
16848TIP3    H271960   1.752   6.753   1.562 -0.3167 -0.1787  1.0735
16849TIP3   OH271961   2.145   4.266   6.398  0.1924  0.1633  0.0415
16849TIP3    H171962   2.210   4.294   6.462 -1.7545 -1.9996  3.0712
16849TIP3    H271963   2.110   4.347   6.363  3.3967  1.3695 -0.5442
16850TIP3   OH271964   2.091   2.483  16.863 -0.7903  0.2977  0.2721
16850TIP3    H171965   2.044   2.473  16.780 -1.7976  2.7685  0.5135
16850TIP3    H271966   2.157   2.414  16.861 -0.2995  0.7904 -2.9058
16851TIP3   OH271967   3.043   5.108   6.836  0.5188 -0.0883 -0.5673
16851TIP3    H171968   3.017   5.200   6.842 -1.4999 -0.6553 -0.2981
16851TIP3    H271969   3.136   5.108   6.857  0.2718  1.7510  0.6588
16852TIP3   OH271970   0.519   0.032  13.763 -0.3442 -0.2194 -0.8804
16852TIP3    H171971   0.467   0.105  13.729  1.9965  0.6177 -2.8309
16852TIP3    H271972   0.575   0.072  13.829 -0.4462 -0.6248 -0.5521
16853TIP3   OH271973   2.207   2.833   0.550 -0.2918 -0.4050 -0.3401
16853TIP3    H171974   2.257   2.831   0.632  3.8242  3.0498 -2.4810
16853TIP3    H271975   2.177   2.924   0.543  2.0705  0.2171 -3.9634
16854TIP3   OH271976   5.339   3.053  13.416 -0.3237 -0.2148 -0.0865
16854TIP3    H171977   5.292   3.137  13.416  1.4023  0.8213 -2.4502
16854TIP3    H271978   5.374   3.046  13.505 -0.3820  1.6515  0.1138
16855TIP3   OH271979   5.512   3.242   5.196 -0.3932 -0.0520  0.3411
16855TIP3    H171980   5.571   3.169   5.212 -0.3260  0.0646  0.6325
16855TIP3    H271981   5.424   3.205   5.204 -0.3605 -0.2526 -0.2180
16856TIP3   OH271982   0.316   1.789  16.200 -0.1830  0.3951  0.3611
16856TIP3    H171983   0.225   1.808  16.179 -0.9207 -1.0111  2.1494
16856TIP3    H271984   0.349   1.742  16.123 -0.9187  1.0323 -0.3498
16857TIP3   OH271985   3.857   0.756  14.374 -0.6276  0.7342  0.3866
16857TIP3    H171986   3.913   0.679  14.364  0.4297  1.7458 -1.9107
16857TIP3    H271987   3.773   0.720  14.404  0.3008 -1.1361  0.8464
16858TIP3   OH271988   1.390   0.871   4.878  0.3813  0.2645  0.4195
16858TIP3    H171989   1.305   0.829   4.889  0.0323  1.2275  1.4321
16858TIP3    H271990   1.440   0.848   4.956  1.7557 -1.8683 -1.0173
16859TIP3   OH271991   1.547   2.489   0.631  0.2274 -0.3549 -0.0454
16859TIP3    H171992   1.478   2.427   0.607 -0.1399 -0.0073  0.1053
16859TIP3    H271993   1.612   2.436   0.677  0.7211 -0.9434 -1.4063
16860TIP3   OH271994   2.511   5.912   2.459  0.0257 -0.2545  0.1001
16860TIP3    H171995   2.523   5.850   2.387  1.2492 -0.8887  0.8257
16860TIP3    H271996   2.586   5.971   2.453 -0.7770  0.7365 -0.1723
16861TIP3   OH271997   2.655   5.022   4.334  0.5832  0.4911 -0.5988
16861TIP3    H171998   2.600   4.958   4.289  0.3008 -1.0367  1.8629
16861TIP3    H271999   2.723   4.970   4.376 -1.0591  1.5020  3.4952
16862TIP3   OH272000   2.002   1.599  14.236 -0.2704  0.1375 -0.3393
16862TIP3    H172001   1.999   1.504  14.230 -1.4285  0.1496 -0.0511
16862TIP3    H272002   2.076   1.625  14.182 -2.0195 -0.6945 -3.2061
16863TIP3   OH272003   1.082   5.743   0.327  0.2241 -0.0667 -0.0455
16863TIP3    H172004   0.989   5.741   0.308 -0.0634  1.7689  1.1015
16863TIP3    H272005   1.090   5.797   0.406  2.3007  0.2361 -0.4294
16864TIP3   OH272006   5.607   1.867  12.361 -0.1795  0.2459 -0.1150
16864TIP3    H172007   5.691   1.829  12.383  0.0907  1.2121  0.5669
16864TIP3    H272008   5.551   1.793  12.338  0.8506 -0.3942 -0.5452
16865TIP3   OH272009   6.648   6.374   0.954  0.2426  0.1869  0.6611
16865TIP3    H172010   6.568   6.419   0.982  1.3524  1.9967  0.9520
16865TIP3    H272011   6.625   6.281   0.960 -1.6998  0.6640  1.1690
16866TIP3   OH272012   4.834   0.718  14.364  0.2026  0.5133  0.6949
16866TIP3    H172013   4.796   0.781  14.302  0.6011  0.2250  0.1495
16866TIP3    H272014   4.836   0.765  14.447 -0.5675  0.8232  0.5477
16867TIP3   OH272015   0.940   3.799  14.254 -0.4078 -0.3952  0.0385
16867TIP3    H172016   0.933   3.868  14.320  2.3893  0.3998 -0.4169
16867TIP3    H272017   0.927   3.717  14.302 -0.4905  0.2961  1.1893
16868TIP3   OH272018   1.269   5.472   5.509 -0.4484 -0.2090  0.2089
16868TIP3    H172019   1.300   5.555   5.545 -0.1884 -0.7212  1.1708
16868TIP3    H272020   1.254   5.417   5.586  2.6327 -2.2072 -0.5493
16869TIP3   OH272021   1.555   0.255   2.792  0.9996  0.3785 -0.4719
16869TIP3    H172022   1.461   0.272   2.798  0.7268 -1.7820  1.6741
16869TIP3    H272023   1.579   0.290   2.706 -2.3277 -1.6407 -2.3467
16870TIP3   OH272024   5.252   2.158  13.595  0.1430 -0.8285  0.2347
16870TIP3    H172025   5.214   2.197  13.516  0.2976  0.7454  0.9155
16870TIP3    H272026   5.295   2.231  13.639 -0.7870 -1.4897  2.2732
16871TIP3   OH272027   3.041   5.675   0.910 -0.3823 -0.2900  0.3498
16871TIP3    H172028   3.108   5.689   0.977 -0.0239  0.3218 -0.1333
16871TIP3    H272029   2.958   5.697   0.953 -0.4599 -2.5923  1.4415
16872TIP3   OH272030   1.667   5.566  14.155 -0.4329 -0.4359  0.2168
16872TIP3    H172031   1.601   5.522  14.209 -3.7667  2.6304 -1.1024
16872TIP3    H272032   1.652   5.660  14.172  2.4150  0.3798 -1.5308
16873TIP3   OH272033   4.230   2.579  17.156  0.8990  0.7784 -0.2389
16873TIP3    H172034   4.202   2.668  17.137  1.0651  0.8517 -0.1442
16873TIP3    H272035   4.311   2.590  17.207  1.3390  0.5715 -0.8824
16874TIP3   OH272036   1.853   3.827   0.033  0.3299  0.0615 -0.1411
16874TIP3    H172037   1.775   3.883   0.040 -0.4087 -1.2489  3.0501
16874TIP3    H272038   1.824   3.751  -0.017  0.0438  0.3762 -0.4535
16875TIP3   OH272039   6.319   6.513  16.649  0.1480  0.6292 -0.0566
16875TIP3    H172040   6.321   6.418  16.647  0.7091  0.6201  0.9022
16875TIP3    H272041   6.411   6.540  16.643  0.2438  1.0291  2.6347
16876TIP3   OH272042   3.777   0.408  10.659 -0.7454 -0.0127  0.4857
16876TIP3    H172043   3.773   0.416  10.563  0.6202  2.0216  0.5691
16876TIP3    H272044   3.697   0.449  10.690 -0.8237  0.0266  0.2309
16877TIP3   OH272045   0.635   6.468   6.008  0.1140 -0.1407 -0.4117
16877TIP3    H172046   0.698   6.529   6.047  1.7854 -0.7231 -2.1140
16877TIP3    H272047   0.550   6.501   6.035  0.9612  3.1364 -1.5149
16878TIP3   OH272048   1.535   4.205   1.711 -0.9380  0.8386  0.0489
16878TIP3    H172049   1.533   4.113   1.738  1.9202  0.7115 -0.0124
16878TIP3    H272050   1.469   4.247   1.766 -1.6747 -1.0934  0.6916
16879TIP3   OH272051   4.522   0.504   0.114  0.1606 -0.2062 -0.0109
16879TIP3    H172052   4.605   0.465   0.087 -0.5255 -1.1579 -0.7664
16879TIP3    H272053   4.462   0.486   0.042 -1.3508 -1.6669  1.5669
16880TIP3   OH272054   2.078   4.902   6.044 -0.2428 -0.2250  0.4603
16880TIP3    H172055   1.993   4.905   6.087  0.3505  0.2950  1.6298
16880TIP3    H272056   2.069   4.835   5.976 -2.8564  2.7623 -2.2320
16881TIP3   OH272057   0.634   3.518  13.461 -0.0566  0.7606 -0.1130
16881TIP3    H172058   0.571   3.514  13.389 -0.5203 -0.7795  0.3526
16881TIP3    H272059   0.665   3.608  13.462 -1.5880  1.3021 -0.9258
16882TIP3   OH272060   0.164   5.489  15.981 -0.0448 -0.0904 -0.3670
16882TIP3    H172061   0.109   5.503  15.904 -0.8609 -0.4167  0.1542
16882TIP3    H272062   0.107   5.509  16.055  0.4143 -0.8623  0.1972
16883TIP3   OH272063   4.226   4.315  15.283 -0.0639  0.4900  0.1707
16883TIP3    H172064   4.213   4.242  15.224  0.8629  0.5692 -0.1399
16883TIP3    H272065   4.193   4.284  15.367 -0.1621 -0.0939 -0.0806
16884TIP3   OH272066   6.074   3.903  14.275 -0.3125  0.0613  0.4458
16884TIP3    H172067   6.084   3.993  14.245  0.8023  0.2716  1.4001
16884TIP3    H272068   6.163   3.875  14.297 -0.9962 -0.2624  2.9639
16885TIP3   OH272069   4.436   1.089  14.753 -0.4870 -0.2620 -0.3110
16885TIP3    H172070   4.481   1.169  14.779  1.4675 -1.6361  0.6234
16885TIP3    H272071   4.441   1.090  14.657  3.3566 -1.3486 -0.1976
16886TIP3   OH272072   3.372   3.027   0.530  0.1406 -0.2470 -0.1048
16886TIP3    H172073   3.363   2.993   0.441  0.0110  0.5546 -0.3997
16886TIP3    H272074   3.370   3.122   0.520  2.2045 -0.1009  0.5118
16887TIP3   OH272075   5.023   0.467  13.668  0.5351  0.1850 -0.5308
16887TIP3    H172076   4.933   0.433  13.671  1.0282 -1.1362 -0.5294
16887TIP3    H272077   5.016   0.548  13.618 -0.6050 -0.0982 -0.8441
16888TIP3   OH272078   3.147   0.896  16.522  0.4936 -0.1809 -0.0455
16888TIP3    H172079   3.231   0.892  16.477 -0.0082 -0.0825 -1.0264
16888TIP3    H272080   3.162   0.854  16.607  0.8898 -2.5523 -1.2428
16889TIP3   OH272081   1.780   2.260  15.109 -0.3527  0.2247  0.4631
16889TIP3    H172082   1.789   2.293  15.020 -0.1073  0.8576  0.7196
16889TIP3    H272083   1.716   2.319  15.150  1.4477  1.5236  1.4763
16890TIP3   OH272084   4.819   2.291  13.546  0.2263  0.2526  0.2544
16890TIP3    H172085   4.806   2.241  13.466 -0.9240 -1.7239  1.6235
16890TIP3    H272086   4.753   2.360  13.543 -0.5694 -0.5065  0.0038
16891TIP3   OH272087   4.499   3.746  10.829  0.4743  0.1307  0.3732
16891TIP3    H172088   4.454   3.827  10.804  3.5500  2.1897  1.0902
16891TIP3    H272089   4.452   3.715  10.907  0.4034  2.3266  1.2502
16892TIP3   OH272090   5.558   0.403   2.005  0.3771  0.3163  0.3879
16892TIP3    H172091   5.646   0.419   2.039  1.1425  2.8794 -2.5835
16892TIP3    H272092   5.571   0.336   1.937 -0.3003 -0.7696  1.3145
16893TIP3   OH272093   4.712   1.425  11.270  0.0921  0.5217  0.2718
16893TIP3    H172094   4.710   1.357  11.202 -0.5628  1.0701 -0.2785
16893TIP3    H272095   4.777   1.395  11.333  0.3106 -0.2719 -0.3230
16894TIP3   OH272096   5.683   6.410  15.190  0.0002 -0.2515 -0.0969
16894TIP3    H172097   5.663   6.396  15.283  0.4155  0.0970  0.0457
16894TIP3    H272098   5.690   6.505  15.181  1.8300 -0.3696 -0.0972
16895TIP3   OH272099   2.216   6.444   4.887  0.0359 -0.4014 -0.1079
16895TIP3    H172100   2.237   6.488   4.970 -0.1994 -0.0689 -0.2267
16895TIP3    H272101   2.170   6.364   4.914 -0.6972  0.0674  0.0619
16896TIP3   OH272102   2.418   3.944  14.393  0.3628 -0.5663  0.2898
16896TIP3    H172103   2.510   3.935  14.420  0.3371  0.2263  0.6731
16896TIP3    H272104   2.410   4.036  14.368 -0.5965 -0.3805  1.2501
16897TIP3   OH272105   2.440   3.979  14.836  0.3276  0.0350 -0.2917
16897TIP3    H172106   2.381   3.999  14.763  0.9767 -1.1388 -1.1523
16897TIP3    H272107   2.515   3.935  14.795  0.4541 -1.1291  1.1443
16898TIP3   OH272108   1.993   0.384  15.947 -0.6228 -0.6857 -0.3481
16898TIP3    H172109   1.935   0.383  16.024 -2.6522 -0.0556 -1.8027
16898TIP3    H272110   1.974   0.468  15.905  2.1993  0.0260 -0.2864
16899TIP3   OH272111   3.937   5.774  15.831  0.1390  0.0981  0.0147
16899TIP3    H172112   3.993   5.709  15.788 -0.1923  0.0498 -0.3436
16899TIP3    H272113   3.881   5.722  15.889  1.4005  0.2651  1.4215
16900TIP3   OH272114   3.963   4.520  15.798  0.5967  0.1114  0.5495
16900TIP3    H172115   3.987   4.517  15.706 -2.1678 -0.5207 -0.2008
16900TIP3    H272116   3.944   4.613  15.814 -1.0480 -0.0951 -0.1201
16901TIP3   OH272117   6.292   2.653   3.984  0.5280 -0.5147 -0.3585
16901TIP3    H172118   6.239   2.693   4.053  1.3790 -1.1452  0.6727
16901TIP3    H272119   6.360   2.604   4.031  1.5650 -0.3450 -1.6461
16902TIP3   OH272120   6.291   2.420  12.997 -0.0743 -0.4792  0.1932
16902TIP3    H172121   6.233   2.375  12.936  0.8534 -1.0282 -0.3056
16902TIP3    H272122   6.371   2.436  12.947  1.1239 -1.9191  1.5678
16903TIP3   OH272123   4.882   5.698  16.722  0.1808 -0.4800  0.2003
16903TIP3    H172124   4.804   5.651  16.692 -0.2404 -0.0897  0.6656
16903TIP3    H272125   4.955   5.655  16.678 -0.1974 -1.5547  0.6032
16904TIP3   OH272126   5.773   0.350   0.198  0.1177 -0.0797 -0.8903
16904TIP3    H172127   5.728   0.432   0.216  0.3896  0.2717 -1.8042
16904TIP3    H272128   5.856   0.376   0.158  0.0383 -0.8090 -1.5427
16905TIP3   OH272129   4.909   0.900  11.608  0.6629 -0.3966  0.0823
16905TIP3    H172130   5.004   0.894  11.620  0.6908 -1.4850 -0.5830
16905TIP3    H272131   4.877   0.941  11.688  1.9079  1.8699 -0.5317
16906TIP3   OH272132   5.376   5.425  11.690 -0.7679 -0.2110 -0.2564
16906TIP3    H172133   5.285   5.449  11.672 -0.7224  0.5289  0.4596
16906TIP3    H272134   5.428   5.475  11.628 -0.8317 -0.4614 -0.5144
16907TIP3   OH272135   1.249   5.522  16.498 -0.1381  0.0922  0.4257
16907TIP3    H172136   1.175   5.499  16.554 -0.1008 -0.4765  0.2577
16907TIP3    H272137   1.326   5.507  16.552 -0.1581  0.8985  0.6743
16908TIP3   OH272138   0.067   4.782   1.384  0.2222 -0.2001 -0.2532
16908TIP3    H172139   0.082   4.755   1.293 -1.6700  1.8079 -1.2062
16908TIP3    H272140   0.155   4.799   1.418  0.9806 -1.2441 -1.6103
16909TIP3   OH272141   3.431   3.112   2.651  0.0333 -0.6478 -0.1754
16909TIP3    H172142   3.498   3.124   2.719  0.3584 -0.7685 -0.4755
16909TIP3    H272143   3.461   3.037   2.600 -0.1640 -0.5000 -0.5120
16910TIP3   OH272144   6.414   4.781   1.558  0.2221  0.1000  0.2626
16910TIP3    H172145   6.397   4.874   1.544  0.2951 -0.0830 -1.1229
16910TIP3    H272146   6.508   4.775   1.570  0.1048  0.3174  1.3157
16911TIP3   OH272147   3.060   2.528   1.012 -0.2372 -0.4635  0.1501
16911TIP3    H172148   3.048   2.566   0.924  0.2823 -0.1963  0.1903
16911TIP3    H272149   3.114   2.593   1.058 -0.3947 -0.6716  0.6207
16912TIP3   OH272150   2.890   4.065   4.819  0.2091  0.6032 -0.1442
16912TIP3    H172151   2.960   4.034   4.761  1.5031  0.8389  1.2509
16912TIP3    H272152   2.865   4.151   4.784 -0.3484 -0.0749 -1.4469
16913TIP3   OH272153   2.857   0.534  16.315 -0.0602  0.0945 -0.3583
16913TIP3    H172154   2.875   0.440  16.310  2.1941  0.4622  0.3161
16913TIP3    H272155   2.943   0.574  16.322 -1.0620  2.1666  0.3034
16914TIP3   OH272156   0.340   0.930  16.040  0.4416  0.9285  0.1809
16914TIP3    H172157   0.368   0.980  16.117 -1.9364  1.4502  0.7440
16914TIP3    H272158   0.253   0.897  16.063  0.8148 -1.1819 -1.2553
16915TIP3   OH272159   3.605   2.557   4.290 -0.1850 -0.1032 -0.3443
16915TIP3    H172160   3.669   2.537   4.358  0.7010 -0.1624 -1.1830
16915TIP3    H272161   3.536   2.605   4.335  0.8907  0.7578  0.3915
16916TIP3   OH272162   4.999   4.868  14.673  0.0673 -0.6465 -0.3097
16916TIP3    H172163   4.984   4.791  14.618 -0.4951 -0.1350 -0.9001
16916TIP3    H272164   5.015   4.939  14.610 -0.1444 -0.1398  0.2002
16917TIP3   OH272165   6.540   5.231   5.094 -0.3864  0.0532  0.3119
16917TIP3    H172166   6.578   5.201   5.012 -1.8318  1.1493 -0.7782
16917TIP3    H272167   6.561   5.325   5.098  1.7269 -0.4581  2.3563
16918TIP3   OH272168   4.397   1.044  13.951 -0.0109  0.1421  0.0547
16918TIP3    H172169   4.373   0.959  13.988  0.1265 -0.7412 -1.8326
16918TIP3    H272170   4.491   1.038  13.934  0.1315  0.9206  0.4911
16919TIP3   OH272171   1.502   0.068  17.124 -0.2111  0.0602 -0.0108
16919TIP3    H172172   1.433   0.073  17.190  0.7357 -0.3817  1.0235
16919TIP3    H272173   1.538   0.157  17.120 -1.8155  0.6570 -1.6272
16920TIP3   OH272174   4.031   0.993  10.940  0.1218  0.2267 -0.4831
16920TIP3    H172175   4.042   0.990  10.845 -0.4016  1.3509 -0.5836
16920TIP3    H272176   3.953   0.940  10.957  1.2784 -1.5528 -0.4749
16921TIP3   OH272177   2.257   6.223  14.208 -0.2317 -0.4961  0.3937
16921TIP3    H172178   2.228   6.175  14.285 -0.0541  0.4466  1.0578
16921TIP3    H272179   2.314   6.292  14.243 -1.9666  1.3622 -0.3677
16922TIP3   OH272180   6.056   3.949  16.652 -0.6682 -0.1164 -0.3989
16922TIP3    H172181   6.083   4.019  16.711 -2.3094  0.3416 -0.1535
16922TIP3    H272182   6.136   3.925  16.605  0.9019 -1.1575  2.6646
16923TIP3   OH272183   4.781   2.199   4.787 -0.2899 -0.1882  0.3301
16923TIP3    H172184   4.806   2.122   4.839  1.0621  0.8575  1.2557
16923TIP3    H272185   4.831   2.191   4.706 -0.5249 -0.5365  0.2187
16924TIP3   OH272186   1.039   6.627   0.021 -0.6097 -0.4695  0.1578
16924TIP3    H172187   0.970   6.693   0.017 -2.1058 -1.9850  0.2253
16924TIP3    H272188   1.063   6.622   0.114 -0.2378  0.2192  0.1018
16925TIP3   OH272189   5.004   3.472   2.843  0.4358 -0.1399  0.4577
16925TIP3    H172190   5.084   3.447   2.797 -0.1612 -1.1770 -0.0183
16925TIP3    H272191   4.961   3.534   2.784 -0.6431 -1.9435 -0.7014
16926TIP3   OH272192   4.962   2.586  11.884 -0.3792 -0.0724 -0.4045
16926TIP3    H172193   4.928   2.654  11.943 -1.3151  1.1105 -2.2717
16926TIP3    H272194   5.034   2.547  11.933 -2.3652 -0.4597  2.3391
16927TIP3   OH272195   2.116   5.506   5.918 -0.3118 -0.5151  0.8948
16927TIP3    H172196   2.197   5.507   5.968 -0.4138 -1.2293  1.0754
16927TIP3    H272197   2.087   5.415   5.920  0.1493 -0.7406 -1.2090
16928TIP3   OH272198   5.284   3.468  14.794 -0.2179  0.2784  0.1318
16928TIP3    H172199   5.201   3.479  14.840 -1.7917 -0.6441 -2.3679
16928TIP3    H272200   5.269   3.394  14.735  1.6103  1.6251 -2.1032
16929TIP3   OH272201   5.853   4.980   6.123  0.5800  0.1783 -0.8473
16929TIP3    H172202   5.813   4.896   6.103  1.5628 -0.0968 -1.6729
16929TIP3    H272203   5.879   4.974   6.215 -0.5057  0.0591 -0.5410
16930TIP3   OH272204   1.466   5.915  16.731 -0.0964 -0.1119 -0.4186
16930TIP3    H172205   1.430   5.878  16.650  0.4928  0.8451 -1.1261
16930TIP3    H272206   1.488   6.005  16.709  0.4725  0.0310  0.6928
16931TIP3   OH272207   1.584   2.512   2.443  0.1315 -0.0022  0.1809
16931TIP3    H172208   1.568   2.472   2.357 -4.1769 -1.6206  1.6208
16931TIP3    H272209   1.575   2.606   2.428  0.5086 -0.1869 -1.3127
16932TIP3   OH272210   6.660   0.650  12.380  0.0912 -0.1893 -0.2085
16932TIP3    H172211   6.567   0.671  12.387 -0.0444 -0.8597  0.0984
16932TIP3    H272212   6.691   0.698  12.304 -0.8249 -1.0687 -1.1464
16933TIP3   OH272213   0.737   5.208   1.649  0.2659 -0.0160  0.0669
16933TIP3    H172214   0.755   5.179   1.560  1.4500 -2.0128  0.9281
16933TIP3    H272215   0.738   5.304   1.644  0.3811 -0.1150 -2.0347
16934TIP3   OH272216   4.419   1.518   1.369  0.2790  0.5747  0.3871
16934TIP3    H172217   4.496   1.476   1.408  0.9968  0.6298 -0.9458
16934TIP3    H272218   4.449   1.547   1.283 -0.7697  2.0645  0.5124
16935TIP3   OH272219   3.397   5.145  17.017  0.1994 -0.0356  0.7385
16935TIP3    H172220   3.424   5.135  16.926 -0.3285 -0.2662  0.6075
16935TIP3    H272221   3.468   5.105  17.068  0.9671  0.9825  0.4762
16936TIP3   OH272222   1.907   4.818   2.692 -0.4405 -0.1658 -0.2449
16936TIP3    H172223   1.840   4.822   2.760  0.8065 -1.7023  1.0942
16936TIP3    H272224   1.985   4.854   2.732  0.1790 -0.6443 -1.0023
16937TIP3   OH272225   4.662   1.842  12.018  0.5855  0.0053  0.0673
16937TIP3    H172226   4.732   1.875  11.961  1.4380  0.1422  1.1598
16937TIP3    H272227   4.707   1.821  12.100 -0.3078 -1.8820  0.0937
16938TIP3   OH272228   3.496   6.747   4.695 -0.1431  0.3036  0.1704
16938TIP3    H172229   3.466   6.823   4.744 -0.5869  0.1449  0.1516
16938TIP3    H272230   3.584   6.730   4.727  1.1819  2.7149 -2.0272
16939TIP3   OH272231   0.835   5.059  11.786 -0.0032 -0.1660 -0.1438
16939TIP3    H172232   0.809   5.075  11.696  0.5682 -0.1933 -0.3137
16939TIP3    H272233   0.930   5.052  11.783  0.1136  1.0179  0.6437
16940TIP3   OH272234   2.504   6.617   2.968  0.0156 -0.0912 -0.4571
16940TIP3    H172235   2.493   6.621   2.873  1.9373  2.0108 -0.6463
16940TIP3    H272236   2.526   6.526   2.986 -1.3196 -0.7185 -1.9133
16941TIP3   OH272237   4.226   4.977   4.221 -0.1827  0.0649 -0.0311
16941TIP3    H172238   4.300   4.940   4.269 -0.4543 -0.9756 -0.4078
16941TIP3    H272239   4.153   4.918   4.239 -1.4691  2.2359  2.0135
16942TIP3   OH272240   6.732   2.146   2.587 -0.7098  0.5596  0.2051
16942TIP3    H172241   6.767   2.232   2.609 -3.8526  1.5363  1.6625
16942TIP3    H272242   6.756   2.091   2.661 -0.0533  0.5554 -0.0044
16943TIP3   OH272243   0.935   4.794  13.559  0.4560  0.2234 -0.3954
16943TIP3    H172244   0.948   4.707  13.595  1.1802 -0.8453 -3.1623
16943TIP3    H272245   0.844   4.795  13.530  0.1540  0.7549  0.5442
16944TIP3   OH272246   2.904   3.746  17.171  0.3662 -0.5351 -0.3380
16944TIP3    H172247   2.834   3.724  17.110  0.5757  1.5726 -1.3772
16944TIP3    H272248   2.894   3.840  17.187  1.1752 -0.7712  1.7937
16945TIP3   OH272249   3.070   4.591  14.093 -0.3542 -0.0983  0.1321
16945TIP3    H172250   3.147   4.567  14.041 -0.5121 -1.0716  0.3367
16945TIP3    H272251   3.037   4.671  14.051  1.3804  0.9358  0.6984
16946TIP3   OH272252   3.444   1.659  12.453 -0.2389  0.3220 -0.5562
16946TIP3    H172253   3.445   1.711  12.372 -0.5995  1.3890  0.1189
16946TIP3    H272254   3.380   1.590  12.436 -2.0434  1.9008 -0.3512
16947TIP3   OH272255   6.676   6.074   0.733 -0.4354 -0.0343  0.1683
16947TIP3    H172256   6.686   5.993   0.783 -0.3079  0.1402  0.4251
16947TIP3    H272257   6.627   6.133   0.790  1.8657  1.0447  1.1197
16948TIP3   OH272258   2.727   5.332   5.639 -0.2589  0.1069 -0.1214
16948TIP3    H172259   2.761   5.385   5.711  1.2663 -0.3996 -0.4542
16948TIP3    H272260   2.800   5.276   5.614 -0.6181  0.5859 -2.3507
16949TIP3   OH272261   5.147   4.089   4.979  0.2096  0.5053 -0.1386
16949TIP3    H172262   5.139   4.046   5.064  2.0086 -0.7186 -0.5682
16949TIP3    H272263   5.128   4.021   4.915 -0.4976  1.2624 -0.7522
16950TIP3   OH272264   5.264   1.054  12.080 -0.0917  0.1212  0.2567
16950TIP3    H172265   5.257   1.087  12.169  1.0147  1.5699 -0.1803
16950TIP3    H272266   5.357   1.060  12.059 -0.2458 -0.8747 -0.7467
16951TIP3   OH272267   0.481   2.126  12.207  0.1684 -0.7002  0.9436
16951TIP3    H172268   0.529   2.168  12.135 -2.0369 -0.8707 -0.6555
16951TIP3    H272269   0.499   2.032  12.196 -0.9962 -0.8236 -0.0435
16952TIP3   OH272270   2.203   4.610   2.773  0.3256  0.0445  0.1672
16952TIP3    H172271   2.183   4.517   2.760  1.3493 -0.4876  2.1530
16952TIP3    H272272   2.134   4.641   2.833  0.6428  0.2801  0.4093
16953TIP3   OH272273   3.000   2.514  13.599  0.0512  0.1208 -0.5902
16953TIP3    H172274   2.986   2.476  13.512 -0.2654 -1.6527  0.2128
16953TIP3    H272275   2.960   2.451  13.659  1.0538  0.8920  0.9066
16954TIP3   OH272276   2.013   1.755  13.174 -0.4276 -0.5255 -0.1045
16954TIP3    H172277   2.007   1.797  13.260  2.3244  0.1536 -0.1686
16954TIP3    H272278   2.093   1.702  13.179 -0.1588 -0.3749 -2.2913
16955TIP3   OH272279   3.239   1.738  11.261  0.1453 -0.0442 -0.0561
16955TIP3    H172280   3.317   1.784  11.230  0.4086 -2.0034 -2.4357
16955TIP3    H272281   3.273   1.670  11.319  0.2502 -0.9403 -1.1445
16956TIP3   OH272282   3.996   4.449   0.148  1.1365 -0.4761 -0.1676
16956TIP3    H172283   3.999   4.540   0.177  1.9953 -0.7112  0.4855
16956TIP3    H272284   3.939   4.406   0.212 -1.8612  0.2083 -2.2216
16957TIP3   OH272285   4.519   2.388  12.630  0.2842 -0.6953  0.0024
16957TIP3    H172286   4.433   2.399  12.671 -0.3955 -1.5521 -1.1722
16957TIP3    H272287   4.577   2.446  12.680 -1.1800  0.6821  0.1439
16958TIP3   OH272288   2.179   6.159   5.468  0.2725 -0.1913 -0.1480
16958TIP3    H172289   2.247   6.092   5.464 -0.0704 -0.5678  0.3679
16958TIP3    H272290   2.160   6.169   5.561 -2.0068 -1.7433 -0.4147
16959TIP3   OH272291   6.282   0.675   5.925 -0.0324  0.2513 -0.0748
16959TIP3    H172292   6.187   0.674   5.915 -0.2318 -0.0594  1.6821
16959TIP3    H272293   6.300   0.606   5.989  0.9208  3.2262  3.0149
16960TIP3   OH272294   2.188   1.435  16.063  0.3984 -0.1337  0.2265
16960TIP3    H172295   2.096   1.421  16.085  0.2779 -1.0717 -0.8484
16960TIP3    H272296   2.236   1.398  16.138 -0.0538 -1.4791 -0.1370
16961TIP3   OH272297   5.618   1.286  16.317  0.4197 -0.6710 -0.0260
16961TIP3    H172298   5.527   1.312  16.304  0.0432 -1.9436 -0.0436
16961TIP3    H272299   5.612   1.203  16.364  1.6254  0.3856  2.0428
16962TIP3   OH272300   4.679   3.069  16.835 -0.4736  0.5018  0.0835
16962TIP3    H172301   4.584   3.073  16.822 -0.2348  0.3282 -1.8532
16962TIP3    H272302   4.703   2.982  16.804 -0.0327 -0.4896  3.1079
16963TIP3   OH272303   3.126   3.521   0.729 -0.2009 -0.1229 -1.1050
16963TIP3    H172304   3.151   3.559   0.645  1.3458  0.6590 -0.3143
16963TIP3    H272305   3.173   3.438   0.733  0.5420  0.3181 -0.5748
16964TIP3   OH272306   6.432   4.700   5.313  0.2198  0.1408  0.2729
16964TIP3    H172307   6.392   4.667   5.233  2.1270  0.5384 -0.8899
16964TIP3    H272308   6.486   4.774   5.284  0.8389  0.3807  1.9461
16965TIP3   OH272309   6.310   0.254   4.252 -0.3478 -0.0529  0.0752
16965TIP3    H172310   6.361   0.252   4.333  0.4551  0.1557 -0.4200
16965TIP3    H272311   6.247   0.183   4.261  0.7331 -1.0078  0.2471
16966TIP3   OH272312   0.712   4.416  15.734 -0.7128 -0.0207  0.3679
16966TIP3    H172313   0.684   4.342  15.788 -0.5183 -0.2896  0.1043
16966TIP3    H272314   0.634   4.471  15.724 -1.0293 -0.5340  0.0045
16967TIP3   OH272315   1.641   1.173   0.277 -0.1687  0.1147 -0.2029
16967TIP3    H172316   1.676   1.106   0.335 -1.3364 -2.0360 -1.9114
16967TIP3    H272317   1.710   1.188   0.212 -0.7155 -0.9816 -1.0477
16968TIP3   OH272318   0.922   2.220  12.516  0.1695  0.1480 -0.1679
16968TIP3    H172319   0.857   2.277  12.556 -1.4246 -0.6790 -1.4965
16968TIP3    H272320   0.974   2.187  12.589 -0.1973  1.6723  0.8020
16969TIP3   OH272321   3.483   0.333   0.467 -0.2897 -0.4755 -0.2652
16969TIP3    H172322   3.545   0.269   0.431 -0.3923 -0.5141 -0.3731
16969TIP3    H272323   3.533   0.378   0.536 -0.8933 -2.2048  1.3636
16970TIP3   OH272324   0.710   0.428   0.142 -0.5640  0.0327 -0.0574
16970TIP3    H172325   0.676   0.517   0.130 -0.3963  0.2164  0.7991
16970TIP3    H272326   0.698   0.410   0.236 -1.5764 -1.2515 -0.4253
16971TIP3   OH272327   3.774   6.562   5.440 -0.0229  0.0335  0.3283
16971TIP3    H172328   3.834   6.581   5.512 -0.6222 -1.3334  1.2104
16971TIP3    H272329   3.687   6.571   5.479 -0.3592 -3.4890  0.5636
16972TIP3   OH272330   0.820   2.803  16.478  0.0582 -0.2146 -0.0714
16972TIP3    H172331   0.874   2.875  16.512  1.4063 -1.4717  0.5067
16972TIP3    H272332   0.739   2.809  16.529 -0.1840  1.3977 -0.6158
16973TIP3   OH272333   1.720   6.350  13.764 -1.3241  0.2919  0.6300
16973TIP3    H172334   1.811   6.361  13.790 -0.8205  0.3598 -1.0620
16973TIP3    H272335   1.689   6.440  13.747 -1.1231  0.1390 -0.6153
16974TIP3   OH272336   5.261   0.469   1.955 -0.1066 -0.1987  0.0278
16974TIP3    H172337   5.336   0.414   1.978  0.0155  0.3008  0.8409
16974TIP3    H272338   5.237   0.512   2.037  1.4375  2.9710 -1.0882
16975TIP3   OH272339   6.118   4.956  16.795  0.4333  0.1592 -0.2601
16975TIP3    H172340   6.161   4.895  16.856 -1.5554 -0.1998  0.8307
16975TIP3    H272341   6.084   5.026  16.851  0.4943  0.9739 -1.2328
16976TIP3   OH272342   5.032   6.293   4.459  0.7492 -0.0263  0.1452
16976TIP3    H172343   4.993   6.217   4.415  0.2130 -0.4627  1.3430
16976TIP3    H272344   4.960   6.331   4.509  0.9850  1.3700 -0.5545
16977TIP3   OH272345   2.652   1.125   5.542  0.3590 -0.3360  0.7544
16977TIP3    H172346   2.616   1.124   5.630 -3.2925 -0.6023 -0.6702
16977TIP3    H272347   2.665   1.218   5.522  0.0302 -0.2107  1.1151
16978TIP3   OH272348   5.991   2.753  15.953  0.3451 -0.0932 -0.1531
16978TIP3    H172349   5.940   2.761  16.034 -1.2010 -0.0451 -1.1304
16978TIP3    H272350   5.959   2.823  15.897  0.0059 -1.3890 -1.5859
16979TIP3   OH272351   3.967   3.291  10.669  0.3328 -0.4232  0.0576
16979TIP3    H172352   3.894   3.350  10.686  1.3285  0.9451 -0.3552
16979TIP3    H272353   4.003   3.321  10.585 -0.2823 -2.7703 -1.0998
16980TIP3   OH272354   5.663   0.457   5.892 -0.3163  0.3767  0.7720
16980TIP3    H172355   5.608   0.432   5.966 -2.5164  1.8659 -0.3078
16980TIP3    H272356   5.696   0.544   5.916 -0.1294  0.3832  0.4922
16981TIP3   OH272357   0.821   2.897  13.518 -0.3890  0.0391  0.0640
16981TIP3    H172358   0.862   2.946  13.446 -0.0605 -0.9407 -0.4265
16981TIP3    H272359   0.756   2.957  13.554 -0.5230  0.5630 -1.0213
16982TIP3   OH272360   4.029   5.876   2.497  0.2324  0.6832  0.0866
16982TIP3    H172361   3.983   5.952   2.464  0.0868  0.1896 -0.8544
16982TIP3    H272362   4.100   5.912   2.551 -1.5903  1.4262  2.0393
16983TIP3   OH272363   6.061   2.968  11.794 -0.1502 -0.4726 -0.2057
16983TIP3    H172364   5.982   2.922  11.821 -0.0244  0.4190  1.7149
16983TIP3    H272365   6.128   2.939  11.856  0.5253  0.4165 -0.5077
16984TIP3   OH272366   5.206   5.194   6.050  0.3762  0.1750 -0.1561
16984TIP3    H172367   5.134   5.157   5.998  1.5844  1.1310 -2.5600
16984TIP3    H272368   5.212   5.136   6.126 -1.8105 -0.9155 -0.7532
16985TIP3   OH272369   5.775   3.559   4.350  0.0285  0.5050  0.0607
16985TIP3    H172370   5.847   3.610   4.386 -1.0926  2.7239 -0.7727
16985TIP3    H272371   5.807   3.529   4.265  0.5496  0.0979  0.3934
16986TIP3   OH272372   2.734   1.666   1.886 -0.6016  0.2742 -0.7383
16986TIP3    H172373   2.729   1.670   1.982  2.5370 -0.6876 -0.4993
16986TIP3    H272374   2.761   1.754   1.860  1.5704 -0.2952 -0.4853
16987TIP3   OH272375   2.871   3.171  11.370 -0.2003  0.2964 -0.5120
16987TIP3    H172376   2.892   3.152  11.461 -1.1486 -0.6460 -0.4763
16987TIP3    H272377   2.948   3.215  11.336  0.5776 -0.2881  0.4675
16988TIP3   OH272378   0.691   4.305  11.915  0.7522 -0.4917 -0.0097
16988TIP3    H172379   0.736   4.384  11.884  1.8634 -1.5468 -1.1068
16988TIP3    H272380   0.761   4.242  11.930 -0.2395 -1.6585 -0.2865
16989TIP3   OH272381   0.352   6.685   6.661 -0.1872  0.8095  0.3533
16989TIP3    H172382   0.396   6.629   6.726 -0.7184  0.0536  0.0705
16989TIP3    H272383   0.348   6.771   6.703 -0.0720  0.4506  1.1209
16990TIP3   OH272384   3.898   5.482   2.413  0.0493  0.9691 -0.0735
16990TIP3    H172385   3.947   5.549   2.365  1.7540 -0.5557 -0.5472
16990TIP3    H272386   3.896   5.407   2.354 -1.4598  0.4544  0.6119
16991TIP3   OH272387   4.489   4.971   1.270 -0.3480 -0.3189  0.0231
16991TIP3    H172388   4.490   5.062   1.301 -0.1286 -0.1566 -0.4483
16991TIP3    H272389   4.565   4.931   1.312  0.2501  0.0381 -0.7059
16992TIP3   OH272390   2.601   6.267   0.465  0.3420  0.0664 -0.4014
16992TIP3    H172391   2.582   6.307   0.550 -0.3182  2.7194 -1.7569
16992TIP3    H272392   2.515   6.251   0.426  0.6560  0.0661 -1.1055
16993TIP3   OH272393   2.989   0.328  11.368  0.2130 -0.2290  0.2477
16993TIP3    H172394   2.894   0.322  11.360  0.0837  2.5606 -0.8466
16993TIP3    H272395   3.019   0.357  11.281  1.5191  3.9485  1.9622
16994TIP3   OH272396   3.968   0.256   4.025  0.6168  0.2134 -0.4039
16994TIP3    H172397   3.945   0.236   4.116 -0.0315 -0.2076 -0.6556
16994TIP3    H272398   3.936   0.181   3.975 -0.9359  1.4063 -1.2470
16995TIP3   OH272399   1.663   5.217   5.928 -0.2261  0.0463 -0.6151
16995TIP3    H172400   1.754   5.246   5.935 -0.2028 -0.1762  0.0235
16995TIP3    H272401   1.624   5.276   5.864  0.3414  0.2057 -0.8219
16996TIP3   OH272402   4.305   1.781  13.675  0.1438 -0.3007 -0.3151
16996TIP3    H172403   4.345   1.845  13.616 -1.7818 -0.5680 -1.9587
16996TIP3    H272404   4.293   1.829  13.757 -0.6785  1.2886 -1.3297
16997TIP3   OH272405   0.585   2.934  12.500 -0.5122 -0.1710 -0.4349
16997TIP3    H172406   0.511   2.895  12.546 -1.3742  1.6933 -0.1803
16997TIP3    H272407   0.629   2.988  12.567  1.2004 -1.4053 -0.5311
16998TIP3   OH272408   2.362   3.404  14.006  0.0138  0.1013 -0.6128
16998TIP3    H172409   2.306   3.481  14.015 -0.0844 -0.1024  0.5653
16998TIP3    H272410   2.327   3.341  14.069  1.2733 -0.2066 -0.2032
16999TIP3   OH272411   4.727   0.906  11.224 -0.0536 -0.7856  0.0681
16999TIP3    H172412   4.656   0.843  11.217  0.2183 -1.2799  1.4689
16999TIP3    H272413   4.792   0.863  11.279  0.1864  0.6541  0.9456
17000TIP3   OH272414   3.164   1.374   1.597  0.5515 -0.4562 -0.3309
17000TIP3    H172415   3.143   1.464   1.574 -1.3785 -1.0478 -0.9976
17000TIP3    H272416   3.079   1.332   1.609  1.4508 -1.8659  1.2578
17001TIP3   OH272417   4.709   4.992  16.906  0.1794 -0.2486 -0.1399
17001TIP3    H172418   4.793   5.038  16.902  0.3205 -0.5049 -0.1021
17001TIP3    H272419   4.730   4.908  16.947  0.1431 -0.8651 -1.3718
17002TIP3   OH272420   5.469   5.050   3.665  0.9809  0.3307  0.3191
17002TIP3    H172421   5.465   5.144   3.647 -0.1211  0.2129 -0.0728
17002TIP3    H272422   5.418   5.039   3.745  0.5963 -0.0263  0.0201
17003TIP3   OH272423   1.063   4.021  17.087  0.2542 -0.0811 -0.4077
17003TIP3    H172424   1.140   4.066  17.053  0.3053  0.7046  0.6981
17003TIP3    H272425   0.990   4.080  17.067 -0.0927 -0.9122 -1.6249
17004TIP3   OH272426   3.046   4.218  14.601 -0.0264  0.3253 -0.1094
17004TIP3    H172427   3.040   4.129  14.634 -2.7406 -0.0108 -1.3973
17004TIP3    H272428   3.104   4.213  14.526  0.1437 -0.2926  0.0679
17005TIP3   OH272429   6.238   5.767  14.221 -0.1897  0.3008 -0.0975
17005TIP3    H172430   6.185   5.820  14.280  1.1078 -0.7064  2.0489
17005TIP3    H272431   6.310   5.734  14.276  0.2905 -1.8094 -1.9035
17006TIP3   OH272432   0.957   4.259   5.722 -0.2405 -0.5948  0.1385
17006TIP3    H172433   0.947   4.304   5.638 -1.0249 -0.5434  0.2494
17006TIP3    H272434   0.900   4.308   5.781 -0.7233 -1.4399  0.3781
17007TIP3   OH272435   2.767   5.881  15.106  0.2982 -0.0331 -0.2204
17007TIP3    H172436   2.831   5.811  15.121 -0.1541 -0.7824 -1.7164
17007TIP3    H272437   2.763   5.890  15.011  0.3780  2.0800 -0.0449
17008TIP3   OH272438   6.179   4.094   4.904  0.2398 -0.4857  0.0294
17008TIP3    H172439   6.120   4.025   4.935 -1.5631  0.1315 -1.9699
17008TIP3    H272440   6.221   4.056   4.827 -1.7493  1.0957 -1.8767
17009TIP3   OH272441   0.466   1.005   0.455  0.8984  0.5375 -0.0481
17009TIP3    H172442   0.401   0.958   0.403  0.3634  1.3600 -0.1268
17009TIP3    H272443   0.423   1.021   0.539  1.0601  0.9170 -0.0356
17010TIP3   OH272444   1.360   5.682  16.900 -0.7000  0.3299  0.4971
17010TIP3    H172445   1.452   5.707  16.889 -1.4532  2.2697 -1.6849
17010TIP3    H272446   1.328   5.669  16.811 -2.7111  0.2997  1.2073
17011TIP3   OH272447   4.653   2.149  15.780 -0.1432 -0.3168 -0.5298
17011TIP3    H172448   4.615   2.223  15.825  0.6715  0.8531 -1.7249
17011TIP3    H272449   4.592   2.129  15.709 -1.0334 -1.6589  0.5849
17012TIP3   OH272450   2.470   3.878  11.297 -0.2462 -0.1476  0.1230
17012TIP3    H172451   2.393   3.822  11.294 -0.9148  0.8162 -1.3319
17012TIP3    H272452   2.443   3.958  11.253  1.4191  0.4162  0.0868
17013TIP3   OH272453   2.241   3.660   3.133 -0.2501  0.0062  0.0520
17013TIP3    H172454   2.313   3.653   3.071  1.0720  1.3054  1.4028
17013TIP3    H272455   2.233   3.753   3.151 -2.1947 -0.1311  0.0270
17014TIP3   OH272456   4.636   5.977   4.674  0.1623  0.4128  0.4115
17014TIP3    H172457   4.610   6.055   4.724 -0.6232 -0.6305  1.6695
17014TIP3    H272458   4.626   6.002   4.583 -0.8431  1.5414  0.8212
17015TIP3   OH272459   2.922   4.049  17.136 -0.0582  0.1335 -0.3021
17015TIP3    H172460   2.866   4.113  17.092  0.7131  1.4174  0.5471
17015TIP3    H272461   2.989   4.027  17.071 -0.6420 -0.2443 -0.7868
17016TIP3   OH272462   5.151   1.032  12.350 -0.4696  0.3533 -0.4348
17016TIP3    H172463   5.223   1.005  12.408 -1.1305  0.2304  0.3329
17016TIP3    H272464   5.084   1.065  12.409  0.0086  3.0040 -1.3112
17017TIP3   OH272465   2.308   6.564   4.055 -0.6562 -0.2150  0.3601
17017TIP3    H172466   2.375   6.542   3.990  0.7783  5.8281 -0.4904
17017TIP3    H272467   2.347   6.539   4.139  0.4054 -1.6796 -0.5357
17018TIP3   OH272468   2.724   3.400   4.390  0.0959  0.2195 -0.0443
17018TIP3    H172469   2.686   3.399   4.477  1.0519  0.3166  0.3807
17018TIP3    H272470   2.721   3.492   4.363 -0.2234  0.1853 -0.1314
17019TIP3   OH272471   6.058   5.861  16.965  0.1781  0.4083  0.2506
17019TIP3    H172472   5.962   5.855  16.964  0.0830  1.8176  0.5849
17019TIP3    H272473   6.077   5.955  16.968  1.5766  0.1526 -0.0716
17020TIP3   OH272474   6.026   6.662   1.748 -0.1801 -0.2071 -0.0441
17020TIP3    H172475   6.086   6.625   1.683 -0.4629 -1.6658  0.4970
17020TIP3    H272476   6.065   6.746   1.772 -0.2049  0.4930 -2.2764
17021TIP3   OH272477   2.696   2.866  16.461  0.1082  0.4384 -0.2236
17021TIP3    H172478   2.653   2.845  16.377  0.5397  1.9133 -0.8379
17021TIP3    H272479   2.677   2.959  16.474 -1.3245 -0.1643  2.1464
17022TIP3   OH272480   3.621   2.038  12.403 -0.8966 -0.0990 -0.5713
17022TIP3    H172481   3.684   1.967  12.398 -0.0475  0.7845 -2.8005
17022TIP3    H272482   3.564   2.015  12.477  0.2097 -2.3638 -0.4079
17023TIP3   OH272483   2.400   2.329  13.542 -0.0873  0.0415 -0.0442
17023TIP3    H172484   2.485   2.338  13.585 -0.1304  0.7434 -0.1097
17023TIP3    H272485   2.394   2.236  13.519  0.1834 -0.2178  0.9495
17024TIP3   OH272486   0.601   2.029   4.719 -0.2614 -0.3971  0.5024
17024TIP3    H172487   0.516   2.020   4.676 -0.2253 -0.4192  0.4355
17024TIP3    H272488   0.626   1.940   4.742 -0.6394 -0.3074  1.2669
17025TIP3   OH272489   6.193   3.218   0.309 -0.4487 -0.2163  0.3714
17025TIP3    H172490   6.264   3.211   0.246  0.1343  1.8384  0.7755
17025TIP3    H272491   6.199   3.307   0.343 -2.6793 -0.2848  1.0445
17026TIP3   OH272492   3.476   1.173   4.901  0.3001 -0.4501 -0.3413
17026TIP3    H172493   3.487   1.167   4.996 -0.0691 -1.1449 -0.3357
17026TIP3    H272494   3.548   1.120   4.866 -0.2983 -1.2308 -0.4120
17027TIP3   OH272495   2.310   3.307  11.376  0.1562  0.0358 -0.2647
17027TIP3    H172496   2.234   3.365  11.383 -0.3003 -0.6121  0.1569
17027TIP3    H272497   2.277   3.221  11.398  1.1775 -0.1325  0.6474
17028TIP3   OH272498   6.453   2.957   0.022  0.1698 -0.2481 -0.3073
17028TIP3    H172499   6.546   2.938   0.013  0.2979  0.5751 -0.7571
17028TIP3    H272500   6.418   2.883   0.073  1.1302 -0.3730  0.1809
17029TIP3   OH272501   1.148   3.425   3.231 -0.7521 -0.0028  0.1121
17029TIP3    H172502   1.207   3.461   3.297 -1.3792  0.4672  0.4164
17029TIP3    H272503   1.072   3.483   3.231 -0.2735  0.6699 -1.8404
17030TIP3   OH272504   6.403   4.371   2.367 -0.0905 -0.4949  0.1451
17030TIP3    H172505   6.308   4.378   2.376 -0.0369 -0.1911  0.4836
17030TIP3    H272506   6.436   4.381   2.457  0.3462  0.6746 -0.1384
17031TIP3   OH272507   1.036   3.639   3.720 -0.5266  0.9167 -0.1399
17031TIP3    H172508   1.103   3.659   3.655 -0.0410 -0.9971 -0.2338
17031TIP3    H272509   0.960   3.610   3.669  0.5191 -2.5645  0.1633
17032TIP3   OH272510   1.783   1.926   3.574 -0.7463  0.3873 -0.7711
17032TIP3    H172511   1.716   1.902   3.639  0.7208 -1.6220  0.0221
17032TIP3    H272512   1.844   1.981   3.623 -0.0066 -0.5683 -0.6111
17033TIP3   OH272513   1.836   1.275   1.011  0.2794  0.1304  0.1035
17033TIP3    H172514   1.917   1.266   1.062 -0.5918  0.5800  1.6058
17033TIP3    H272515   1.838   1.201   0.950  0.9335 -0.9398  1.3845
17034TIP3   OH272516   4.622   0.865   0.504  0.3748 -0.2002 -0.1071
17034TIP3    H172517   4.704   0.870   0.454  1.7303  0.9582  2.1674
17034TIP3    H272518   4.561   0.919   0.455  0.8339 -1.3566 -2.0184
17035TIP3   OH272519   6.708   5.369   1.923  0.5278 -0.2855  0.5771
17035TIP3    H172520   6.614   5.350   1.931  0.7981 -1.1785  1.7754
17035TIP3    H272521   6.723   5.442   1.982  0.5553 -0.0247  0.2477
17036TIP3   OH272522   2.678   0.771   5.164  0.2316  0.6564 -0.3355
17036TIP3    H172523   2.630   0.836   5.216 -0.9555  0.6391 -1.3795
17036TIP3    H272524   2.620   0.695   5.161  0.6009  0.4041 -1.0869
17037TIP3   OH272525   0.674   3.868   3.528  0.6305 -0.1816  0.7497
17037TIP3    H172526   0.579   3.855   3.523  0.8748 -2.0619  0.4949
17037TIP3    H272527   0.684   3.961   3.548 -1.2288  0.3005 -0.3581
17038TIP3   OH272528   1.910   6.717   3.679  0.3076  0.8520 -0.3833
17038TIP3    H172529   1.901   6.788   3.616  0.9897  1.8736  0.6644
17038TIP3    H272530   1.945   6.758   3.758  3.3039 -1.0297 -0.6178
17039TIP3   OH272531   5.631   2.272   0.214 -0.1374 -0.3457 -0.1303
17039TIP3    H172532   5.543   2.278   0.249  0.4931 -1.4446  1.6797
17039TIP3    H272533   5.684   2.240   0.286  1.5304 -0.8975 -1.5559
17040TIP3   OH272534   3.286   3.581  14.048 -0.4294 -0.0212 -0.0924
17040TIP3    H172535   3.202   3.551  14.013 -1.0330  0.2757  1.0919
17040TIP3    H272536   3.265   3.614  14.135  0.6169  1.7133 -0.4753
17041TIP3   OH272537   4.994   3.779  13.768  0.3854  0.3528 -0.9447
17041TIP3    H172538   5.056   3.770  13.696  0.7774  0.0101 -0.5721
17041TIP3    H272539   5.016   3.706  13.827 -1.3767 -0.7170 -1.5698
17042TIP3   OH272540   2.360   0.621  13.391  0.6486 -0.2619  0.2271
17042TIP3    H172541   2.356   0.609  13.485  1.4197  0.4671  0.3527
17042TIP3    H272542   2.269   0.611  13.362  0.2638  0.4381  1.1649
17043TIP3   OH272543   0.427   4.638   5.933 -0.0829 -0.0943 -0.4875
17043TIP3    H172544   0.439   4.586   6.013 -1.1844 -0.4195 -0.5251
17043TIP3    H272545   0.466   4.585   5.864  0.0245 -0.2461 -0.3127
17044TIP3   OH272546   2.663   6.526  11.506  0.3709 -0.4089 -0.2019
17044TIP3    H172547   2.634   6.526  11.598  0.1668 -2.0459 -0.2522
17044TIP3    H272548   2.700   6.613  11.493 -1.5420  0.6046  0.8238
17045TIP3   OH272549   3.203   4.655   3.153 -0.8533  0.0983 -0.3239
17045TIP3    H172550   3.227   4.704   3.075  0.0210 -1.9961 -1.4019
17045TIP3    H272551   3.135   4.595   3.124 -1.8532  0.5825  0.9590
17046TIP3   OH272552   1.545   1.709  13.846 -0.3426  0.0107  0.4294
17046TIP3    H172553   1.489   1.635  13.872 -1.0884  0.3474 -0.2070
17046TIP3    H272554   1.576   1.746  13.929 -1.6866  0.2957  0.8141
17047TIP3   OH272555   6.148   1.643  14.627  1.2505 -0.1353 -0.0242
17047TIP3    H172556   6.144   1.659  14.533 -1.6571 -0.0375  0.0877
17047TIP3    H272557   6.120   1.725  14.667  1.5160 -0.4899  0.9009
17048TIP3   OH272558   0.876   4.169   6.078  0.1485 -0.1488 -0.7898
17048TIP3    H172559   0.818   4.181   6.003  0.8024  1.5130 -1.0540
17048TIP3    H272560   0.849   4.086   6.116  0.8711 -1.8311 -3.8012
17049TIP3   OH272561   4.755   0.425   4.109  0.3030  0.0087  0.1703
17049TIP3    H172562   4.762   0.471   4.192 -0.2510  1.3177 -0.4878
17049TIP3    H272563   4.844   0.419   4.076  0.5414 -0.6596  0.9231
17050TIP3   OH272564   1.484   3.930  10.960 -0.6259 -0.3721  0.1902
17050TIP3    H172565   1.438   3.851  10.988 -0.6699  0.8579  3.9086
17050TIP3    H272566   1.442   3.955  10.878 -2.4437 -2.6927  0.3774
17051TIP3   OH272567   5.048   3.147  12.704  0.1097 -0.1648  0.2262
17051TIP3    H172568   4.975   3.086  12.696  0.7932 -0.9027 -0.6513
17051TIP3    H272569   5.121   3.102  12.660  1.1607  0.4296  1.3272
17052TIP3   OH272570   0.224   1.433  17.027 -0.4611  0.7157  0.2820
17052TIP3    H172571   0.132   1.447  17.050 -0.5422  0.3054  0.2149
17052TIP3    H272572   0.272   1.466  17.103 -0.7475 -0.9781  1.2430
17053TIP3   OH272573   4.491   5.164  11.008 -0.2710 -0.1428  0.6904
17053TIP3    H172574   4.542   5.086  10.986  0.3758  0.0943  1.3433
17053TIP3    H272575   4.449   5.190  10.925  0.5747 -0.4040  0.1781
17054TIP3   OH272576   4.234   0.824   6.212 -0.1978 -0.2504  0.4035
17054TIP3    H172577   4.325   0.845   6.232  0.4002 -1.8456 -0.5664
17054TIP3    H272578   4.193   0.909   6.194  1.1519  0.4539  0.6131
17055TIP3   OH272579   0.323   5.203  11.907 -0.0993 -0.1313  0.3549
17055TIP3    H172580   0.290   5.293  11.901 -0.4542 -0.4096 -2.8380
17055TIP3    H272581   0.246   5.150  11.927  0.1634  0.2974  2.5382
17056TIP3   OH272582   0.954   2.590  16.635 -0.2825  0.5982  0.4477
17056TIP3    H172583   0.862   2.611  16.617 -0.0381  1.5407  0.2862
17056TIP3    H272584   0.954   2.495  16.648 -0.8403  0.1816 -2.2515
17057TIP3   OH272585   1.728   4.608  16.119 -0.0260  0.0206 -0.0160
17057TIP3    H172586   1.740   4.514  16.110  0.7121  0.3672 -3.4567
17057TIP3    H272587   1.795   4.635  16.182  0.3829 -1.6185  0.2705
17058TIP3   OH272588   4.572   1.185   5.838  0.5653  0.0264 -0.4002
17058TIP3    H172589   4.529   1.171   5.754  0.8423  1.1841 -0.7347
17058TIP3    H272590   4.642   1.247   5.820  0.5810  0.3395  0.7015
17059TIP3   OH272591   6.346   3.993   1.230 -0.5146  0.2485  0.1528
17059TIP3    H172592   6.295   3.928   1.278  0.8899 -0.7793  0.2871
17059TIP3    H272593   6.390   4.044   1.298  1.6669 -1.3643  0.0029
17060TIP3   OH272594   3.580   5.392   2.225  0.3971 -0.2856 -0.2778
17060TIP3    H172595   3.490   5.370   2.200  0.3733  1.0787 -1.4983
17060TIP3    H272596   3.619   5.426   2.144  1.0960  1.9353  0.9590
17061TIP3   OH272597   0.202   1.007  11.889 -0.2025  0.0290  0.3229
17061TIP3    H172598   0.262   0.935  11.868  0.9067  1.0495 -0.0408
17061TIP3    H272599   0.140   0.969  11.951  1.1118 -0.9100  1.0770
17062TIP3   OH272600   0.317   4.190   6.047  0.9324  0.7440  0.1852
17062TIP3    H172601   0.278   4.242   6.117 -1.5916  0.9772 -1.3106
17062TIP3    H272602   0.314   4.247   5.971  0.7916 -0.5601 -0.8025
17063TIP3   OH272603   2.333   3.521   2.443  0.7333  0.5668 -0.5582
17063TIP3    H172604   2.306   3.497   2.531  0.4095 -2.0032 -1.3210
17063TIP3    H272605   2.255   3.561   2.403  0.1597 -0.4636 -0.4691
17064TIP3   OH272606   5.909   4.451  15.353  0.3936  0.6119 -0.0848
17064TIP3    H172607   5.930   4.476  15.443  0.8436 -0.4162  0.1051
17064TIP3    H272608   5.969   4.379  15.334 -1.2264 -0.6732 -0.4347
17065TIP3   OH272609   3.147   0.269   0.918  0.7713 -0.7295 -0.2753
17065TIP3    H172610   3.207   0.340   0.892  2.4243 -1.2453  1.9405
17065TIP3    H272611   3.110   0.299   1.001 -0.8871 -1.1083 -0.8800
17066TIP3   OH272612   0.465   0.527  15.201  0.0312 -0.5940 -0.1592
17066TIP3    H172613   0.462   0.496  15.292 -2.5564 -0.4933 -0.1897
17066TIP3    H272614   0.397   0.477  15.156  0.5185  0.1872 -1.7822
17067TIP3   OH272615   1.262   0.986  16.434 -0.2747 -0.2015 -0.5200
17067TIP3    H172616   1.203   0.942  16.494 -0.4418  1.6818  0.7694
17067TIP3    H272617   1.339   0.929  16.429 -0.0990 -0.2046  1.8202
17068TIP3   OH272618   5.237   6.284  12.892  0.4976 -0.0881  0.3157
17068TIP3    H172619   5.233   6.242  12.978 -1.1039 -1.5640 -0.4761
17068TIP3    H272620   5.293   6.227  12.840  1.7850  1.0084  0.4583
17069TIP3   OH272621   5.782   2.868   5.774 -0.3979 -0.5098  0.3921
17069TIP3    H172622   5.694   2.893   5.748  0.5272  1.5224 -0.9996
17069TIP3    H272623   5.804   2.929   5.845 -0.1342 -1.0121  0.7403
17070TIP3   OH272624   2.172   0.912  10.627 -0.3451 -0.3478 -0.2384
17070TIP3    H172625   2.232   0.843  10.597  1.8016  0.9126  1.0377
17070TIP3    H272626   2.213   0.994  10.599 -1.3092  0.5623  0.9707
17071TIP3   OH272627   6.126   6.671   1.395  0.1820  0.2432  0.0571
17071TIP3    H172628   6.208   6.697   1.353 -0.7192  0.7104 -1.4489
17071TIP3    H272629   6.153   6.627   1.475  1.8938  0.8668 -0.1558
17072TIP3   OH272630   2.581   5.346   5.383  0.3792 -0.2831  0.2050
17072TIP3    H172631   2.634   5.414   5.341  2.0975 -1.2887  0.6884
17072TIP3    H272632   2.614   5.342   5.473  0.1760 -1.6137  0.2308
17073TIP3   OH272633   3.924   2.659  14.919 -0.7184 -0.4024 -0.0456
17073TIP3    H172634   3.940   2.611  15.000 -0.2820  0.7663  0.5711
17073TIP3    H272635   3.959   2.603  14.850  2.0973  0.1362  0.8772
17074TIP3   OH272636   1.995   6.265  14.997 -0.4474 -0.0698 -0.5334
17074TIP3    H172637   1.934   6.337  15.014 -0.0169  0.0301  0.5993
17074TIP3    H272638   2.000   6.218  15.080 -1.3078 -1.8743 -1.4653
17075TIP3   OH272639   0.956   2.343   0.909  0.3698 -0.1119 -0.1610
17075TIP3    H172640   1.024   2.302   0.855  0.7810  0.9686 -0.4848
17075TIP3    H272641   0.889   2.370   0.846  0.4381  0.3584 -0.0284
17076TIP3   OH272642   0.713   1.031  12.592  0.4795  0.0475 -0.0615
17076TIP3    H172643   0.763   1.085  12.531 -1.1373  0.7992 -0.7276
17076TIP3    H272644   0.685   0.956  12.540  0.8705 -0.3724  0.3151
17077TIP3   OH272645   3.262   6.496  15.077  0.2913 -0.2411  0.6221
17077TIP3    H172646   3.314   6.544  15.013 -1.0585 -1.0336 -1.0930
17077TIP3    H272647   3.173   6.530  15.068 -0.2248 -1.4671  0.9619
17078TIP3   OH272648   1.903   5.167  14.088 -0.5434  0.9402  0.0446
17078TIP3    H172649   1.944   5.132  14.009 -0.8388  2.7346 -0.9219
17078TIP3    H272650   1.834   5.224  14.056  0.8460  3.5495  1.5591
17079TIP3   OH272651   6.517   3.218  15.926 -0.4121  0.2594 -0.1964
17079TIP3    H172652   6.470   3.136  15.914  0.1401  0.1278 -1.5411
17079TIP3    H272653   6.596   3.209  15.873 -0.7745  1.9884 -1.0711
17080TIP3   OH272654   2.019   6.145   3.309 -0.3474 -0.1909  0.1372
17080TIP3    H172655   2.079   6.163   3.381  0.6154 -0.1529 -0.6671
17080TIP3    H272656   1.998   6.052   3.317  0.4312 -0.3858 -0.0277
17081TIP3   OH272657   1.354   2.100  11.262  0.0522  0.2011 -0.3944
17081TIP3    H172658   1.439   2.058  11.274  0.1076  0.2533 -0.5975
17081TIP3    H272659   1.364   2.151  11.181  0.3390  1.4655  0.4319
17082TIP3   OH272660   6.746   0.526   2.352  0.4350  0.2714 -0.3746
17082TIP3    H172661   6.842   0.524   2.352  0.4288 -0.3202  0.1317
17082TIP3    H272662   6.722   0.493   2.439 -0.2055  1.5848 -0.0398
17083TIP3   OH272663   5.887   2.899   4.743  0.2046  0.4191  0.4366
17083TIP3    H172664   5.792   2.891   4.753  0.3555 -0.2914  1.3667
17083TIP3    H272665   5.923   2.871   4.827  1.2125  1.4536  0.3647
17084TIP3   OH272666   0.499   6.380   4.412  1.2605  0.5209 -0.0965
17084TIP3    H172667   0.590   6.410   4.416  1.7074 -0.8419  0.1748
17084TIP3    H272668   0.494   6.310   4.478  0.3994 -0.4034 -1.1207
17085TIP3   OH272669   3.976   4.109  15.858  0.4026  0.2710  0.1177
17085TIP3    H172670   4.024   4.036  15.819  1.0731 -0.2374  1.8326
17085TIP3    H272671   4.035   4.144  15.925 -0.2980  1.7791 -0.0308
17086TIP3   OH272672   0.997   5.129   2.517 -0.1059 -0.9594 -0.5998
17086TIP3    H172673   1.045   5.046   2.518  0.0445 -0.8723  1.0093
17086TIP3    H272674   0.995   5.156   2.609 -2.3434 -0.4289 -0.7878
17087TIP3   OH272675   1.577   5.080  12.367  0.1175 -0.3587  0.8071
17087TIP3    H172676   1.641   5.033  12.313  1.3828  0.5767  1.4392
17087TIP3    H272677   1.587   5.172  12.341  0.2834  0.0147  2.1512
17088TIP3   OH272678   5.260   3.344   4.049  0.5416  0.0293  0.2067
17088TIP3    H172679   5.281   3.252   4.063  1.5325 -0.2331 -2.7330
17088TIP3    H272680   5.332   3.392   4.090  0.0179 -0.4901  1.7492
17089TIP3   OH272681   0.987   5.260  16.649 -0.4438 -0.2336  0.3676
17089TIP3    H172682   0.998   5.325  16.718  0.9349 -0.0519 -0.0074
17089TIP3    H272683   0.970   5.178  16.696 -0.7279  0.1183  0.8820
17090TIP3   OH272684   1.909   5.525   0.487  0.0449 -0.2849  0.3056
17090TIP3    H172685   1.947   5.503   0.402 -1.8902  0.1053 -0.6900
17090TIP3    H272686   1.966   5.593   0.523  1.3037 -0.9964 -0.3407
17091TIP3   OH272687   5.852   0.393  16.431 -0.2310  0.1979  0.5050
17091TIP3    H172688   5.806   0.371  16.350  0.6005  1.3631 -0.3228
17091TIP3    H272689   5.945   0.396  16.405 -0.2649  4.4089  0.5469
17092TIP3   OH272690   6.180   1.801  10.937  0.1660 -0.0095 -0.1979
17092TIP3    H172691   6.163   1.870  11.001 -0.2358 -1.0779  0.8663
17092TIP3    H272692   6.157   1.841  10.853  1.3374  1.6313  0.2256
17093TIP3   OH272693   3.872   5.850  13.561  0.1641  0.2006  0.1080
17093TIP3    H172694   3.925   5.927  13.543  0.0970  0.5602  1.3779
17093TIP3    H272695   3.885   5.832  13.655  0.4526 -1.5379 -0.2415
17094TIP3   OH272696   1.333   1.800   1.622  0.1763 -0.8777  0.3380
17094TIP3    H172697   1.356   1.707   1.622  0.6084 -0.7767 -0.4459
17094TIP3    H272698   1.366   1.833   1.705  0.1863 -1.3857  0.5373
17095TIP3   OH272699   1.259   2.915   3.413 -0.2596 -0.4104 -0.9681
17095TIP3    H172700   1.212   2.920   3.330  0.2809 -1.6245 -1.3665
17095TIP3    H272701   1.193   2.882   3.475 -1.0139  1.7247 -0.6093
17096TIP3   OH272702   2.663   0.488  15.895 -1.1204  0.2496  0.3270
17096TIP3    H172703   2.734   0.455  15.840 -0.4809  0.0307  1.2644
17096TIP3    H272704   2.699   0.485  15.984 -1.5337  2.1645  0.5917
17097TIP3   OH272705   6.758   2.517   3.211 -0.1353 -0.1493 -0.4265
17097TIP3    H172706   6.831   2.567   3.175  0.8883 -2.1779 -1.2179
17097TIP3    H272707   6.783   2.425   3.200 -1.0216 -0.8820  2.9546
17098TIP3   OH272708   2.132   3.221  17.150  0.9960 -0.0548 -0.1063
17098TIP3    H172709   2.129   3.214  17.054 -0.7189 -0.4768 -0.0434
17098TIP3    H272710   2.116   3.132  17.181  0.0145  0.3546  0.5737
17099TIP3   OH272711   3.772   2.422   3.477  0.4928  0.7202  0.4357
17099TIP3    H172712   3.846   2.456   3.426  1.4402  0.7640  1.8032
17099TIP3    H272713   3.740   2.348   3.426  0.7615  1.3798 -0.7324
17100TIP3   OH272714   1.602   5.166   4.259 -0.3264  0.0496  0.2520
17100TIP3    H172715   1.536   5.100   4.237 -1.1383  0.1809  2.1783
17100TIP3    H272716   1.553   5.247   4.267  0.7292  1.0341 -2.5141
17101TIP3   OH272717   5.335   1.810  12.561  0.4492 -0.7622 -0.9759
17101TIP3    H172718   5.340   1.793  12.467 -2.0883  0.5558 -1.3945
17101TIP3    H272719   5.261   1.756  12.591 -0.0004  0.3009 -0.1308
17102TIP3   OH272720   3.585   1.604  14.988  0.3484 -0.2678 -0.5792
17102TIP3    H172721   3.652   1.556  15.037  1.3552  0.1674 -1.5165
17102TIP3    H272722   3.614   1.695  14.991  0.1576 -0.1711 -1.5683
17103TIP3   OH272723   3.883   5.015  11.504 -0.2565 -0.3358  0.1144
17103TIP3    H172724   3.933   4.936  11.483  0.4772  0.0982  0.2170
17103TIP3    H272725   3.884   5.019  11.600  2.2712  1.4007  0.0733
17104TIP3   OH272726   6.005   6.584   3.861 -0.4739  0.2913 -0.5912
17104TIP3    H172727   6.051   6.506   3.892 -1.6957 -0.3530 -0.3812
17104TIP3    H272728   5.912   6.559   3.861 -1.0210  2.2384  0.9181
17105TIP3   OH272729   4.682   5.422  13.723 -0.2840  0.0651  0.3269
17105TIP3    H172730   4.688   5.385  13.811 -1.6695  0.9835  0.8186
17105TIP3    H272731   4.635   5.504  13.735 -1.9240 -0.5784 -1.4938
17106TIP3   OH272732   1.670   5.754   3.697 -0.1500  0.3255 -0.1568
17106TIP3    H172733   1.686   5.686   3.631  2.3020  0.8893 -0.1744
17106TIP3    H272734   1.741   5.744   3.760 -0.1779  2.4159  0.2413
17107TIP3   OH272735   0.412   6.782   5.041  0.3253  0.1618 -0.0810
17107TIP3    H172736   0.436   6.705   4.990  0.8524 -0.0573  0.4975
17107TIP3    H272737   0.483   6.844   5.025 -0.4139  0.7735 -1.0549
17108TIP3   OH272738   0.931   4.556   5.814  0.2224  0.2053  0.6312
17108TIP3    H172739   0.950   4.650   5.819 -0.3887  0.4239 -0.8225
17108TIP3    H272740   1.012   4.514   5.842  0.5130  1.1729  1.2602
17109TIP3   OH272741   3.541   3.484   2.566  0.2953  0.1582 -0.3060
17109TIP3    H172742   3.589   3.558   2.528 -0.6323  1.0026  0.1366
17109TIP3    H272743   3.449   3.512   2.565 -0.1647 -1.3246 -0.9005
17110TIP3   OH272744   4.269   1.340   1.522  0.3228 -0.3093  0.2765
17110TIP3    H172745   4.341   1.285   1.552 -0.7852 -2.8714 -1.5700
17110TIP3    H272746   4.305   1.390   1.449  0.7561 -0.1030  0.6316
17111TIP3   OH272747   3.421   4.267  14.287 -0.5858 -0.1510  0.3086
17111TIP3    H172748   3.443   4.287  14.196  0.2654 -1.5086  0.2147
17111TIP3    H272749   3.503   4.238  14.326 -1.2375 -0.8928  1.1511
17112TIP3   OH272750   4.266   1.451  12.940 -0.6196  0.2406 -0.2090
17112TIP3    H172751   4.301   1.491  13.019  0.5502  0.4532 -0.8086
17112TIP3    H272752   4.290   1.358  12.948  0.6204  0.4810 -0.8714
17113TIP3   OH272753   6.644   0.441  14.141  0.5181  0.2701  0.1471
17113TIP3    H172754   6.640   0.443  14.046  1.8069 -0.1212  0.0776
17113TIP3    H272755   6.678   0.527  14.166 -0.1939  0.5167  0.2772
17114TIP3   OH272756   6.722   1.961  14.587 -0.0677 -0.1150  0.8266
17114TIP3    H172757   6.656   1.897  14.562  0.1046  0.7007 -1.9015
17114TIP3    H272758   6.805   1.914  14.582 -0.0052  0.1261 -0.5089
17115TIP3   OH272759   4.142   4.716   0.687 -0.7111 -0.1327 -0.0135
17115TIP3    H172760   4.223   4.729   0.736 -1.1214 -1.1143  0.9335
17115TIP3    H272761   4.110   4.805   0.669 -0.5398  0.2419  1.4750
17116TIP3   OH272762   6.204   0.338  15.281  0.1606  0.1243 -0.0685
17116TIP3    H172763   6.144   0.402  15.319 -0.8243 -0.4216 -0.6687
17116TIP3    H272764   6.235   0.287  15.357  0.4244  0.8727  0.3293
17117TIP3   OH272765   0.473   6.110  12.271  0.1065 -0.0669  1.0157
17117TIP3    H172766   0.401   6.079  12.216  1.4610  0.1460 -0.9327
17117TIP3    H272767   0.453   6.076  12.358 -1.5210 -1.3534  0.1676
17118TIP3   OH272768   4.311   5.854  15.626  0.1738 -0.6002 -0.0321
17118TIP3    H172769   4.294   5.818  15.713 -0.1526 -1.7142 -0.5463
17118TIP3    H272770   4.273   5.942  15.629  0.9292 -0.2964  1.2272
17119TIP3   OH272771   1.501   1.007   1.168 -0.3348  0.2705 -0.4809
17119TIP3    H172772   1.406   1.003   1.156 -0.2512 -1.2162 -0.7934
17119TIP3    H272773   1.532   0.919   1.144  1.0592  0.5804  0.1156
17120TIP3   OH272774   4.797   0.372  10.172 -0.0385 -0.1884  0.2311
17120TIP3    H172775   4.701   0.374  10.164 -0.0742  0.1322  0.7307
17120TIP3    H272776   4.815   0.291  10.220  0.0023 -0.6983 -0.6226
17121TIP3   OH272777   5.485   0.932  14.301 -0.4159 -0.1190  0.4312
17121TIP3    H172778   5.542   0.856  14.289 -0.7588 -0.5807  1.6699
17121TIP3    H272779   5.485   0.975  14.215  0.1550 -1.2459 -0.1524
17122TIP3   OH272780   4.800   2.288  14.817 -0.1677 -0.3585 -0.0006
17122TIP3    H172781   4.738   2.216  14.828  0.6893 -1.1036  0.0505
17122TIP3    H272782   4.851   2.289  14.898  0.0880  0.0528 -0.1612
17123TIP3   OH272783   4.079   5.146  14.572  0.0376  0.2158  0.6575
17123TIP3    H172784   4.032   5.203  14.511 -0.9887  0.4217  1.6355
17123TIP3    H272785   4.119   5.079  14.515  0.7008  1.4955 -0.4222
17124TIP3   OH272786   6.015   0.392  12.614 -0.2940 -0.1390  0.3843
17124TIP3    H172787   6.055   0.333  12.677 -1.8176  0.3110  1.8132
17124TIP3    H272788   5.968   0.335  12.553 -0.6133 -0.4806  0.9466
17125TIP3   OH272789   2.884   3.252  16.011 -0.2845 -0.7303  0.5054
17125TIP3    H172790   2.927   3.337  16.021 -0.0353 -0.9885  1.8748
17125TIP3    H272791   2.868   3.243  15.918  0.9239  0.2266  0.1912
17126TIP3   OH272792   4.956   6.629  16.390 -0.0540  0.5798  0.0304
17126TIP3    H172793   5.041   6.672  16.405  0.7916 -1.2548  0.6131
17126TIP3    H272794   4.950   6.563  16.459 -1.4226 -0.1341 -0.7579
17127TIP3   OH272795   0.799   4.782  11.277 -0.0738  0.0982 -0.4521
17127TIP3    H172796   0.855   4.712  11.310  1.5629  1.4988 -0.2241
17127TIP3    H272797   0.759   4.746  11.198  1.8058 -0.6388 -1.0917
17128TIP3   OH272798   3.010   6.065  11.450 -0.1511 -0.5518  0.2055
17128TIP3    H172799   3.039   6.153  11.474 -2.5321 -0.0128  1.2971
17128TIP3    H272800   3.021   6.014  11.531  1.4245 -1.3375 -0.4819
17129TIP3   OH272801   5.659   0.055   4.970  0.0644 -0.8269 -0.0777
17129TIP3    H172802   5.602   0.003   4.914 -2.0033  0.8775  0.3739
17129TIP3    H272803   5.714   0.105   4.910  0.0970 -1.4190 -0.5395
17130TIP3   OH272804   4.956   5.843   4.056 -0.5535 -1.4004  0.1783
17130TIP3    H172805   4.865   5.824   4.033 -0.9339 -0.0265  0.4867
17130TIP3    H272806   4.975   5.785   4.130 -1.6680 -0.6200  1.0899
17131TIP3   OH272807   1.318   0.800  13.178 -0.7565  0.0671  0.5230
17131TIP3    H172808   1.387   0.808  13.245 -1.5936 -0.2573  1.4299
17131TIP3    H272809   1.314   0.706  13.159 -1.7556 -0.0596  1.3316
17132TIP3   OH272810   3.032   4.511  14.340  0.6485 -0.6343 -0.2868
17132TIP3    H172811   3.057   4.419  14.330  0.7072 -0.5268 -1.0985
17132TIP3    H272812   3.041   4.548  14.253  0.7283  0.1727  0.0644
17133TIP3   OH272813   5.809   3.112  11.939 -1.0245  0.4770  0.3123
17133TIP3    H172814   5.894   3.142  11.970 -0.9997  1.0165 -0.2649
17133TIP3    H272815   5.773   3.061  12.012 -0.8338  1.4753  1.1130
17134TIP3   OH272816   3.719   4.410  11.453 -0.6704  0.2131 -0.6259
17134TIP3    H172817   3.797   4.465  11.442 -0.0182 -1.1137 -3.1135
17134TIP3    H272818   3.686   4.432  11.541  2.5014  0.7772  0.4886
17135TIP3   OH272819   3.152   6.211  17.069  0.0282 -0.1508 -0.1962
17135TIP3    H172820   3.233   6.167  17.045 -1.2624 -2.4901 -0.4701
17135TIP3    H272821   3.142   6.281  17.005  1.9676  0.3734  0.0427
17136TIP3   OH272822   6.126   4.724  13.987 -0.2496 -0.6775  0.0739
17136TIP3    H172823   6.155   4.790  14.050 -0.6329 -0.7493  0.3308
17136TIP3    H272824   6.133   4.766  13.902  1.1558 -0.8915  0.0786
17137TIP3   OH272825   3.892   6.560  13.030  0.5072  0.3905  0.1007
17137TIP3    H172826   3.872   6.542  12.938 -0.3511 -0.2237  0.3993
17137TIP3    H272827   3.978   6.520  13.044  0.3009 -0.1880 -0.2422
17138TIP3   OH272828   0.195   0.634   1.658 -0.1071  0.1268 -0.5702
17138TIP3    H172829   0.273   0.678   1.624  1.1009 -1.1777  0.4333
17138TIP3    H272830   0.126   0.701   1.655  0.9279  1.1663 -1.8905
17139TIP3   OH272831   2.772   1.421   1.597  0.5801  0.2873 -0.0413
17139TIP3    H172832   2.690   1.373   1.611 -0.0440  1.7759  1.4940
17139TIP3    H272833   2.780   1.425   1.501 -0.1133 -1.5765 -0.2068
17140TIP3   OH272834   2.390   0.846   5.677  0.7858  0.0645 -0.0911
17140TIP3    H172835   2.295   0.857   5.675  0.8839  1.1601  0.6663
17140TIP3    H272836   2.408   0.812   5.765  1.0533 -0.5066 -0.3684
17141TIP3   OH272837   2.821   2.867  12.833  0.0443  0.5815  0.0485
17141TIP3    H172838   2.852   2.784  12.797  1.1237  1.3438 -0.8125
17141TIP3    H272839   2.876   2.933  12.791 -0.6127  1.7100  0.9457
17142TIP3   OH272840   5.726   4.043   5.028 -0.0182  0.0233 -0.2074
17142TIP3    H172841   5.751   4.127   4.991  0.3386  0.5329  1.1530
17142TIP3    H272842   5.800   4.017   5.082 -1.1764  0.1230  1.4810
17143TIP3   OH272843   2.061   3.287   3.726  0.2509  0.2456  0.0615
17143TIP3    H172844   2.082   3.365   3.777  1.0897 -1.1006  1.8141
17143TIP3    H272845   2.112   3.296   3.646  3.4345 -0.3641  1.9473
17144TIP3   OH272846   1.272   0.243  10.967  0.2720  0.0535  0.4847
17144TIP3    H172847   1.336   0.295  10.918  0.1543 -0.0828  0.1867
17144TIP3    H272848   1.191   0.252  10.917  0.2035 -0.2605  0.5400
17145TIP3   OH272849   4.356   4.235   0.898  0.4038  0.3190  0.1261
17145TIP3    H172850   4.292   4.302   0.922 -0.1870 -1.3768  3.6638
17145TIP3    H272851   4.440   4.270   0.928  0.2355 -0.0478  1.0502
17146TIP3   OH272852   2.672   0.756   1.006  0.2894  0.0794  0.1712
17146TIP3    H172853   2.713   0.670   0.992 -1.2762 -0.7088  0.2950
17146TIP3    H272854   2.621   0.771   0.926 -0.6000  0.2078  0.7521
17147TIP3   OH272855   3.040   4.865   2.884 -0.2355 -0.3908 -0.9887
17147TIP3    H172856   2.987   4.788   2.902  1.3342 -1.7328 -2.0573
17147TIP3    H272857   3.079   4.849   2.798  1.7242  0.6873 -0.3223
17148TIP3   OH272858   4.541   0.271   0.743 -0.3128  0.2008 -0.0573
17148TIP3    H172859   4.606   0.268   0.673 -0.3277  1.3538 -0.1320
17148TIP3    H272860   4.461   0.239   0.702  0.3418 -1.8196  0.2016
17149TIP3   OH272861   0.099   0.828   5.990 -0.6969  0.3711 -0.1152
17149TIP3    H172862   0.045   0.786   6.058  0.0489 -1.9617 -0.8954
17149TIP3    H272863   0.115   0.916   6.022  1.0621 -1.1983  3.6186
17150TIP3   OH272864   2.093   1.773   0.711 -0.2807 -0.1742  0.7268
17150TIP3    H172865   2.145   1.693   0.720 -0.6296 -0.3023  1.6353
17150TIP3    H272866   2.021   1.761   0.772 -2.1856 -0.6246 -1.5410
17151TIP3   OH272867   1.200   4.619  15.941 -0.1707  0.1743 -0.3027
17151TIP3    H172868   1.292   4.591  15.941 -0.3733 -0.5137  0.6330
17151TIP3    H272869   1.177   4.624  15.849  0.4756 -0.7664 -0.5293
17152TIP3   OH272870   0.557   1.453  17.229 -0.3323 -0.0057  0.5809
17152TIP3    H172871   0.631   1.508  17.254 -0.2717  0.2231 -0.1114
17152TIP3    H272872   0.501   1.510  17.176  0.5766 -1.0917 -1.5937
17153TIP3   OH272873   1.144   4.575   3.548 -0.3110 -0.0086 -0.2589
17153TIP3    H172874   1.107   4.516   3.481 -0.9614 -0.9261  0.8903
17153TIP3    H272875   1.070   4.597   3.604  0.1916  0.9425  0.0409
17154TIP3   OH272876   3.069   6.599   5.834  0.5576  0.7459  0.5376
17154TIP3    H172877   2.979   6.604   5.868  0.6419 -3.9780  1.7443
17154TIP3    H272878   3.063   6.542   5.758  2.8913 -1.8816  2.2332
17155TIP3   OH272879   2.256   0.399   4.909  0.2044  0.1381 -0.3416
17155TIP3    H172880   2.250   0.421   4.816  0.6486  0.6734 -0.2458
17155TIP3    H272881   2.350   0.400   4.928  0.1061  0.1510  0.1399
17156TIP3   OH272882   4.273   3.453  13.002 -0.7214 -0.2512  0.2297
17156TIP3    H172883   4.285   3.378  12.944 -1.4647 -1.5582  1.7186
17156TIP3    H272884   4.362   3.473  13.033 -0.6387 -1.2359  0.6726
17157TIP3   OH272885   1.549   2.120  12.989 -0.1615  0.0614  0.4559
17157TIP3    H172886   1.459   2.130  12.957  1.0201  1.2140 -2.7436
17157TIP3    H272887   1.591   2.204  12.972  2.1207 -1.1459 -0.2025
17158TIP3   OH272888   5.666   4.753  12.388 -0.0176 -0.3676  0.2701
17158TIP3    H172889   5.753   4.786  12.409 -0.2035 -0.5398  1.3112
17158TIP3    H272890   5.633   4.717  12.470 -0.6123 -1.3425 -0.3753
17159TIP3   OH272891   4.725   1.802   0.511 -0.2036  0.4754  0.4940
17159TIP3    H172892   4.631   1.792   0.520 -0.1491 -1.2264 -0.5380
17159TIP3    H272893   4.757   1.812   0.600 -1.4660  2.2959  0.7637
17160TIP3   OH272894   1.337   5.515  12.204  0.1574 -0.7401 -0.3699
17160TIP3    H172895   1.334   5.428  12.245  0.8463 -0.9544 -0.7641
17160TIP3    H272896   1.383   5.570  12.268 -0.6674 -0.5552  0.0724
17161TIP3   OH272897   3.034   1.736   4.837  0.3844 -0.3562  0.0290
17161TIP3    H172898   3.021   1.724   4.931  0.1103 -0.5570 -0.0318
17161TIP3    H272899   3.055   1.829   4.827 -1.0834 -0.0101  0.1288
17162TIP3   OH272900   0.132   4.512  14.123  0.0849  0.3463 -0.3255
17162TIP3    H172901   0.108   4.604  14.127 -2.1459 -0.2141 -0.1228
17162TIP3    H272902   0.066   4.467  14.177  0.1778 -1.5460 -1.7186
17163TIP3   OH272903   2.019   5.512   1.367  0.5211  0.1511 -0.1023
17163TIP3    H172904   1.957   5.446   1.335 -0.1689  0.6108  0.2615
17163TIP3    H272905   2.040   5.565   1.291 -1.7075  1.7206  0.3183
17164TIP3   OH272906   3.317   2.159  12.279 -0.5091  0.5588  0.0192
17164TIP3    H172907   3.324   2.239  12.228  0.9404 -0.2057 -1.0158
17164TIP3    H272908   3.405   2.120  12.276 -1.2974 -1.2971  0.0836
17165TIP3   OH272909   2.001   3.366   6.302 -0.3291  0.4492 -0.3501
17165TIP3    H172910   2.006   3.372   6.397 -1.3135 -0.5839 -0.2180
17165TIP3    H272911   2.068   3.427   6.270  3.2399 -2.5971  1.0227
17166TIP3   OH272912   0.675   0.109  11.892  0.2873 -0.2335  0.1239
17166TIP3    H172913   0.639   0.045  11.831  1.1143  0.4898 -1.1411
17166TIP3    H272914   0.650   0.076  11.978  0.1248 -1.9026 -0.5368
17167TIP3   OH272915   2.683   1.263   4.086 -0.7327  0.1325 -0.2350
17167TIP3    H172916   2.751   1.328   4.101  0.9418 -1.7781  0.7635
17167TIP3    H272917   2.723   1.198   4.028 -2.5686  0.2727 -1.7088
17168TIP3   OH272918   2.995   5.827  11.182  0.1172 -0.4789 -0.0840
17168TIP3    H172919   3.033   5.803  11.266  1.6544 -0.9054 -0.8943
17168TIP3    H272920   3.069   5.830  11.121 -0.3564  4.0260 -0.5537
17169TIP3   OH272921   5.959   6.304  12.780  0.3850  0.0807 -0.1533
17169TIP3    H172922   5.977   6.210  12.781 -1.3749 -0.3138 -1.8367
17169TIP3    H272923   5.864   6.310  12.770  0.5245  2.0444 -0.4955
17170TIP3   OH272924   4.469   3.268  16.920 -0.1125  0.6494 -1.1370
17170TIP3    H172925   4.533   3.293  16.987  0.4978  1.4900 -2.0249
17170TIP3    H272926   4.435   3.184  16.950  0.8712  0.5433 -0.2785
17171TIP3   OH272927   3.116   0.534   0.206 -0.1769 -0.1609  0.1917
17171TIP3    H172928   3.054   0.487   0.261 -0.8924  1.4415  0.7926
17171TIP3    H272929   3.183   0.566   0.266 -0.0813  0.1830 -0.0933
17172TIP3   OH272930   0.177   5.114  12.680 -0.1734  0.3133 -0.2202
17172TIP3    H172931   0.140   5.046  12.737  0.8687  1.0361  1.3783
17172TIP3    H272932   0.124   5.192  12.698 -0.0693  0.4532 -0.5137
17173TIP3   OH272933   6.581   5.576   2.034  0.2746  0.0917 -0.1589
17173TIP3    H172934   6.603   5.662   1.997 -0.1630  0.3073  0.0762
17173TIP3    H272935   6.517   5.540   1.973 -2.0404  1.3364  1.4624
17174TIP3   OH272936   5.531   2.103   1.134  0.0042 -0.3059 -0.1365
17174TIP3    H172937   5.507   2.187   1.174  1.0411  0.5576 -1.3134
17174TIP3    H272938   5.546   2.045   1.209 -2.1000  0.1286  0.6871
17175TIP3   OH272939   1.602   1.282  14.587  0.2385  0.8497 -0.5443
17175TIP3    H172940   1.630   1.373  14.573  1.2627  0.5945 -0.1970
17175TIP3    H272941   1.652   1.254  14.664 -1.6082  0.6531  0.6270
17176TIP3   OH272942   3.830   0.593  12.855 -0.0131 -0.3180 -0.3476
17176TIP3    H172943   3.860   0.639  12.934 -0.3432  0.3922 -0.6293
17176TIP3    H272944   3.904   0.601  12.794  0.5742 -1.5929  0.1678
17177TIP3   OH272945   5.262   6.260   0.501  0.2284 -0.4940 -0.2248
17177TIP3    H172946   5.232   6.350   0.498  0.8189 -0.2951 -0.1253
17177TIP3    H272947   5.208   6.214   0.436  0.9644  0.2380 -1.3674
17178TIP3   OH272948   1.099   2.543   2.044 -0.0016  0.4547  0.5222
17178TIP3    H172949   1.103   2.492   2.125  0.7828  0.4586  0.4945
17178TIP3    H272950   1.009   2.575   2.039 -0.2805 -0.2636  0.9516
17179TIP3   OH272951   6.318   5.373  16.981  0.0143  0.1770 -0.3248
17179TIP3    H172952   6.278   5.459  16.994  0.4842  0.3459  0.0066
17179TIP3    H272953   6.401   5.391  16.937  0.9755  0.0506  1.3986
17180TIP3   OH272954   4.177   4.239   3.069  0.0907 -0.6313  0.2846
17180TIP3    H172955   4.174   4.214   2.977 -2.2014  1.9250 -0.3951
17180TIP3    H272956   4.094   4.207   3.106 -0.3412  0.9317  0.7176
17181TIP3   OH272957   3.689   0.599  14.788 -0.4275 -0.7591 -0.0936
17181TIP3    H172958   3.624   0.536  14.759  0.1371  0.0451 -3.3476
17181TIP3    H272959   3.771   0.550  14.791 -0.2571 -0.5602 -1.1834
17182TIP3   OH272960   2.771   2.410   1.816 -0.5814  0.4666  0.3172
17182TIP3    H172961   2.843   2.385   1.873  0.6492 -0.7722 -1.7139
17182TIP3    H272962   2.813   2.461   1.746 -1.6916 -0.0579 -0.7481
17183TIP3   OH272963   2.100   4.646   1.575 -0.2630 -0.1295  0.1604
17183TIP3    H172964   2.182   4.652   1.528  0.5107 -1.7682  1.2451
17183TIP3    H272965   2.108   4.709   1.647 -1.9273  3.2660 -2.4910
17184TIP3   OH272966   4.546   5.399   2.611  0.4013  0.1111  0.2523
17184TIP3    H172967   4.607   5.436   2.675  0.6576  0.4453 -0.1834
17184TIP3    H272968   4.597   5.391   2.531 -0.3772  1.2741 -0.3774
17185TIP3   OH272969   3.756   3.751   5.549 -0.1330  0.0501 -0.2505
17185TIP3    H172970   3.675   3.790   5.583 -0.0759 -1.2999  1.5086
17185TIP3    H272971   3.820   3.765   5.619 -0.0289 -2.8751  0.2908
17186TIP3   OH272972   1.250   5.957   3.113  0.0452 -0.2412  0.5330
17186TIP3    H172973   1.305   5.915   3.180 -0.4528 -0.3833  0.8580
17186TIP3    H272974   1.196   6.020   3.162  0.6558  0.6447  0.0694
17187TIP3   OH272975   0.317   3.550  14.068  0.3750 -0.1857  0.0466
17187TIP3    H172976   0.244   3.508  14.113  0.8189 -0.8726  0.1348
17187TIP3    H272977   0.389   3.547  14.132  1.0419 -1.2759 -0.7344
17188TIP3   OH272978   4.416   2.071   1.313 -0.4241  0.5863 -0.1744
17188TIP3    H172979   4.510   2.085   1.314 -0.3004 -0.2289 -0.3337
17188TIP3    H272980   4.381   2.140   1.370  0.3901 -0.1070  1.1756
17189TIP3   OH272981   4.495   0.671   2.282 -0.1396  0.0280 -0.7732
17189TIP3    H172982   4.433   0.717   2.339  0.7438 -0.3368  0.5042
17189TIP3    H272983   4.566   0.734   2.270  0.6223 -0.6479  0.1887
17190TIP3   OH272984   0.226   3.119  14.535 -0.2664 -0.0692  0.0111
17190TIP3    H172985   0.286   3.187  14.503  1.2632 -0.7246  1.3896
17190TIP3    H272986   0.224   3.054  14.464  2.1841 -0.9441  0.6606
17191TIP3   OH272987   0.597   1.245  14.073 -0.8670 -1.3116 -0.8551
17191TIP3    H172988   0.502   1.232  14.069 -0.9362 -0.5114 -1.6706
17191TIP3    H272989   0.613   1.328  14.030  0.0892 -0.8447  0.3487
17192TIP3   OH272990   0.023   5.690  11.793 -0.6591 -0.2168 -0.0598
17192TIP3    H172991   0.108   5.730  11.779 -0.6151 -0.5727 -0.8322
17192TIP3    H272992  -0.013   5.678  11.705 -1.6499  0.2451  0.2756
17193TIP3   OH272993   0.798   3.261   2.842 -0.5543 -0.2345  0.0951
17193TIP3    H172994   0.884   3.275   2.804 -0.9133 -0.8428 -0.9731
17193TIP3    H272995   0.808   3.284   2.934  0.4414  0.8331 -0.2748
17194TIP3   OH272996   2.843   3.983   1.513 -0.3016  0.2066  0.0078
17194TIP3    H172997   2.898   3.921   1.561 -0.3293  0.9992  1.0806
17194TIP3    H272998   2.888   4.067   1.520 -1.5350  0.8228  0.7304
17195TIP3   OH272999   5.248   3.258  11.450 -0.1760 -0.5752 -0.2858
17195TIP3    H173000   5.296   3.274  11.532  0.0509 -0.4732 -0.4392
17195TIP3    H273001   5.316   3.247  11.384 -0.3129 -2.5404 -0.1331
17196TIP3   OH273002   4.512   0.255   4.108  0.4312  0.2465  0.2970
17196TIP3    H173003   4.553   0.305   4.037  0.3111 -0.7066 -0.4551
17196TIP3    H273004   4.584   0.238   4.169  0.8251 -0.0587 -0.2425
17197TIP3   OH273005   2.791   2.452  13.932 -0.4472  0.6626 -0.4217
17197TIP3    H173006   2.835   2.522  13.981 -0.4611  2.3488 -2.7751
17197TIP3    H273007   2.862   2.407  13.887 -0.7178  0.7836 -0.9651
17198TIP3   OH273008   5.355   5.039   0.531 -0.3330 -0.3470 -0.7022
17198TIP3    H173009   5.419   4.984   0.485 -0.4462 -1.9903  1.0247
17198TIP3    H273010   5.271   4.997   0.514 -0.5354 -0.1774 -0.1298
17199TIP3   OH273011   5.776   6.751   4.445  0.1601 -0.5595  0.1370
17199TIP3    H173012   5.697   6.729   4.396 -0.1762 -1.1593  0.9520
17199TIP3    H273013   5.769   6.845   4.460 -0.2412 -0.5544 -0.0572
17200TIP3   OH273014   6.434   0.415   1.049  0.4341  0.3555 -0.1706
17200TIP3    H173015   6.489   0.487   1.077 -0.6630  0.8729  0.7085
17200TIP3    H273016   6.347   0.437   1.082  0.2275 -1.7342  0.7870
17201TIP3   OH273017   6.639   0.249   4.411 -0.0940 -0.0182 -0.2566
17201TIP3    H173018   6.657   0.340   4.433 -0.0279  0.4320 -2.0948
17201TIP3    H273019   6.690   0.232   4.332  3.0714 -2.8556  2.2128
17202TIP3   OH273020   5.035   1.922   3.597  0.4984 -0.1576  0.5014
17202TIP3    H173021   5.124   1.891   3.582  0.4445 -1.0347  1.8742
17202TIP3    H273022   4.992   1.850   3.643 -0.3065  1.0656  1.7106
17203TIP3   OH273023   6.360   1.123   4.091 -0.2924 -0.0127  0.5554
17203TIP3    H173024   6.445   1.091   4.061 -0.2084 -0.7323  1.5446
17203TIP3    H273025   6.355   1.095   4.182 -0.3873  2.4917  1.3515
17204TIP3   OH273026   2.306   5.392   2.803 -0.1032 -0.1097 -0.2295
17204TIP3    H173027   2.396   5.366   2.818  0.6212  1.8330 -1.0884
17204TIP3    H273028   2.294   5.387   2.708 -1.0581 -0.8875 -0.0719
17205TIP3   OH273029   3.614   2.576  11.642 -0.3318  0.3575 -0.0577
17205TIP3    H173030   3.625   2.571  11.737  0.6094  1.2184 -0.1152
17205TIP3    H273031   3.535   2.524  11.624 -0.1630 -0.3161  1.1207
17206TIP3   OH273032   3.208   5.696  15.281  0.2438 -0.4470 -0.5187
17206TIP3    H173033   3.213   5.716  15.188 -0.5470  0.0549 -0.4527
17206TIP3    H273034   3.274   5.752  15.321  1.7400 -1.8490 -0.9561
17207TIP3   OH273035   5.080   6.129  15.777  0.0236  0.0942 -0.3297
17207TIP3    H173036   5.105   6.061  15.840  0.5332  1.6270  1.1425
17207TIP3    H273037   5.005   6.173  15.816 -0.7537 -0.0444 -1.6102
17208TIP3   OH273038   5.891   0.415  13.772  0.4507 -0.1839 -0.2499
17208TIP3    H173039   5.845   0.456  13.699  1.6461  0.0441 -0.8782
17208TIP3    H273040   5.938   0.488  13.814 -0.4872 -0.2565  0.9374
17209TIP3   OH273041   6.329   4.614   5.089 -0.6021 -0.1857 -0.4347
17209TIP3    H173042   6.303   4.626   4.998 -0.9486  2.1630 -0.0606
17209TIP3    H273043   6.321   4.520   5.104 -1.3133 -0.4941 -2.5889
17210TIP3   OH273044   0.507   6.612  14.909  0.0861  0.0537  0.1599
17210TIP3    H173045   0.474   6.587  14.996 -0.2437 -0.4432 -0.1038
17210TIP3    H273046   0.571   6.681  14.927  0.2704 -0.2808  0.8322
17211TIP3   OH273047   0.588   2.999  16.117  0.2801  0.3242 -0.3892
17211TIP3    H173048   0.500   2.979  16.149  0.8140 -1.8968 -0.1959
17211TIP3    H273049   0.609   3.085  16.155 -1.6453  0.6956 -0.1423
17212TIP3   OH273050   6.642   3.531   0.220 -0.0169  0.2000 -0.0471
17212TIP3    H173051   6.665   3.624   0.221 -2.0502  0.7198  0.6307
17212TIP3    H273052   6.558   3.528   0.174 -1.3793 -0.9482  2.4435
17213TIP3   OH273053   2.556   1.753  14.981 -0.7078 -0.3877 -0.2670
17213TIP3    H173054   2.567   1.677  15.038 -1.0958 -0.5535 -0.4131
17213TIP3    H273055   2.481   1.731  14.926  0.1144 -0.5237 -1.3303
17214TIP3   OH273056   6.651   3.012   4.859  0.0420 -0.4470  0.4513
17214TIP3    H173057   6.632   3.058   4.777  3.5730  1.1277  0.4416
17214TIP3    H273058   6.690   2.929   4.832 -0.5773 -0.7711  0.5397
17215TIP3   OH273059   5.544   5.701   1.638  0.4984  0.3817 -0.1508
17215TIP3    H173060   5.523   5.626   1.583 -0.5597  1.1624 -0.8414
17215TIP3    H273061   5.592   5.664   1.712 -1.2826 -1.1848  0.2604
17216TIP3   OH273062   4.728   2.628   1.491 -0.0110  0.0837  0.2458
17216TIP3    H173063   4.713   2.680   1.412  1.3016  0.3649  0.1666
17216TIP3    H273064   4.652   2.569   1.496 -0.2278  0.2356 -1.0899
17217TIP3   OH273065   5.232   0.957   4.220 -0.0890 -0.2759  0.2007
17217TIP3    H173066   5.168   1.025   4.199 -0.7320 -1.2585 -1.1087
17217TIP3    H273067   5.282   0.945   4.139 -0.3948 -1.7922  0.2244
17218TIP3   OH273068   4.676   4.082   3.636  0.0660  0.3998 -0.3053
17218TIP3    H173069   4.600   4.085   3.578 -0.8904  1.7634  0.9713
17218TIP3    H273070   4.662   4.004   3.690  0.4736 -0.3357 -1.2568
17219TIP3   OH273071   2.462   6.406  11.351 -0.3216 -0.0606  0.3968
17219TIP3    H173072   2.508   6.439  11.429 -1.4308 -0.4521  1.2356
17219TIP3    H273073   2.384   6.363  11.386 -1.0181  0.0735 -0.9625
17220TIP3   OH273074   5.596   4.992   2.666  0.6538  0.3518  0.1158
17220TIP3    H173075   5.534   4.929   2.701  0.2992  0.6556  0.0342
17220TIP3    H273076   5.547   5.074   2.661  1.4261  0.9057  1.2811
17221TIP3   OH273077   2.860   4.803   2.634  0.0981 -0.4140  0.2759
17221TIP3    H173078   2.875   4.892   2.603  1.1115 -0.0672  1.7010
17221TIP3    H273079   2.803   4.763   2.568 -1.0289  1.5374  0.0586
17222TIP3   OH273080   6.457   5.417  11.636  0.2506  0.2280 -0.0858
17222TIP3    H173081   6.403   5.423  11.557  0.1500 -1.0264 -0.1307
17222TIP3    H273082   6.529   5.359  11.611 -0.7957 -1.7319  1.2703
17223TIP3   OH273083   2.897   1.175   2.687 -0.3964 -0.5178  0.9722
17223TIP3    H173084   2.876   1.255   2.735 -0.1062  0.0257  0.1965
17223TIP3    H273085   2.811   1.140   2.661 -0.4320  1.0600 -1.1508
17224TIP3   OH273086   3.262   0.640   5.626  0.0797  0.5143 -0.3728
17224TIP3    H173087   3.348   0.673   5.600  0.6466  0.1962  1.0577
17224TIP3    H273088   3.216   0.628   5.543  1.7123 -0.1366 -1.2291
17225TIP3   OH273089   3.781   2.120   6.226 -0.2549 -0.1656 -0.4514
17225TIP3    H173090   3.848   2.052   6.231  0.0918  0.0002 -2.5862
17225TIP3    H273091   3.831   2.201   6.214 -0.7527  0.2738  0.3520
17226TIP3   OH273092   4.747   1.696  12.642 -0.1823 -0.1734 -0.3232
17226TIP3    H173093   4.683   1.742  12.696  0.0732 -1.1530  0.8320
17226TIP3    H273094   4.795   1.640  12.703 -0.7591 -2.2919 -1.7517
17227TIP3   OH273095   2.103   1.252   5.374  0.1101  0.1638  0.0873
17227TIP3    H173096   2.141   1.268   5.460  0.4233 -1.9096  0.3410
17227TIP3    H273097   2.176   1.263   5.313  0.3843 -0.5282  0.2857
17228TIP3   OH273098   6.279   1.001   4.814 -0.1344 -0.0765 -0.3010
17228TIP3    H173099   6.329   1.078   4.842  0.0542 -0.4322  0.3502
17228TIP3    H273100   6.266   0.951   4.895 -1.0407 -0.2731 -0.5658
17229TIP3   OH273101   0.585   4.239  12.823  0.4154  0.1592  0.0966
17229TIP3    H173102   0.633   4.321  12.835  1.8153 -0.4446 -1.2234
17229TIP3    H273103   0.494   4.266  12.806  0.4360  1.3370  1.8014
17230TIP3   OH273104   4.855   3.966   5.739 -0.4724 -0.4790  0.7901
17230TIP3    H173105   4.771   3.986   5.780 -1.5069 -1.2893 -0.9039
17230TIP3    H273106   4.914   3.948   5.812 -2.0469 -0.9942  1.9429
17231TIP3   OH273107   0.567   5.852   2.999  0.1085  0.0114 -0.0433
17231TIP3    H173108   0.658   5.866   3.026  0.0211  0.8796 -0.1897
17231TIP3    H273109   0.534   5.940   2.980 -0.3346 -0.4367 -1.3581
17232TIP3   OH273110   1.758   2.812   0.045 -0.3717  0.5958  0.1934
17232TIP3    H173111   1.729   2.755  -0.025 -0.6574 -1.5910  2.0376
17232TIP3    H273112   1.683   2.820   0.103  0.4021  0.9526  1.1697
17233TIP3   OH273113   4.766   0.104  15.110  0.4753 -0.2067 -0.4650
17233TIP3    H173114   4.694   0.066  15.060 -0.3555  1.1349 -0.2998
17233TIP3    H273115   4.757   0.066  15.198  0.5774 -0.8125 -0.7135
17234TIP3   OH273116   5.473   5.225  12.288 -0.1537  0.4361 -0.3116
17234TIP3    H173117   5.500   5.138  12.320 -0.4219  0.6790  0.5883
17234TIP3    H273118   5.514   5.232  12.201  0.8846 -0.0892  0.1231
17235TIP3   OH273119   2.120   0.705   3.346 -0.0573 -0.0922 -0.4634
17235TIP3    H173120   2.082   0.667   3.267  1.5166 -0.0967 -1.2498
17235TIP3    H273121   2.144   0.630   3.401 -2.2865 -0.0610  0.5943
17236TIP3   OH273122   2.431   3.784   0.551 -0.1632  0.0406 -0.0306
17236TIP3    H173123   2.354   3.731   0.573 -0.7216 -0.1401 -2.3198
17236TIP3    H273124   2.402   3.841   0.480  1.4542  0.8860 -0.0338
17237TIP3   OH273125   1.765   4.705  15.005  0.0354  0.0273 -0.1253
17237TIP3    H173126   1.851   4.720  15.045  0.6270  1.1646 -1.7948
17237TIP3    H273127   1.709   4.774  15.042  0.1834  0.1071 -0.0493
17238TIP3   OH273128   3.459   0.234   6.497 -0.2743  0.3251  0.3874
17238TIP3    H173129   3.449   0.223   6.402 -1.0935 -1.2656  0.6550
17238TIP3    H273130   3.383   0.285   6.523  0.3363  1.4242  0.1040
17239TIP3   OH273131   4.578   4.337   3.060  0.5040  0.1079  0.2418
17239TIP3    H173132   4.634   4.267   3.026  2.9713  1.4435  1.4374
17239TIP3    H273133   4.587   4.408   2.996  1.0167  0.6995  0.9569
17240TIP3   OH273134   3.949   4.042   5.476  0.0489 -0.0518 -0.6552
17240TIP3    H173135   3.879   4.010   5.420 -1.8082  1.0174  0.9982
17240TIP3    H273136   3.982   3.964   5.522 -0.0833 -0.5415 -1.3951
17241TIP3   OH273137   0.324   1.639  17.199 -0.6579 -0.0276 -0.1693
17241TIP3    H173138   0.366   1.673  17.120 -0.2614 -1.0773 -0.4188
17241TIP3    H273139   0.276   1.713  17.234  1.3076  1.1715  0.0561
17242TIP3   OH273140   3.194   2.759  16.720  0.0310  0.2286 -0.0864
17242TIP3    H173141   3.115   2.715  16.689  0.3483  0.2071 -0.9001
17242TIP3    H273142   3.165   2.846  16.746  0.2929  1.5378 -3.8088
17243TIP3   OH273143   0.956   3.140  11.291 -0.2534 -0.2583  0.2465
17243TIP3    H173144   0.942   3.190  11.210 -0.2266 -1.9946 -0.8571
17243TIP3    H273145   0.875   3.152  11.340 -0.3280  0.6938 -0.0928
17244TIP3   OH273146   5.045   2.829   1.042  0.3095 -0.0700  0.3493
17244TIP3    H173147   5.090   2.895   1.094 -1.3689  1.8645 -0.6031
17244TIP3    H273148   5.050   2.861   0.953 -3.0905  0.2991  0.2449
17245TIP3   OH273149   0.062   3.783  11.396 -0.2528  0.0975 -0.3969
17245TIP3    H173150   0.002   3.849  11.362  1.5784  1.3552 -1.3232
17245TIP3    H273151   0.149   3.821  11.382  0.7280 -1.1587  1.9631
17246TIP3   OH273152   1.481   3.976  12.277 -0.0906  0.0736  0.0335
17246TIP3    H173153   1.394   3.943  12.302  0.3683  0.0419  1.6683
17246TIP3    H273154   1.533   3.966  12.357  1.2215  0.7579 -0.7370
17247TIP3   OH273155   5.320   0.868  13.476 -0.2643  0.1538 -0.1558
17247TIP3    H173156   5.295   0.948  13.431  1.2997 -0.5851 -2.4118
17247TIP3    H273157   5.245   0.809  13.464 -1.4900  1.2998  1.6617
17248TIP3   OH273158   0.121   4.307   1.430 -0.0770  0.4065 -0.7657
17248TIP3    H173159   0.134   4.214   1.448  1.2232  0.4641 -1.3317
17248TIP3    H273160   0.121   4.313   1.334  2.0960  1.2721 -0.7351
17249TIP3   OH273161   0.460   2.506   2.659  0.0296 -0.2638  0.6115
17249TIP3    H173162   0.385   2.566   2.647  0.7424  0.3531 -0.8614
17249TIP3    H273163   0.485   2.518   2.751  0.8214  2.5095  0.0706
17250TIP3   OH273164   5.905   0.295  14.884 -0.0087 -0.2872 -0.3662
17250TIP3    H173165   5.918   0.307  14.790  1.1145 -2.0163 -0.4437
17250TIP3    H273166   5.940   0.376  14.923  0.0113  0.2037 -1.3806
17251TIP3   OH273167   3.681   6.185  16.446 -0.0295 -0.3227 -0.0602
17251TIP3    H173168   3.631   6.263  16.468 -0.5277 -0.2175 -1.4664
17251TIP3    H273169   3.687   6.187  16.350  2.4332 -0.4921  0.0644
17252TIP3   OH273170   1.658   5.331  12.289 -0.6659 -0.4184 -0.2334
17252TIP3    H173171   1.753   5.333  12.295 -0.6178 -1.4139 -0.4998
17252TIP3    H273172   1.628   5.370  12.371 -0.0141 -2.1823  0.8795
17253TIP3   OH273173   5.825   4.218  10.454 -0.1608  0.2317 -0.4198
17253TIP3    H173174   5.766   4.259  10.391 -1.2963 -1.3255 -0.4175
17253TIP3    H273175   5.807   4.263  10.537 -0.2250  0.8255 -0.7609
17254TIP3   OH273176   6.663   2.999  13.463  0.1377  0.2186 -0.1088
17254TIP3    H173177   6.704   2.932  13.408  2.5870  1.0415  0.6172
17254TIP3    H273178   6.571   2.974  13.468  0.7773 -2.4067 -0.8329
17255TIP3   OH273179   2.817   2.204   3.372  0.0351  0.5880  1.0126
17255TIP3    H173180   2.732   2.165   3.392  0.5414 -0.2481  1.5940
17255TIP3    H273181   2.806   2.243   3.285 -0.3696 -1.2949  0.1817
17256TIP3   OH273182   2.927   3.778   2.443  0.3615 -0.3713 -0.5753
17256TIP3    H173183   2.878   3.781   2.525 -0.2518  1.8625 -0.9994
17256TIP3    H273184   2.861   3.773   2.375  0.7122  1.6207 -1.0984
17257TIP3   OH273185   0.410   0.269   3.947  0.2378 -0.7505 -0.3280
17257TIP3    H173186   0.461   0.191   3.927 -0.7565 -1.8582  1.3426
17257TIP3    H273187   0.319   0.245   3.927 -0.3559 -0.7781  2.1488
17258TIP3   OH273188   6.532   4.833   2.933 -0.7271 -0.4864 -0.4296
17258TIP3    H173189   6.444   4.869   2.942  0.9095  3.2077  2.3400
17258TIP3    H273190   6.571   4.883   2.861 -0.6677 -1.6716 -1.2314
17259TIP3   OH273191   3.718   0.103   5.608  0.7006  0.5104  0.4423
17259TIP3    H173192   3.699   0.139   5.695  0.5147  0.6627  0.3400
17259TIP3    H273193   3.635   0.109   5.561  0.3661 -1.1600  0.8051
17260TIP3   OH273194   0.556   0.931  15.007  0.2302  0.3011 -0.3146
17260TIP3    H173195   0.494   0.979  15.063 -1.5941 -0.6807 -1.4644
17260TIP3    H273196   0.620   0.896  15.068 -0.0572  1.7360  0.8580
17261TIP3   OH273197   4.507   0.250   0.297 -0.1600  0.0507  0.8558
17261TIP3    H173198   4.475   0.174   0.249  0.3854 -1.1904  2.4388
17261TIP3    H273199   4.469   0.325   0.250 -1.5380 -1.2177 -0.1090
17262TIP3   OH273200   3.239   3.514   3.126  0.1617  0.4964 -0.1744
17262TIP3    H173201   3.180   3.508   3.201 -1.5138  1.7846 -1.3404
17262TIP3    H273202   3.282   3.429   3.123 -2.1783 -0.7555  0.2860
17263TIP3   OH273203   5.728   3.536   5.620 -0.1785 -0.5232  0.4097
17263TIP3    H173204   5.756   3.496   5.702  0.6020 -0.3025  0.2525
17263TIP3    H273205   5.809   3.554   5.572 -0.5691  0.2803  0.0304
17264TIP3   OH273206   1.154   4.278   0.137  0.6769  0.5065 -0.1105
17264TIP3    H173207   1.069   4.298   0.099  0.2087 -2.1638 -0.5599
17264TIP3    H273208   1.205   4.242   0.064  1.6917  0.6995  0.4945
17265TIP3   OH273209   2.580   6.416   0.170 -0.2579  0.7772 -0.4398
17265TIP3    H173210   2.516   6.380   0.109 -1.6502 -0.4612  1.7156
17265TIP3    H273211   2.535   6.418   0.254  3.0333 -1.7189  1.5148
17266TIP3   OH273212   4.391   5.771  15.189 -0.5732 -0.0262  0.0819
17266TIP3    H173213   4.371   5.843  15.129  0.4660  0.5170  0.3776
17266TIP3    H273214   4.382   5.692  15.136 -0.0593  0.4249 -0.6825
17267TIP3   OH273215   0.321   4.167  15.716  0.0852 -0.0348 -0.2229
17267TIP3    H173216   0.311   4.072  15.730 -1.2215 -0.1994 -2.0733
17267TIP3    H273217   0.238   4.204  15.746 -0.0689  0.3381 -1.1020
17268TIP3   OH273218   4.684   6.597  12.169 -0.4040  0.1275 -0.1363
17268TIP3    H173219   4.611   6.615  12.109 -1.2961  1.6387  1.3542
17268TIP3    H273220   4.643   6.552  12.243 -0.4732  3.8437  2.2148
17269TIP3   OH273221   0.230   4.308   3.155  0.0775  0.0355  0.0641
17269TIP3    H173222   0.202   4.341   3.240 -0.1689  0.7248 -0.2787
17269TIP3    H273223   0.188   4.366   3.091  1.8501  0.7652 -0.4710
17270TIP3   OH273224   0.287   5.479  11.929 -0.0178  0.1797 -0.2464
17270TIP3    H173225   0.335   5.549  11.885  0.4145 -0.5504 -0.9453
17270TIP3    H273226   0.199   5.482  11.891 -0.1164  0.5756 -0.0004
17271TIP3   OH273227   3.875   3.424   0.382  0.8924 -0.3333  0.5789
17271TIP3    H173228   3.920   3.396   0.462  0.6247 -0.5666  0.6504
17271TIP3    H273229   3.815   3.493   0.410  0.6137 -0.5901  0.6287
17272TIP3   OH273230   4.367   2.824  15.144  0.5085  0.2715 -0.0379
17272TIP3    H173231   4.415   2.771  15.207  0.8394 -0.0493 -0.5593
17272TIP3    H273232   4.368   2.912  15.182  0.4089  0.0144  0.5716
17273TIP3   OH273233   2.413   2.487  11.881  0.5416 -0.5207 -0.6254
17273TIP3    H173234   2.418   2.393  11.893 -0.9635 -0.5988 -0.4987
17273TIP3    H273235   2.321   2.509  11.897  1.0150  1.0666  0.0849
17274TIP3   OH273236   1.276   0.117   4.270  0.3326 -0.2600  0.4539
17274TIP3    H173237   1.273   0.025   4.297  0.0537 -0.9053 -1.6688
17274TIP3    H273238   1.347   0.120   4.206 -0.1335  0.8588 -0.0057
17275TIP3   OH273239   6.717   4.158  12.242  0.1176 -0.3521 -0.3905
17275TIP3    H173240   6.732   4.231  12.301  0.7595 -0.4204 -0.4641
17275TIP3    H273241   6.628   4.172  12.207  0.0709  0.1422 -0.0678
17276TIP3   OH273242   5.962   5.164  16.957 -0.0986 -0.3136  0.3543
17276TIP3    H173243   5.973   5.212  17.039  1.5181 -0.1057  0.0368
17276TIP3    H273244   6.013   5.214  16.893 -0.6801 -0.9226 -0.5945
17277TIP3   OH273245   3.467   5.887  11.997  0.2286  0.8477 -0.0568
17277TIP3    H173246   3.539   5.903  11.936 -0.6645  0.3118 -1.2829
17277TIP3    H273247   3.390   5.922  11.952 -0.5250 -0.0367  0.5333
17278TIP3   OH273248   0.904   1.789   3.181 -0.2779  0.0483  0.5833
17278TIP3    H173249   0.954   1.804   3.262  0.6886  1.4442 -0.2582
17278TIP3    H273250   0.943   1.711   3.144  0.8472  0.7379  0.2850
17279TIP3   OH273251   0.109   3.631   2.224 -0.0951 -0.2185  0.5322
17279TIP3    H173252   0.173   3.632   2.153  0.8233 -0.1156  1.3474
17279TIP3    H273253   0.155   3.672   2.298 -1.2665  0.3130  0.9825
17280TIP3   OH273254   2.640   3.143  16.483  0.0124 -0.1440 -0.3244
17280TIP3    H173255   2.581   3.198  16.431  0.0092  0.8956  0.7707
17280TIP3    H273256   2.728   3.170  16.455  0.0206  0.9724  0.7881
17281TIP3   OH273257   1.491   0.616  14.280  0.2229 -0.1685 -0.3274
17281TIP3    H173258   1.525   0.570  14.356  0.0992  0.9776  0.4339
17281TIP3    H273259   1.403   0.643  14.306 -0.8798 -2.0680 -1.8401
17282TIP3   OH273260   1.488   4.053  17.176  0.7212  0.5755  0.0026
17282TIP3    H173261   1.485   3.999  17.097  1.0264 -0.8843  0.9608
17282TIP3    H273262   1.397   4.058  17.206  0.5192  1.6586 -0.7866
17283TIP3   OH273263   4.865   4.372  14.027 -0.1183 -0.6878  0.0314
17283TIP3    H173264   4.884   4.459  13.992 -0.8152 -0.6213 -0.1789
17283TIP3    H273265   4.811   4.389  14.105 -0.1894 -0.9308  0.0347
17284TIP3   OH273266   4.100   1.181   5.177  0.1342 -0.1883 -0.4352
17284TIP3    H173267   4.185   1.183   5.222  0.2213 -0.2318 -0.5958
17284TIP3    H273268   4.058   1.263   5.201 -0.7880 -1.2192  1.5852
17285TIP3   OH273269   3.087   2.549   3.303 -0.6308  0.1670  0.1319
17285TIP3    H173270   3.178   2.523   3.289 -0.5098  0.6897 -0.0579
17285TIP3    H273271   3.059   2.585   3.218 -0.2347  2.3487  0.8864
17286TIP3   OH273272   0.556   4.471   5.255  0.5645  0.0061  0.1634
17286TIP3    H173273   0.521   4.382   5.257  0.0524  0.1851 -0.5174
17286TIP3    H273274   0.510   4.513   5.182  0.3161  1.0316  0.8981
17287TIP3   OH273275   4.167   4.059   4.418 -0.3686  0.4878  0.5190
17287TIP3    H173276   4.113   3.983   4.441 -0.1676 -0.0820 -0.8726
17287TIP3    H273277   4.236   4.059   4.484  0.8082 -1.7802 -0.6455
17288TIP3   OH273278   3.963   2.317  17.069 -0.2325  0.1038 -0.0377
17288TIP3    H173279   3.966   2.293  17.161 -0.1305  1.2081  0.2605
17288TIP3    H273280   3.879   2.281  17.038 -1.0091  1.0703  0.8881
17289TIP3   OH273281   6.270   3.897   5.370  0.1080  0.0524  0.5033
17289TIP3    H173282   6.192   3.842   5.367 -1.3514  2.0886 -0.4040
17289TIP3    H273283   6.339   3.843   5.332 -1.6249 -0.6585 -1.7703
17290TIP3   OH273284   3.576   4.094  17.218 -0.2525  0.0777 -0.2653
17290TIP3    H173285   3.535   4.079  17.303  2.6529 -2.1003  0.8304
17290TIP3    H273286   3.622   4.178  17.228  0.1976 -0.2456  0.3366
17291TIP3   OH273287   3.180   5.198   4.510  0.1379 -0.2367  0.7938
17291TIP3    H173288   3.272   5.223   4.504  0.0801 -0.3847 -1.1720
17291TIP3    H273289   3.166   5.176   4.602  1.3727  2.4561  1.6749
17292TIP3   OH273290   0.823   2.728  12.750  0.2780 -0.0817  0.3333
17292TIP3    H173291   0.837   2.716  12.844  0.0030  2.2771  0.7041
17292TIP3    H273292   0.734   2.693  12.735 -0.2868  0.9326  1.2446
17293TIP3   OH273293   0.517   3.903  15.515  0.3527 -0.9994  0.2730
17293TIP3    H173294   0.498   3.917  15.422 -0.8542 -0.2080  0.6201
17293TIP3    H273295   0.590   3.962  15.533 -0.7886  0.4283  0.3089
17294TIP3   OH273296   6.685   2.547   4.232  0.1700 -0.7690 -0.0476
17294TIP3    H173297   6.757   2.525   4.291  0.1850 -0.0233  0.2124
17294TIP3    H273298   6.644   2.624   4.271  0.3454 -0.1015 -1.1472
17295TIP3   OH273299   0.392   1.224  14.440  0.0918  0.1181 -0.3628
17295TIP3    H173300   0.390   1.130  14.422 -1.4267  0.1878 -0.6510
17295TIP3    H273301   0.484   1.244  14.456  0.4757 -1.3405 -0.7083
17296TIP3   OH273302   4.068   2.834  12.623  0.0103  0.4810 -0.4629
17296TIP3    H173303   4.150   2.821  12.576 -0.0767  1.2520 -0.8244
17296TIP3    H273304   4.095   2.865  12.710  0.1153  0.4147 -0.4714
17297TIP3   OH273305   6.331   2.987  15.898  0.0859  0.3517  0.4127
17297TIP3    H173306   6.313   3.056  15.962  0.3719  1.0375 -0.2372
17297TIP3    H273307   6.291   3.019  15.817  0.9413  0.1297 -0.0959
17298TIP3   OH273308   0.090   5.511  17.037 -0.1635 -0.4667 -0.5046
17298TIP3    H173309   0.064   5.421  17.015  0.4649 -0.9585  0.6820
17298TIP3    H273310   0.168   5.526  16.985 -0.6037 -0.3867 -1.1548
17299TIP3   OH273311   2.618   0.293  16.377 -0.7436  0.5748  0.2199
17299TIP3    H173312   2.693   0.300  16.437 -2.3909  0.8267  2.3137
17299TIP3    H273313   2.628   0.208  16.336  1.1915  0.9864 -0.2396
17300TIP3   OH273314   5.080   2.988  16.746 -0.9882 -0.0641 -0.0793
17300TIP3    H173315   5.124   3.050  16.687 -0.5111 -1.2185 -0.9725
17300TIP3    H273316   5.046   2.921  16.687 -2.9979  0.2346  0.7160
17301TIP3   OH273317   0.976   5.831   1.762  0.3487  0.6602 -0.5299
17301TIP3    H173318   0.891   5.848   1.803 -0.3004 -1.0049 -1.1166
17301TIP3    H273319   1.035   5.811   1.835 -0.4736 -1.0104 -0.3124
17302TIP3   OH273320   3.436   2.474   4.999 -1.1644  0.3817  0.4716
17302TIP3    H173321   3.499   2.412   4.963 -1.9773  0.6170 -1.3958
17302TIP3    H273322   3.413   2.438   5.085  1.1636  0.0669  1.0158
17303TIP3   OH273323   1.697   6.037   3.447  0.3766 -0.7370 -0.3812
17303TIP3    H173324   1.679   6.126   3.417  2.1939  0.0695  0.8376
17303TIP3    H273325   1.704   5.986   3.366  0.3673  0.4421 -1.1367
17304TIP3   OH273326   3.556   4.838  16.822 -0.3297 -0.3907 -0.2977
17304TIP3    H173327   3.538   4.753  16.782 -0.3775 -0.7959  0.5780
17304TIP3    H273328   3.469   4.873  16.842 -0.2584 -1.2220  1.5879
17305TIP3   OH273329   0.393   0.889   4.365  0.1877  0.3505  0.1271
17305TIP3    H173330   0.464   0.833   4.335  1.5698  1.4846  1.2372
17305TIP3    H273331   0.325   0.880   4.297  0.4800 -2.4193  0.1539
17306TIP3   OH273332   0.764   5.274  12.862 -0.0041 -0.4589  0.7355
17306TIP3    H173333   0.858   5.269  12.844 -0.0419 -3.3793  1.1163
17306TIP3    H273334   0.755   5.347  12.923  1.9441  0.2093  0.2661
17307TIP3   OH273335   4.296   4.942   6.022  0.0970  0.3343  1.1999
17307TIP3    H173336   4.225   4.964   6.082 -1.2389 -0.8049  0.0661
17307TIP3    H273337   4.312   5.021   5.972 -1.1286  0.2736  0.7050
17308TIP3   OH273338   2.530   1.115  14.298  0.3662  0.4035 -0.2818
17308TIP3    H173339   2.509   1.154  14.214  1.1588  2.0191  0.2528
17308TIP3    H273340   2.612   1.157  14.325 -0.4519  0.7267  1.8122
17309TIP3   OH273341   0.952   3.769  12.503 -0.1114  0.1038  0.4011
17309TIP3    H173342   0.921   3.679  12.489  0.5933 -0.1028  0.1799
17309TIP3    H273343   1.010   3.787  12.429  0.5425  0.3856  0.9751
17310TIP3   OH273344   3.376   3.794  13.554  0.0293 -0.2274 -0.3570
17310TIP3    H173345   3.295   3.841  13.575  0.0085  0.2108 -1.3898
17310TIP3    H273346   3.375   3.787  13.459  1.2853 -0.0792 -0.3877
17311TIP3   OH273347   0.979   4.390   3.008 -0.2143  0.3377  0.9469
17311TIP3    H173348   0.914   4.407   3.076 -1.0862  1.9821 -0.2410
17311TIP3    H273349   0.927   4.371   2.930  0.7651 -1.9913  0.8201
17312TIP3   OH273350   0.197   4.141   0.969 -0.3909  0.1812  0.1224
17312TIP3    H173351   0.258   4.070   0.952 -0.5806  0.0962 -0.2231
17312TIP3    H273352   0.111   4.098   0.974 -0.5708  0.4393 -0.5847
17313TIP3   OH273353   6.770   4.059  15.316 -0.3181  0.5933 -0.1033
17313TIP3    H173354   6.763   4.039  15.222 -2.1861 -1.2995  0.3978
17313TIP3    H273355   6.855   4.025  15.342 -0.2146  0.2246 -0.9113
17314TIP3   OH273356   4.806   6.328   3.421 -0.2962 -0.6414 -0.0218
17314TIP3    H173357   4.771   6.258   3.476  1.1165 -2.2571 -1.1471
17314TIP3    H273358   4.788   6.300   3.332 -0.1938  0.6893 -0.4687
17315TIP3   OH273359   6.769   2.208  17.168  0.1292 -0.1303  0.0363
17315TIP3    H173360   6.853   2.163  17.155 -0.0145 -0.0466 -1.2204
17315TIP3    H273361   6.729   2.211  17.081 -2.1730 -2.1129  0.9688
17316TIP3   OH273362   4.691   4.940  15.674 -0.1310 -0.3533 -0.1029
17316TIP3    H173363   4.620   4.918  15.614  0.6598 -2.8386 -0.1719
17316TIP3    H273364   4.750   4.995  15.621 -0.5588 -0.6518 -0.9064
17317TIP3   OH273365   0.237   5.995  14.911 -0.0704 -0.8413  0.0329
17317TIP3    H173366   0.160   5.996  14.854 -0.2641 -0.3719  0.2930
17317TIP3    H273367   0.266   6.086  14.914  0.7053 -1.0741 -0.3366
17318TIP3   OH273368   3.866   2.098  16.592  0.2617 -0.3601 -0.0738
17318TIP3    H173369   3.879   2.090  16.498  2.1103  0.6412  0.0685
17318TIP3    H273370   3.877   2.009  16.626 -0.0701 -0.6648 -0.7504
17319TIP3   OH273371   4.300   0.542  17.203 -0.4009 -0.6737  0.1016
17319TIP3    H173372   4.274   0.479  17.137 -0.7868  0.5463 -0.9181
17319TIP3    H273373   4.266   0.626  17.172  0.3358  0.0884  1.2972
17320TIP3   OH273374   5.350   5.004   3.075 -0.2168  0.5765 -0.7320
17320TIP3    H173375   5.308   5.070   3.020 -3.2473 -0.3074  0.4090
17320TIP3    H273376   5.278   4.950   3.107  1.9172 -1.6333  0.5578
17321TIP3   OH273377   3.164   6.022   6.086 -0.3180  0.2638  0.0356
17321TIP3    H173378   3.213   5.940   6.097 -0.1539  0.2543 -0.7798
17321TIP3    H273379   3.210   6.085   6.141  0.6709  0.2820 -0.8214
17322TIP3   OH273380   1.598   4.929  14.236 -0.2332  0.0879  0.1486
17322TIP3    H173381   1.536   4.928  14.163  2.7062 -1.1995 -2.4534
17322TIP3    H273382   1.584   4.846  14.281 -0.1835 -0.3501 -0.6390
17323TIP3   OH273383   1.753   1.029   1.282 -0.5746 -0.1028 -0.5686
17323TIP3    H173384   1.670   1.048   1.239 -0.5601 -0.6394 -0.8398
17323TIP3    H273385   1.813   1.007   1.210 -0.2437  0.1170 -0.3629
17324TIP3   OH273386   2.174   2.037   2.783  0.0268  0.3983  0.7740
17324TIP3    H173387   2.246   2.087   2.745 -0.7153  1.8588  1.2384
17324TIP3    H273388   2.211   1.994   2.859  0.9517 -0.6725 -0.2589
17325TIP3   OH273389   4.719   2.840   5.806 -0.3072  0.0133 -0.4285
17325TIP3    H173390   4.629   2.810   5.813  0.9729 -3.9754  0.9789
17325TIP3    H273391   4.760   2.777   5.746  1.8940  0.7058  0.2874
17326TIP3   OH273392   3.187   1.922  10.842 -0.7890 -0.4454  0.2110
17326TIP3    H173393   3.105   1.963  10.814 -0.2793  0.2790 -0.2312
17326TIP3    H273394   3.238   1.914  10.761  1.0324  2.4204  1.0173
17327TIP3   OH273395   3.076   6.294  11.576 -0.4524  0.1462  0.1064
17327TIP3    H173396   3.045   6.367  11.630 -0.3096  0.9723 -0.9158
17327TIP3    H273397   3.171   6.307  11.572 -0.5078  0.3227 -0.6750
17328TIP3   OH273398   3.703   3.792   2.478  0.0031  0.0087 -0.0641
17328TIP3    H173399   3.654   3.820   2.400 -0.8933 -1.2828  0.0192
17328TIP3    H273400   3.782   3.751   2.442  0.0651  0.3079 -0.2694
17329TIP3   OH273401   4.645   0.105  11.026  0.1340 -0.1222 -0.1216
17329TIP3    H173402   4.586   0.030  11.020 -0.7817  0.5937 -0.1434
17329TIP3    H273403   4.689   0.108  10.942  0.9620 -1.2783  0.2602
17330TIP3   OH273404   5.741   2.167  16.298  0.2098 -0.3935  0.5080
17330TIP3    H173405   5.757   2.234  16.364 -0.6571  0.9165 -0.5706
17330TIP3    H273406   5.683   2.104  16.342  2.6778 -1.5756  2.1932
17331TIP3   OH273407   3.857   4.861  14.127 -0.0667  0.2267  0.7767
17331TIP3    H173408   3.906   4.925  14.074  0.0266 -0.0540  0.5223
17331TIP3    H273409   3.924   4.805  14.165  0.0062  1.5999  2.7560
17332TIP3   OH273410   2.629   6.752  12.055 -0.0416 -0.9101  0.6407
17332TIP3    H173411   2.556   6.781  12.109  1.4544  0.3033  2.0598
17332TIP3    H273412   2.707   6.774  12.106  1.3130 -2.2807 -0.7922
17333TIP3   OH273413   2.199   6.003   1.768  0.3310  0.2996  0.3910
17333TIP3    H173414   2.233   6.016   1.679  1.4307 -2.3512  0.3634
17333TIP3    H273415   2.270   6.031   1.825  0.4108  0.0795  0.4010
17334TIP3   OH273416   2.996   6.039  15.828  0.1808 -0.5168  0.0899
17334TIP3    H173417   3.052   6.101  15.875 -2.3523  1.1186  1.0266
17334TIP3    H273418   2.953   5.988  15.896  0.6565 -1.8913 -0.6253
17335TIP3   OH273419   4.665   5.079  11.236 -0.9903  0.4519  0.4928
17335TIP3    H173420   4.642   5.061  11.327 -0.3511 -0.5760  0.4603
17335TIP3    H273421   4.582   5.069  11.189 -1.0562 -0.3744  0.7764
17336TIP3   OH273422   1.842   2.026  11.531 -0.2482  0.2079  0.4579
17336TIP3    H173423   1.806   1.949  11.488  1.8981  0.0316 -1.0682
17336TIP3    H273424   1.899   1.991  11.599  0.7046  0.4425 -0.2165
17337TIP3   OH273425   4.484   1.060  15.266  0.9507 -0.7338 -0.4911
17337TIP3    H173426   4.451   1.122  15.332  1.3283 -1.3463  0.2730
17337TIP3    H273427   4.579   1.069  15.269  1.0141 -1.4619 -0.2766
17338TIP3   OH273428   3.744   1.988  12.819 -0.0730 -0.1520 -0.6276
17338TIP3    H173429   3.686   2.043  12.765 -0.7987 -0.0660  0.2274
17338TIP3    H273430   3.831   2.025  12.806 -0.6457  1.6503  0.4577
17339TIP3   OH273431   5.186   1.812  13.964 -0.3144  0.6248 -0.6265
17339TIP3    H173432   5.115   1.749  13.979  0.6417 -0.5221 -0.8372
17339TIP3    H273433   5.263   1.758  13.948  0.8521  1.8456  0.6806
17340TIP3   OH273434   2.161   3.892  14.242  0.0440  0.5193  0.0068
17340TIP3    H173435   2.132   3.810  14.282  1.9128 -0.0175  0.3005
17340TIP3    H273436   2.161   3.955  14.313  1.0354  0.1425  0.3601
17341TIP3   OH273437   2.654   6.262   4.413  0.0547 -0.3114 -0.4197
17341TIP3    H173438   2.742   6.273   4.449 -0.4229 -0.3490  0.8108
17341TIP3    H273439   2.620   6.184   4.457  0.0281 -1.3037 -2.1667
17342TIP3   OH273440   2.867   1.900   5.086  0.3611 -0.1144  0.2773
17342TIP3    H173441   2.784   1.879   5.042  1.7547 -1.7062 -1.6996
17342TIP3    H273442   2.886   1.990   5.058 -0.0032 -0.2406 -0.3997
17343TIP3   OH273443   0.483   1.043  11.183  0.0098 -0.4931 -0.0729
17343TIP3    H173444   0.446   0.957  11.200 -0.4584 -0.1822  0.4714
17343TIP3    H273445   0.419   1.086  11.126  0.1488 -0.4316 -0.1838
17344TIP3   OH273446   3.785   3.688  14.880  0.3838  0.4221  0.3721
17344TIP3    H173447   3.855   3.627  14.859  0.9019  1.1548 -0.0256
17344TIP3    H273448   3.713   3.663  14.822  0.3470 -0.2505  0.6974
17345TIP3   OH273449   6.440   6.298  12.101 -0.0672  0.0477  0.1832
17345TIP3    H173450   6.531   6.308  12.073  0.1287 -1.5281  0.2165
17345TIP3    H273451   6.439   6.330  12.191  0.4834 -0.0167  0.2145
17346TIP3   OH273452   1.337   1.325   5.977  0.1424  0.1486  0.0808
17346TIP3    H173453   1.430   1.320   5.996  0.1766  0.0406 -0.1112
17346TIP3    H273454   1.302   1.386   6.042  0.1497 -0.7201  0.9192
17347TIP3   OH273455   6.074   4.704   5.677  0.5096 -0.0255  1.2564
17347TIP3    H173456   6.123   4.783   5.697  1.2094  0.4092 -1.8656
17347TIP3    H273457   5.992   4.737   5.639  1.2726 -0.7520 -1.0964
17348TIP3   OH273458   3.272   6.056   1.840 -0.3470  0.1237  0.0755
17348TIP3    H173459   3.195   6.082   1.789 -0.1304  0.7476  0.0610
17348TIP3    H273460   3.331   6.131   1.833  1.2511 -1.2680 -1.8760
17349TIP3   OH273461   3.781   3.068  16.521 -0.2655 -0.4206 -0.2156
17349TIP3    H173462   3.829   3.148  16.540  1.2564 -1.0941 -1.1292
17349TIP3    H273463   3.713   3.063  16.589  1.7203 -0.0665  1.8300
17350TIP3   OH273464   4.783   1.863  14.144  0.4559 -0.0158  0.0775
17350TIP3    H173465   4.809   1.922  14.073  0.1273 -1.7146 -1.4925
17350TIP3    H273466   4.808   1.776  14.113  1.1764 -0.6947  2.4651
17351TIP3   OH273467   0.719   4.587   5.631 -0.3460  0.0529  0.1631
17351TIP3    H173468   0.782   4.587   5.703  1.9113  0.4646 -1.7916
17351TIP3    H273469   0.704   4.679   5.612  0.8933 -0.0562 -1.4475
17352TIP3   OH273470   5.725   2.133   4.363 -0.7511  0.1631  0.0293
17352TIP3    H173471   5.797   2.148   4.301  0.0038 -1.2505  0.5368
17352TIP3    H273472   5.671   2.211   4.356 -1.2461 -0.3778 -3.1787
17353TIP3   OH273473   4.432   6.352   5.975 -0.1179 -0.4223  0.1356
17353TIP3    H173474   4.425   6.371   6.068  0.9987  2.0950 -0.2667
17353TIP3    H273475   4.423   6.257   5.969 -3.6027 -0.3223  2.4549
17354TIP3   OH273476   5.578   1.133   2.006 -0.3284 -0.5197  0.4395
17354TIP3    H173477   5.488   1.138   1.975  0.5551  0.6031 -2.0954
17354TIP3    H273478   5.609   1.047   1.976  0.1936  0.1198 -0.8819
17355TIP3   OH273479   6.057   1.374   1.051 -0.8664 -0.7221  0.6692
17355TIP3    H173480   6.039   1.283   1.027 -1.4205 -0.0217 -1.6172
17355TIP3    H273481   5.971   1.414   1.060 -0.5931  0.0674 -0.2118
17356TIP3   OH273482   2.635   4.221   4.540  0.2576  0.5204  0.9229
17356TIP3    H173483   2.709   4.204   4.481  0.1937  1.1169  0.6631
17356TIP3    H273484   2.656   4.305   4.581  0.1783  0.2316  1.5656
17357TIP3   OH273485   3.389   5.751  13.385  0.1233 -0.5538 -0.0199
17357TIP3    H173486   3.346   5.736  13.469 -0.7991  1.0439 -0.2019
17357TIP3    H273487   3.482   5.754  13.407 -0.0730 -0.6632  0.8544
17358TIP3   OH273488   2.681   1.198   0.198 -0.0004 -0.4339 -0.4968
17358TIP3    H173489   2.587   1.215   0.206  0.4439  1.3247  1.5675
17358TIP3    H273490   2.693   1.169   0.107 -2.3387  0.5890 -1.1709
17359TIP3   OH273491   0.867   2.662  11.732  0.5681  0.3794 -0.0099
17359TIP3    H173492   0.888   2.669  11.639 -2.4663 -1.1641 -0.8486
17359TIP3    H273493   0.852   2.752  11.761 -0.8420  0.6570 -1.5922
17360TIP3   OH273494   3.414   1.573  13.112  0.0246  0.1810 -0.7502
17360TIP3    H173495   3.455   1.506  13.057 -1.4952 -0.5122 -1.0761
17360TIP3    H273496   3.475   1.646  13.109  1.1289 -0.7361 -1.3909
17361TIP3   OH273497   6.263   4.695   3.469 -0.1101 -0.3160  0.4483
17361TIP3    H173498   6.232   4.651   3.390  0.0930 -0.5082  0.4758
17361TIP3    H273499   6.355   4.672   3.475  0.4381  1.4878 -0.4814
17362TIP3   OH273500   5.715   1.894   0.471 -0.0457 -0.3126 -0.5666
17362TIP3    H173501   5.790   1.948   0.496 -0.3031  0.7274 -1.9344
17362TIP3    H273502   5.734   1.808   0.507  0.5966  0.5744  1.2653
17363TIP3   OH273503   4.139   5.088   0.599 -0.1659  0.0122 -0.1073
17363TIP3    H173504   4.175   5.144   0.667 -0.1363 -1.1101  0.8073
17363TIP3    H273505   4.156   5.136   0.517  2.5085  0.0036  0.3778
17364TIP3   OH273506   6.573   0.082  14.698  0.1222  0.3371  0.4744
17364TIP3    H173507   6.662   0.050  14.688  0.7819  2.3786 -0.4862
17364TIP3    H273508   6.519   0.003  14.699  1.8508 -0.8784  0.2074
17365TIP3   OH273509   1.954   6.247   0.897  0.5497 -0.2696 -0.6261
17365TIP3    H173510   1.955   6.323   0.839  2.6451 -0.4034 -0.8080
17365TIP3    H273511   2.000   6.178   0.849  0.4453 -1.0444  0.3444
17366TIP3   OH273512   3.239   6.212   3.333 -0.5689 -0.5994 -0.0144
17366TIP3    H173513   3.197   6.291   3.300  1.2749  0.0785 -0.7452
17366TIP3    H273514   3.281   6.238   3.414 -2.0489 -1.4365  1.0621
17367TIP3   OH273515   0.601   6.281   2.176  0.2871  0.9603 -0.3285
17367TIP3    H173516   0.685   6.242   2.151 -0.1082  0.1833 -0.4598
17367TIP3    H273517   0.549   6.278   2.096  0.0493  1.2202 -0.1823
17368TIP3   OH273518   4.327   0.997  12.655 -0.2992 -0.4589 -0.5455
17368TIP3    H173519   4.390   1.020  12.587  0.4320 -0.2262  0.1950
17368TIP3    H273520   4.378   0.948  12.719 -0.1061  2.4395  1.6371
17369TIP3   OH273521   6.380   2.196  14.115 -0.2636 -1.1081  0.2730
17369TIP3    H173522   6.408   2.106  14.130 -0.3985 -1.1594  0.2220
17369TIP3    H273523   6.400   2.242  14.197 -0.2485 -1.1984  0.3194
17370TIP3   OH273524   5.898   0.120  13.157 -0.3668 -0.1070 -0.2270
17370TIP3    H173525   5.928   0.126  13.248 -0.6480  1.5163 -0.2237
17370TIP3    H273526   5.963   0.169  13.107 -0.2893 -0.8764 -0.8947
17371TIP3   OH273527   4.704   5.713   1.758  0.1800 -0.1351  0.4617
17371TIP3    H173528   4.680   5.636   1.706 -1.8552 -0.0024  1.1753
17371TIP3    H273529   4.695   5.684   1.849 -1.1357  1.1076  0.7351
17372TIP3   OH273530   0.209   5.944   0.684 -0.1342  0.0031  0.1892
17372TIP3    H173531   0.220   6.037   0.662  0.9673 -0.2111 -0.2002
17372TIP3    H273532   0.125   5.940   0.728  0.3384  1.3808  1.2519
17373TIP3   OH273533   0.458   2.898  15.003  0.2441 -0.5282 -0.3070
17373TIP3    H173534   0.447   2.954  15.080  0.5273  0.4943 -1.0008
17373TIP3    H273535   0.552   2.879  15.002  0.1120 -1.2125  0.0580
17374TIP3   OH273536   4.973   5.577  11.188 -0.2901  0.0518  0.0302
17374TIP3    H173537   4.978   5.529  11.105  0.9636  2.3967 -1.2931
17374TIP3    H273538   5.064   5.586  11.216 -0.6327  0.2218  1.1034
17375TIP3   OH273539   1.768   2.398  17.072  0.5905  0.0754  0.4145
17375TIP3    H173540   1.760   2.434  16.984  1.1640 -1.6765 -0.3807
17375TIP3    H273541   1.844   2.340  17.067 -2.1806 -3.7511  0.7492
17376TIP3   OH273542   4.412   1.056  11.301 -0.0994 -0.2554 -0.1324
17376TIP3    H173543   4.403   1.045  11.206  0.9836 -4.9148  0.2272
17376TIP3    H273544   4.498   1.097  11.312 -0.6953  1.3656 -1.1428
17377TIP3   OH273545   2.187   3.911  11.384  0.3407 -0.1831 -0.1045
17377TIP3    H173546   2.105   3.950  11.414  0.2413 -0.0145 -0.5964
17377TIP3    H273547   2.254   3.953  11.438  0.5162  2.6739 -2.4209
17378TIP3   OH273548   1.496   5.208   2.196 -0.1416  0.1571 -0.9854
17378TIP3    H173549   1.406   5.237   2.201 -0.7633 -1.6443 -1.2046
17378TIP3    H273550   1.492   5.113   2.211  1.8212  0.2024  0.0725
17379TIP3   OH273551   5.972   6.198   0.461  0.6584 -0.1341 -0.0808
17379TIP3    H173552   6.013   6.279   0.490 -1.0916  0.3777  1.0348
17379TIP3    H273553   5.884   6.200   0.499  0.0066 -1.7632 -1.4176
17380TIP3   OH273554   5.016   3.539  12.937 -0.6838 -0.3628 -0.2865
17380TIP3    H173555   4.964   3.463  12.965 -0.3137 -0.8900 -1.0427
17380TIP3    H273556   4.982   3.561  12.851  0.9162 -1.2299 -1.1507
17381TIP3   OH273557   2.020   1.576   0.151 -0.1676 -0.2119  0.1827
17381TIP3    H173558   1.979   1.493   0.175 -0.7109 -0.3153 -1.0422
17381TIP3    H273559   2.077   1.554   0.077  2.1933 -0.0856  1.8988
17382TIP3   OH273560   6.662   4.998   4.986 -0.2785 -0.7890 -0.7727
17382TIP3    H173561   6.748   5.006   5.026 -0.1358  1.6222 -1.4767
17382TIP3    H273562   6.623   4.919   5.026  0.6319  0.3854  2.5557
17383TIP3   OH273563   5.801   2.010   6.235  0.8623 -0.3576  0.1166
17383TIP3    H173564   5.739   2.002   6.308  2.5434 -1.9025  1.4360
17383TIP3    H273565   5.764   1.955   6.166 -0.4786  0.7068 -0.0269
17384TIP3   OH273566   6.428   4.402  11.774  0.4514 -0.0008  0.1537
17384TIP3    H173567   6.429   4.477  11.833 -3.3305 -0.6385  1.1661
17384TIP3    H273568   6.473   4.333  11.823 -2.4785 -0.4664  2.3126
17385TIP3   OH273569   1.298   1.710   4.650 -0.1096 -0.6433  0.2903
17385TIP3    H173570   1.224   1.734   4.706  0.2905  1.0762  0.1188
17385TIP3    H273571   1.261   1.703   4.562  0.0467  0.9573  0.0807
17386TIP3   OH273572   2.569   4.413  15.218 -0.2822 -0.0407  0.7390
17386TIP3    H173573   2.576   4.445  15.128  0.6596  1.1301  1.2224
17386TIP3    H273574   2.474   4.402  15.231 -0.3846 -0.8442 -0.6011
17387TIP3   OH273575   5.171   4.364   3.942 -0.1975 -0.2226  0.3360
17387TIP3    H173576   5.224   4.434   3.904  0.4973  0.9648  3.3250
17387TIP3    H273577   5.108   4.341   3.874  1.5450  1.1703 -1.8046
17388TIP3   OH273578   5.608   2.832   1.583 -0.5409 -0.1419 -0.5390
17388TIP3    H173579   5.691   2.784   1.588  1.3845  3.2042  2.2017
17388TIP3    H273580   5.543   2.773   1.621  0.8168 -2.3054 -1.5215
17389TIP3   OH273581   4.916   0.504  15.847 -0.1480  0.1884  0.5711
17389TIP3    H173582   4.943   0.592  15.872 -1.2663  0.9098 -0.7019
17389TIP3    H273583   4.865   0.471  15.921  0.2380  0.6336  1.0269
17390TIP3   OH273584   2.368   1.031   1.359 -0.8566 -0.1359  0.3674
17390TIP3    H173585   2.295   1.069   1.310  0.1025  0.3405 -0.7067
17390TIP3    H273586   2.419   0.983   1.293 -0.0936 -0.3039  1.0702
17391TIP3   OH273587   3.367   5.831   6.188 -0.1675 -0.9820 -0.1004
17391TIP3    H173588   3.405   5.916   6.167 -0.3894 -0.9716 -0.4587
17391TIP3    H273589   3.441   5.770   6.182 -0.3274 -1.0600 -1.4041
17392TIP3   OH273590   5.379   6.395   3.548  0.1108  0.6188 -0.3240
17392TIP3    H173591   5.445   6.428   3.609  0.9935 -0.8309 -0.4810
17392TIP3    H273592   5.298   6.396   3.600  0.3339  1.9079  0.0304
17393TIP3   OH273593   2.502   5.666   1.635 -0.4202 -0.2900  0.4979
17393TIP3    H173594   2.413   5.632   1.647  0.0974 -1.8512  0.0594
17393TIP3    H273595   2.553   5.621   1.702  0.1642  0.1219  0.3260
17394TIP3   OH273596   6.781   3.794   0.154 -0.0995 -0.5780  0.3000
17394TIP3    H173597   6.775   3.859   0.224 -0.2486 -0.6435  0.3485
17394TIP3    H273598   6.875   3.783   0.140 -0.0820  0.1147 -0.1515
17395TIP3   OH273599   2.157   0.499  10.710  0.4696 -0.0613  0.2613
17395TIP3    H173600   2.200   0.577  10.674  0.5414 -0.1712  0.1076
17395TIP3    H273601   2.066   0.525  10.719  0.5055  0.0638  0.2718
17396TIP3   OH273602   6.186   5.816   0.260  0.3348  0.4721 -0.2198
17396TIP3    H173603   6.236   5.734   0.258  1.1092  0.9351 -0.2265
17396TIP3    H273604   6.125   5.804   0.333  0.0568 -0.3264 -0.5725
17397TIP3   OH273605   4.689   4.841   1.848  0.0751  0.3147  0.1812
17397TIP3    H173606   4.765   4.829   1.791  0.3645 -0.4945  0.7135
17397TIP3    H273607   4.699   4.772   1.914 -0.3928  1.0784  1.0462
17398TIP3   OH273608   5.366   2.749   3.602 -0.4275  0.8401 -0.2935
17398TIP3    H173609   5.364   2.656   3.623 -1.6634  0.5642 -1.5622
17398TIP3    H273610   5.443   2.783   3.648  1.2160 -1.1970 -1.5003
17399TIP3   OH273611   0.109   1.661   3.146 -0.4935  0.7022 -0.4892
17399TIP3    H173612   0.068   1.727   3.089 -0.3004  0.9941 -0.2950
17399TIP3    H273613   0.153   1.713   3.214  0.4417  0.3947 -0.8620
17400TIP3   OH273614   3.534   4.437   0.537 -0.0448 -0.3660  0.1739
17400TIP3    H173615   3.563   4.503   0.599  0.7126 -0.0268 -0.5265
17400TIP3    H273616   3.442   4.421   0.558  0.4403 -0.8988  1.9496
17401TIP3   OH273617   2.024   6.275  16.707 -0.6051 -0.3016  0.3703
17401TIP3    H173618   1.945   6.241  16.751  0.3441 -2.3359  0.5490
17401TIP3    H273619   2.096   6.249  16.764  0.3842 -0.3199 -0.8637
17402TIP3   OH273620   5.703   1.056  13.976  0.1975  0.3044  0.5024
17402TIP3    H173621   5.698   0.961  13.984  0.4222  0.2288 -0.2158
17402TIP3    H273622   5.796   1.074  13.961  0.3482  0.7453  1.9765
17403TIP3   OH273623   1.580   6.719  16.897  0.1156  0.1369  0.4711
17403TIP3    H173624   1.572   6.740  16.990  4.0032 -1.2729  1.2352
17403TIP3    H273625   1.601   6.803  16.856  2.1637  0.1559  1.4793
17404TIP3   OH273626   5.316   5.676  14.468 -0.4158  0.0466 -0.2010
17404TIP3    H173627   5.240   5.669  14.410 -0.1009 -0.2619 -0.5806
17404TIP3    H273628   5.391   5.658  14.411 -0.0212  0.8371  0.0652
17405TIP3   OH273629   6.654   6.639   5.015 -0.1285  0.0451  0.4459
17405TIP3    H173630   6.674   6.618   5.106  0.2984  1.4058  0.6778
17405TIP3    H273631   6.729   6.606   4.965  1.2188  2.2251  0.9617
17406TIP3   OH273632   5.636   4.991  11.754  0.3831  0.5387  0.2620
17406TIP3    H173633   5.630   5.085  11.772 -1.9584  0.7976 -1.5868
17406TIP3    H273634   5.549   4.957  11.777  0.4913 -0.7773 -1.2121
17407TIP3   OH273635   2.643   2.854   4.691  0.2189 -0.7195  0.0817
17407TIP3    H173636   2.689   2.825   4.770  0.1472 -0.3828  0.2470
17407TIP3    H273637   2.646   2.779   4.632  0.2719 -0.9695  0.4059
17408TIP3   OH273638   5.648   3.301  15.249 -0.2120 -0.2953 -0.1415
17408TIP3    H173639   5.742   3.292  15.237 -0.0115  0.6317  0.6568
17408TIP3    H273640   5.628   3.389  15.217 -1.0810 -1.1046 -1.8525
17409TIP3   OH273641   2.184   2.735  17.005 -0.6057  0.3490 -0.0146
17409TIP3    H173642   2.140   2.818  16.992 -1.5924  0.0616  1.3684
17409TIP3    H273643   2.143   2.676  16.942 -1.0939  0.4975  0.1578
17410TIP3   OH273644   3.888   4.958   4.459  0.2437  0.0064 -0.1999
17410TIP3    H173645   3.831   5.002   4.523  1.7769 -1.1107  2.0130
17410TIP3    H273646   3.968   5.010   4.459  0.1585  0.1394 -1.4251
17411TIP3   OH273647   4.210   2.408   0.855  0.3706  0.2566  0.2913
17411TIP3    H173648   4.288   2.440   0.810  0.3912  0.3618  0.4034
17411TIP3    H273649   4.137   2.436   0.800  0.4558 -0.5206 -0.2308
17412TIP3   OH273650   1.683   1.068   3.152  0.2619 -0.0736 -0.3078
17412TIP3    H173651   1.738   1.070   3.074  2.5527 -3.2340  1.1126
17412TIP3    H273652   1.648   0.979   3.154 -0.1914  0.1257  1.9838
17413TIP3   OH273653   0.348   3.610  15.869  0.2463  0.2127  0.2532
17413TIP3    H173654   0.405   3.671  15.917  0.1971  1.1253 -0.8336
17413TIP3    H273655   0.384   3.524  15.888  1.2463  0.6933  0.5817
17414TIP3   OH273656   3.259   3.122  14.392 -0.3142  0.3252 -0.4007
17414TIP3    H173657   3.250   3.136  14.297 -0.5904  0.4160 -0.3642
17414TIP3    H273658   3.349   3.094  14.404 -0.9498 -2.0840 -0.9927
17415TIP3   OH273659   0.984   1.244   1.457  0.4127 -0.0253  0.5932
17415TIP3    H173660   0.967   1.154   1.430  2.1080 -0.7982  1.9844
17415TIP3    H273661   1.057   1.237   1.518  1.0097  2.3761  0.2038
17416TIP3   OH273662   4.415   4.721   3.530  0.1669  0.1534 -0.2141
17416TIP3    H173663   4.469   4.725   3.452 -0.9640 -1.2487 -1.0998
17416TIP3    H273664   4.388   4.630   3.536 -1.5673  0.6936  0.5663
17417TIP3   OH273665   0.325   5.766   2.381 -0.3383 -0.0384  0.2422
17417TIP3    H173666   0.388   5.724   2.323 -0.2938 -0.6221  0.7130
17417TIP3    H273667   0.248   5.709   2.380 -0.5447  0.2352  0.3247
17418TIP3   OH273668   1.196   4.841   1.648 -0.4843 -0.1806  0.0161
17418TIP3    H173669   1.139   4.848   1.725  0.6324  0.9666  0.7646
17418TIP3    H273670   1.283   4.821   1.684  0.4147  2.1273 -0.7838
17419TIP3   OH273671   2.615   6.749   1.392  0.1673 -0.0028 -0.4337
17419TIP3    H173672   2.585   6.730   1.481  0.9022 -0.3116 -0.2392
17419TIP3    H273673   2.606   6.843   1.383 -0.5523 -0.0551 -0.2716
17420TIP3   OH273674   5.562   4.406  15.197  0.3169 -0.3461  0.3965
17420TIP3    H173675   5.530   4.383  15.285  0.7626  0.4518  0.7694
17420TIP3    H273676   5.616   4.331  15.171 -0.2961 -0.8477  0.5517
17421TIP3   OH273677   2.773   5.003   0.617  0.0696 -0.1322 -0.3199
17421TIP3    H173678   2.846   5.000   0.679  0.8633 -1.2088 -1.2886
17421TIP3    H273679   2.695   5.007   0.672  0.7042 -2.1785  0.7761
17422TIP3   OH273680   0.996   1.133  12.065 -0.1664  0.0736  0.4287
17422TIP3    H173681   0.930   1.120  12.134  0.4082  1.1958  1.2020
17422TIP3    H273682   0.947   1.171  11.992 -0.7055 -0.7693  0.3400
17423TIP3   OH273683   6.597   4.409  16.380 -0.0949  0.4254  0.5773
17423TIP3    H173684   6.634   4.324  16.357 -0.2270  0.4931  0.1157
17423TIP3    H273685   6.529   4.389  16.445 -0.4071  0.1385  0.1655
17424TIP3   OH273686   2.952   3.596   1.860 -0.1168 -0.4445  0.2270
17424TIP3    H173687   2.941   3.672   1.917 -0.4940 -0.3294 -0.0016
17424TIP3    H273688   2.884   3.606   1.793  0.8922 -0.1014 -0.7701
17425TIP3   OH273689   2.447   2.882   1.564 -0.1779  0.0665 -0.3757
17425TIP3    H173690   2.512   2.948   1.587  0.7299  0.0426 -2.6916
17425TIP3    H273691   2.472   2.854   1.475 -1.6854 -1.9779 -0.1930
17426TIP3   OH273692   1.691   0.394  13.946  0.0594  0.2205 -0.3210
17426TIP3    H173693   1.626   0.345  13.896  0.5371 -0.6027 -0.1344
17426TIP3    H273694   1.759   0.330  13.967  1.3967  1.2873 -1.3067
17427TIP3   OH273695   5.590   4.559  13.790  0.3428  0.0492 -0.4834
17427TIP3    H173696   5.665   4.552  13.849 -0.1132  0.8984  0.2154
17427TIP3    H273697   5.627   4.544  13.703  0.9688 -1.5368  0.0445
17428TIP3   OH273698   2.473   6.056   3.899  0.3602 -0.5292 -0.3650
17428TIP3    H173699   2.476   6.148   3.927 -1.6603 -0.5214 -0.0979
17428TIP3    H273700   2.448   6.059   3.807 -2.9585 -0.8857  0.4716
17429TIP3   OH273701   3.889   4.359  16.675  0.1959  0.3303  0.1285
17429TIP3    H173702   3.819   4.417  16.702  2.8157  2.5563  2.4801
17429TIP3    H273703   3.934   4.336  16.756  1.4213 -2.1103 -1.1706
17430TIP3   OH273704   1.195   3.058   1.475  0.2611 -0.3738  0.2978
17430TIP3    H173705   1.209   3.058   1.569  3.4253  0.4717 -0.1075
17430TIP3    H273706   1.277   3.023   1.438  0.0669  1.6327 -2.2058
17431TIP3   OH273707   4.723   0.973  12.167  0.2292 -0.0855  0.0236
17431TIP3    H173708   4.811   1.008  12.149  0.6157 -0.1889  1.6011
17431TIP3    H273709   4.664   1.031  12.121  1.0420  1.0111  0.3457
17432TIP3   OH273710   1.764   0.098  12.982 -0.4044 -0.3225  0.3352
17432TIP3    H173711   1.793   0.181  12.945  0.0235 -0.3374  0.6311
17432TIP3    H273712   1.810   0.092  13.066 -2.2740  0.2762  1.4330
17433TIP3   OH273713   6.607   0.243  11.664 -0.6112  0.5001 -0.3480
17433TIP3    H173714   6.577   0.322  11.619  1.6908  0.1887 -2.5448
17433TIP3    H273715   6.530   0.187  11.668 -1.4596  1.5313 -1.7625
17434TIP3   OH273716   0.964   1.698  11.882  0.1763  0.1725 -0.3493
17434TIP3    H173717   0.981   1.705  11.975 -0.8933  0.7184 -0.1796
17434TIP3    H273718   0.868   1.697  11.875  0.2483 -0.4104 -1.3958
17435TIP3   OH273719   6.077   5.209  11.376  0.2584 -0.9430  0.0367
17435TIP3    H173720   6.034   5.146  11.318  0.1977 -0.3014 -0.6292
17435TIP3    H273721   6.007   5.267  11.404  0.6797  0.1165 -1.0653
17436TIP3   OH273722   0.876   2.711  12.212  0.0174 -0.3068 -0.1324
17436TIP3    H173723   0.799   2.697  12.267  0.0252 -0.3837 -0.1408
17436TIP3    H273724   0.928   2.631  12.221 -1.1209 -1.3075 -2.1203
17437TIP3   OH273725   0.651   5.740   4.090 -0.1384 -0.2942 -0.5213
17437TIP3    H173726   0.667   5.815   4.147 -2.1488 -1.1169  1.1983
17437TIP3    H273727   0.732   5.689   4.094  0.3370  0.5139  0.2787
17438TIP3   OH273728   4.771   3.501  14.542 -0.3633  0.0917 -0.0801
17438TIP3    H173729   4.798   3.579  14.494  0.2621  0.9798  1.6663
17438TIP3    H273730   4.686   3.524  14.579 -0.2115 -0.0672  0.3750
17439TIP3   OH273731   6.231   6.038   0.995  0.4881  0.3990 -0.2203
17439TIP3    H173732   6.244   6.111   0.935  1.4428  1.4477  1.2041
17439TIP3    H273733   6.281   5.966   0.957  2.6062  1.5832  0.2052
17440TIP3   OH273734   1.456   2.915   1.423 -0.8507 -1.1757  0.3604
17440TIP3    H173735   1.502   2.891   1.343  0.5682  0.8236  0.5152
17440TIP3    H273736   1.497   2.863   1.492  0.7123  0.0441  0.3777
17441TIP3   OH273737   1.081   5.980  12.505  0.3835  0.0894  0.0672
17441TIP3    H173738   1.047   6.052  12.559  0.4921 -0.9976  1.6207
17441TIP3    H273739   1.004   5.930  12.480  0.3923  0.2717 -0.3360
17442TIP3   OH273740   4.468   3.789   4.801 -0.0789  0.1990  0.5778
17442TIP3    H173741   4.400   3.853   4.823 -1.5752 -0.6517 -1.5065
17442TIP3    H273742   4.429   3.704   4.822  1.7760 -0.1305  3.0128
17443TIP3   OH273743   1.528   2.401  13.526 -0.2054 -0.3342 -0.2240
17443TIP3    H173744   1.572   2.428  13.445 -1.7463  0.3293 -0.8579
17443TIP3    H273745   1.599   2.386  13.588  1.0208 -1.0230 -1.7540
17444TIP3   OH273746   2.854   4.250   6.857  0.3320 -0.4631 -0.6457
17444TIP3    H173747   2.889   4.169   6.895 -0.2646 -0.6651 -0.5160
17444TIP3    H273748   2.791   4.219   6.792  0.8717 -0.1109 -1.3296
17445TIP3   OH273749   6.334   0.991  14.003 -0.0723 -0.4071 -0.0553
17445TIP3    H173750   6.305   0.965  13.916  1.5466 -3.1480  0.1398
17445TIP3    H273751   6.337   1.086  14.001 -1.0649 -0.4087 -2.6535
17446TIP3   OH273752   2.981   3.058  13.327  0.3964  0.0931 -0.3925
17446TIP3    H173753   2.887   3.053  13.347  0.2395  1.7733 -0.6620
17446TIP3    H273754   3.012   2.968  13.336 -0.6674 -0.0345  2.4999
17447TIP3   OH273755   2.862   0.190  16.008 -0.0400  0.4728 -0.1730
17447TIP3    H173756   2.843   0.138  15.930 -1.6376 -0.7472  0.9777
17447TIP3    H273757   2.927   0.138  16.056  0.8893  1.1877 -0.6425
17448TIP3   OH273758   4.293   1.112   1.051  0.3677  0.4609 -0.7106
17448TIP3    H173759   4.350   1.183   1.080  0.7961  0.2520 -1.0322
17448TIP3    H273760   4.297   1.116   0.955 -0.1572  0.4451 -0.7350
17449TIP3   OH273761   0.643   4.786  13.448  0.3544 -0.2772  0.4248
17449TIP3    H173762   0.600   4.855  13.498  0.7349 -1.6373  2.7263
17449TIP3    H273763   0.573   4.747  13.396 -0.1793  0.7614  0.3580
17450TIP3   OH273764   2.895   2.783  13.630 -0.1247 -0.1402  0.2327
17450TIP3    H173765   2.972   2.731  13.608  0.1113 -0.2076  1.1968
17450TIP3    H273766   2.824   2.745  13.579  0.1126 -1.2058  0.6988
17451TIP3   OH273767   1.363   5.282  14.577 -0.0464  0.1188 -0.7771
17451TIP3    H173768   1.330   5.199  14.611  0.2240  0.1577 -0.4169
17451TIP3    H273769   1.388   5.332  14.654 -0.5709  0.6922 -0.9778
17452TIP3   OH273770   2.130   5.578  15.080 -0.4820  0.4405  0.0150
17452TIP3    H173771   2.185   5.557  15.155  0.4559 -0.4437 -0.8955
17452TIP3    H273772   2.177   5.646  15.033 -0.0103 -0.5027 -0.9108
17453TIP3   OH273773   1.838   3.655   0.557  0.2853  0.4238  0.3562
17453TIP3    H173774   1.923   3.616   0.538 -0.9125 -1.6579 -0.9377
17453TIP3    H273775   1.801   3.674   0.471 -2.0236 -2.0006  0.7563
17454TIP3   OH273776   1.462   6.030   5.558  0.0465 -0.3479  0.2728
17454TIP3    H173777   1.556   6.012   5.560  0.2066  0.5562  1.0718
17454TIP3    H273778   1.441   6.059   5.647 -0.7723  0.4908 -0.1814
17455TIP3   OH273779   2.183   6.341  12.641 -0.7739 -0.0853 -0.0351
17455TIP3    H173780   2.262   6.324  12.693  0.0964 -0.4300 -1.4546
17455TIP3    H273781   2.111   6.317  12.700  0.1728  0.1253  1.2397
17456TIP3   OH273782   3.285   5.779   2.825  0.2628 -0.2108  0.0164
17456TIP3    H173783   3.268   5.873   2.817 -0.9562 -0.4119  0.2364
17456TIP3    H273784   3.378   5.774   2.846  0.4721  0.9221 -0.5987
17457TIP3   OH273785   5.200   3.597  12.665 -0.1052 -0.1317  0.4194
17457TIP3    H173786   5.153   3.553  12.593  1.5206  1.0025 -1.3817
17457TIP3    H273787   5.184   3.690  12.650  0.2691  0.1154  1.5350
17458TIP3   OH273788   4.772   4.417  12.934  0.2207 -0.5581  0.6227
17458TIP3    H173789   4.820   4.438  13.015 -0.0621 -1.3393  0.9940
17458TIP3    H273790   4.777   4.322  12.927 -0.6866 -0.5809  0.2919
17459TIP3   OH273791   4.028   5.368  16.922  0.4221 -0.5829  0.6009
17459TIP3    H173792   3.946   5.394  16.879  1.0988 -0.6034 -0.7137
17459TIP3    H273793   4.066   5.450  16.953 -0.4234 -0.6397  1.8247
17460TIP3   OH273794   1.152   5.097   6.251 -1.1030 -0.2094  0.2814
17460TIP3    H173795   1.145   5.116   6.158 -0.5997  0.6973  0.4289
17460TIP3    H273796   1.207   5.166   6.287  0.6126 -1.8134  0.8495
17461TIP3   OH273797   6.006   4.483  15.074  0.2578  0.4355 -0.5080
17461TIP3    H173798   5.951   4.487  15.152 -0.1812  2.7450 -0.9060
17461TIP3    H273799   6.080   4.540  15.094  1.6243 -1.2189 -0.6956
17462TIP3   OH273800   5.570   0.960   0.215 -0.0384  0.6742 -0.0060
17462TIP3    H173801   5.484   0.933   0.246  0.1273  2.5618  2.2887
17462TIP3    H273802   5.580   1.050   0.247  2.8079  0.4532 -0.1046
17463TIP3   OH273803   5.992   4.568  16.454  0.2322 -0.0925 -0.1475
17463TIP3    H173804   5.919   4.591  16.397 -0.3967 -0.9159  0.3334
17463TIP3    H273805   6.054   4.640  16.442 -0.9120  0.9183 -0.0953
17464TIP3   OH273806   3.800   4.581   3.143 -0.3961 -0.0704  0.3961
17464TIP3    H173807   3.886   4.608   3.178 -0.8973  0.3151  1.3548
17464TIP3    H273808   3.804   4.604   3.050  1.0593 -1.3528  0.1275
17465TIP3   OH273809   5.305   0.184  15.721  0.4326  0.0468 -0.0612
17465TIP3    H173810   5.282   0.168  15.630  1.7929 -0.5538 -0.3197
17465TIP3    H273811   5.388   0.138  15.733  0.4656  0.4461  1.3767
17466TIP3   OH273812   6.499   5.446  14.021 -0.1660 -0.0777  0.5999
17466TIP3    H173813   6.500   5.381  13.951 -1.2190  0.2039  0.3133
17466TIP3    H273814   6.414   5.435  14.063 -1.0878  2.2512 -0.5392
17467TIP3   OH273815   5.992   3.524   0.368  0.6836 -0.0334 -0.4025
17467TIP3    H173816   6.070   3.562   0.409 -0.6062  1.7534  0.4788
17467TIP3    H273817   6.005   3.536   0.274  0.6659  1.8981 -0.1708
17468TIP3   OH273818   3.543   1.466   5.039 -0.6069  0.7589 -0.1639
17468TIP3    H173819   3.530   1.373   5.058 -1.8607  0.3587 -2.7443
17468TIP3    H273820   3.632   1.484   5.069  0.4482 -1.8300 -1.5018
17469TIP3   OH273821   4.991   3.067  11.249 -0.1081 -0.3825  0.4492
17469TIP3    H173822   4.991   3.118  11.330  1.3894 -1.4587  1.1594
17469TIP3    H273823   4.936   2.991  11.267 -1.3118  0.3185 -0.1901
17470TIP3   OH273824   3.108   4.847   2.081 -0.0080 -0.6112  0.0296
17470TIP3    H173825   3.180   4.794   2.048  0.6751  0.3197  0.0169
17470TIP3    H273826   3.053   4.861   2.004 -0.7040 -2.0872  0.2314
17471TIP3   OH273827   1.263   4.102  11.120  0.1997 -0.3422  0.4080
17471TIP3    H173828   1.187   4.070  11.169  1.3531  0.3775  2.7463
17471TIP3    H273829   1.231   4.115  11.031 -1.7981 -2.3089  0.8011
17472TIP3   OH273830   5.781   6.006   1.966  0.2158  0.2229 -0.2292
17472TIP3    H173831   5.764   6.023   1.873  0.5279  0.0854 -0.3134
17472TIP3    H273832   5.695   5.984   2.002  0.0424  0.5879 -0.4182
17473TIP3   OH273833   2.961   1.537   0.853 -0.4168  0.0624 -0.0430
17473TIP3    H173834   3.041   1.586   0.873 -2.2093  2.4906  1.4834
17473TIP3    H273835   2.965   1.460   0.909  0.4886  0.5665  0.5983
17474TIP3   OH273836   3.863   1.059   1.154 -0.0068  0.0445 -0.0989
17474TIP3    H173837   3.955   1.084   1.166  0.9735 -2.7385 -1.3348
17474TIP3    H273838   3.854   1.044   1.060 -1.5907 -0.2457  0.0859
17475TIP3   OH273839   1.420   4.554   3.561  0.8248 -0.1534 -0.2934
17475TIP3    H173840   1.456   4.467   3.542  0.7145  0.0411 -1.4340
17475TIP3    H273841   1.326   4.545   3.546  0.3518 -0.6263  2.5536
17476TIP3   OH273842   0.202   5.938  12.705 -0.0366  0.2176 -0.1580
17476TIP3    H173843   0.165   5.864  12.657  1.3506 -1.2058  0.9212
17476TIP3    H273844   0.177   5.921  12.796 -0.2987  1.4564  0.0069
17477TIP3   OH273845   6.493   0.371  10.547  0.2758  0.5781  0.5762
17477TIP3    H173846   6.565   0.424  10.581  0.7291  0.0573  0.4315
17477TIP3    H273847   6.510   0.283  10.580 -1.0206  0.7044  1.6709
17478TIP3   OH273848   1.272   0.990   1.881 -0.0682 -0.4630 -0.7513
17478TIP3    H173849   1.317   1.051   1.939 -0.7448 -0.5282 -0.1506
17478TIP3    H273850   1.294   0.903   1.916  1.4838 -0.6156 -2.0310
17479TIP3   OH273851   0.972   2.962   1.345 -0.0419 -0.0882 -0.0329
17479TIP3    H173852   1.052   3.000   1.380 -0.4772  0.7402  0.0674
17479TIP3    H273853   0.903   3.025   1.367 -0.5492 -0.2644 -1.0804
17480TIP3   OH273854   2.761   0.027  14.714  0.0773  0.3751  0.0590
17480TIP3    H173855   2.754  -0.003  14.623  0.1681  0.6898 -0.0516
17480TIP3    H273856   2.712   0.110  14.716  2.2580  1.7036 -0.3099
17481TIP3   OH273857   3.185   0.292  12.429 -0.3020  0.0222 -0.1098
17481TIP3    H173858   3.189   0.198  12.447 -3.1112 -0.4398 -1.5399
17481TIP3    H273859   3.267   0.311  12.383 -0.5890 -2.1672 -1.6048
17482TIP3   OH273860   0.881   3.031   1.725 -0.2135 -0.8696  0.3374
17482TIP3    H173861   0.875   3.030   1.821  1.4741  1.5463  0.5092
17482TIP3    H273862   0.937   2.957   1.704  0.4727 -0.6315  1.3067
17483TIP3   OH273863   2.217   4.157  16.150 -0.3432  0.0283  0.0521
17483TIP3    H173864   2.159   4.190  16.219 -1.4451 -0.3163 -0.6860
17483TIP3    H273865   2.165   4.090  16.105  0.7814 -0.5759 -0.3715
17484TIP3   OH273866   6.158   2.380  13.345 -0.0603 -0.2086  0.8220
17484TIP3    H173867   6.122   2.444  13.283  1.3400 -0.0779  0.1371
17484TIP3    H273868   6.098   2.384  13.420 -0.1176  1.7592  0.7128
17485TIP3   OH273869   1.041   5.956  15.798 -0.1061  0.5694  0.1025
17485TIP3    H173870   1.067   5.999  15.717  1.8181 -1.8563 -0.6455
17485TIP3    H273871   1.123   5.943  15.845 -1.1323  1.3692  2.1581
17486TIP3   OH273872   1.855   2.946   3.324  0.1901  0.0313 -0.0613
17486TIP3    H173873   1.799   2.931   3.400  0.0275  1.0327  0.0211
17486TIP3    H273874   1.900   3.028   3.343  0.9669 -0.2794 -0.5571
17487TIP3   OH273875   3.549   4.134   0.600 -0.7640  0.2377 -0.3649
17487TIP3    H173876   3.595   4.101   0.677  1.1710  0.4307 -1.4199
17487TIP3    H273877   3.597   4.214   0.576 -1.4456  0.2603 -1.6834
17488TIP3   OH273878   3.477   1.854   4.601  0.5501 -0.1745  0.5497
17488TIP3    H173879   3.469   1.761   4.625 -4.1232  0.0699  0.4828
17488TIP3    H273880   3.521   1.853   4.516  1.7514 -2.2294  1.1530
17489TIP3   OH273881   0.270   1.056   3.923 -0.2747  0.1516  0.9086
17489TIP3    H173882   0.360   1.044   3.892  0.1446  1.1162  1.7475
17489TIP3    H273883   0.258   0.990   3.991  0.3027  1.0262  1.8607
17490TIP3   OH273884   0.526   6.460   4.045 -0.1996 -0.1159 -0.5836
17490TIP3    H173885   0.611   6.464   4.089 -1.0488 -0.5079  1.1533
17490TIP3    H273886   0.520   6.371   4.011 -1.1266 -1.0243  1.8557
17491TIP3   OH273887   1.524   3.875   1.481 -0.3803  0.0286 -0.6578
17491TIP3    H173888   1.441   3.916   1.458 -1.8696 -2.1474  0.6291
17491TIP3    H273889   1.540   3.812   1.410 -1.1806 -1.4121  0.4319
17492TIP3   OH273890   1.095   1.031  14.119 -0.3668 -0.0613 -0.6899
17492TIP3    H173891   1.111   0.971  14.047 -1.4844  1.5317 -2.2988
17492TIP3    H273892   1.001   1.025  14.135 -0.0393 -0.8716  1.0791
17493TIP3   OH273893   6.342   3.504  13.444  0.1598 -0.0738 -0.0430
17493TIP3    H173894   6.348   3.550  13.360  0.4453 -0.1549 -0.0687
17493TIP3    H273895   6.390   3.559  13.505 -0.1169  0.0253  0.0884
17494TIP3   OH273896   2.369   4.495  11.965 -0.0301 -0.1649  0.7832
17494TIP3    H173897   2.390   4.505  11.872 -0.0027 -1.6104  0.6241
17494TIP3    H273898   2.308   4.567  11.984 -0.3547 -0.1074 -0.4489
17495TIP3   OH273899   5.758   1.397  10.277 -0.4400 -0.0150  0.0263
17495TIP3    H173900   5.771   1.398  10.182  1.0431  2.0989  0.2283
17495TIP3    H273901   5.827   1.339  10.310  0.0478  0.5292 -0.0429
17496TIP3   OH273902   0.650   5.926   0.420 -0.2488  0.5630 -0.2183
17496TIP3    H173903   0.599   6.006   0.412  0.9902  1.3230 -0.6414
17496TIP3    H273904   0.740   5.955   0.432  0.2132 -0.7605 -0.3019
17497TIP3   OH273905   0.803   3.081  15.261 -0.0782 -0.3256 -0.0100
17497TIP3    H173906   0.740   3.131  15.313  0.4777 -0.3197  0.6548
17497TIP3    H273907   0.752   3.049  15.186 -0.4085  1.3595 -0.5269
17498TIP3   OH273908   4.481   2.867  14.652 -0.6659 -0.0294  0.3706
17498TIP3    H173909   4.438   2.789  14.616  2.8324 -1.6531 -0.5723
17498TIP3    H273910   4.490   2.848  14.745  1.5489 -1.5439 -0.0971
17499TIP3   OH273911   5.025   3.865  11.737 -0.0204 -0.6701  0.3030
17499TIP3    H173912   4.945   3.823  11.706 -0.8418  0.5344  0.7186
17499TIP3    H273913   5.042   3.934  11.672 -0.1306 -0.0105  0.9653
17500TIP3   OH273914   1.572   1.712  16.743  0.0192  0.1256 -0.6868
17500TIP3    H173915   1.626   1.783  16.776 -1.1773  0.5284  0.4434
17500TIP3    H273916   1.559   1.732  16.650 -2.1587  2.6277  0.0920
17501TIP3   OH273917   6.432   4.941  12.676 -0.5609 -0.2577 -0.2289
17501TIP3    H173918   6.418   4.883  12.600 -0.3402 -1.5112  0.6704
17501TIP3    H273919   6.490   5.010  12.643  0.4126 -1.3902 -0.9321
17502TIP3   OH273920   6.645   1.332   5.910 -0.3015 -0.3052  0.3859
17502TIP3    H173921   6.641   1.237   5.923  0.8161 -0.5276 -0.6987
17502TIP3    H273922   6.578   1.350   5.845 -1.4973 -0.1359  1.6560
17503TIP3   OH273923   5.247   4.710  12.958 -0.6198 -0.2192 -0.0765
17503TIP3    H173924   5.334   4.674  12.940 -0.3058  0.6292 -0.2766
17503TIP3    H273925   5.254   4.746  13.046 -0.5627  0.4672 -0.3595
17504TIP3   OH273926   3.312   5.320   2.165 -0.2167  0.7739  0.2018
17504TIP3    H173927   3.300   5.359   2.251  3.1728 -1.6247  1.8925
17504TIP3    H273928   3.272   5.233   2.172  0.7876  0.2561 -0.3437
17505TIP3   OH273929   4.156   1.786  11.558 -0.6619  0.5016 -0.1929
17505TIP3    H173930   4.241   1.830  11.554  0.5327 -1.3486  2.4803
17505TIP3    H273931   4.098   1.850  11.599  0.3887  0.5909  1.2292
17506TIP3   OH273932   0.633   5.086  15.442  0.9404 -0.3380  0.2953
17506TIP3    H173933   0.645   5.003  15.397 -0.5983 -0.2722 -0.2441
17506TIP3    H273934   0.542   5.110  15.426  0.2060 -0.5502  3.8729
17507TIP3   OH273935   1.424   4.419  14.921 -0.6178 -0.2679 -0.4978
17507TIP3    H173936   1.352   4.400  14.860 -1.4960  2.1334 -0.2635
17507TIP3    H273937   1.485   4.472  14.870  0.6789 -1.7131 -0.4807
17508TIP3   OH273938   0.317   0.539  16.700  0.1054 -1.1732 -0.2203
17508TIP3    H173939   0.372   0.507  16.771  1.5487 -0.6687 -1.0917
17508TIP3    H273940   0.321   0.470  16.634  2.3723  0.2380 -1.6590
17509TIP3   OH273941   5.360   5.537   1.931  0.0183  0.6970  0.2684
17509TIP3    H173942   5.430   5.497   1.879 -0.2518 -0.0511  0.4678
17509TIP3    H273943   5.301   5.577   1.866 -1.5750 -2.2505 -0.2008
17510TIP3   OH273944   1.821   4.679  17.012 -0.0017  0.0803  0.4888
17510TIP3    H173945   1.808   4.726  17.095  0.7758  1.2156 -0.0225
17510TIP3    H273946   1.900   4.718  16.974 -0.5217 -0.2269 -0.9354
17511TIP3   OH273947   3.924   0.707  10.669  0.2172  0.0256 -0.5041
17511TIP3    H173948   3.889   0.684  10.756 -0.5076 -1.4357 -1.1667
17511TIP3    H273949   3.936   0.802  10.673 -3.0211  0.4836  0.0862
17512TIP3   OH273950   3.328   1.269   0.970 -0.1025  0.0890  0.1308
17512TIP3    H173951   3.358   1.332   1.035  1.1824  0.4777 -0.8084
17512TIP3    H273952   3.237   1.293   0.952 -0.1621  0.5744  1.0561
17513TIP3   OH273953   3.283   0.864   0.038  0.2805  0.2587  0.1802
17513TIP3    H173954   3.274   0.878   0.132  0.0485 -2.7666  0.6626
17513TIP3    H273955   3.376   0.878   0.020  1.2196 -3.3770  1.7045
17514TIP3   OH273956   3.551   2.879   1.663  0.1604 -0.6083 -0.0905
17514TIP3    H173957   3.642   2.869   1.633  0.7566 -0.1724  1.4960
17514TIP3    H273958   3.499   2.832   1.598  1.6888 -2.3706 -0.0896
17515TIP3   OH273959   1.481   2.031   2.833  0.5297 -0.0563  0.3762
17515TIP3    H173960   1.534   1.960   2.872 -0.8109 -0.9797  0.5482
17515TIP3    H273961   1.390   2.005   2.851  0.0186  1.5686  0.1752
17516TIP3   OH273962   1.928   2.548   2.728  0.5311 -0.3193 -0.0285
17516TIP3    H173963   1.996   2.481   2.734 -1.4274 -2.2441  1.7622
17516TIP3    H273964   1.846   2.499   2.733 -0.9970  1.9689 -1.8217
17517TIP3   OH273965   4.074   2.386   2.312 -0.0459  0.1325 -0.6741
17517TIP3    H173966   4.110   2.410   2.227 -1.0392  1.7480 -0.6528
17517TIP3    H273967   4.066   2.290   2.308  0.5168  0.1391 -2.1496
17518TIP3   OH273968   3.159   6.100  15.431 -0.1941  0.6354  0.1171
17518TIP3    H173969   3.069   6.068  15.425 -0.6413  1.9454 -0.1966
17518TIP3    H273970   3.207   6.050  15.365 -0.6860 -0.0650  0.2901
17519TIP3   OH273971   2.310   5.095   2.259  0.2558  0.5282 -0.4114
17519TIP3    H173972   2.227   5.142   2.261 -0.1159 -0.1661  1.7796
17519TIP3    H273973   2.352   5.117   2.342  1.9508  0.3043 -1.1947
17520TIP3   OH273974   3.657   0.446   5.396 -0.3980  0.6793  0.1418
17520TIP3    H173975   3.698   0.504   5.331  0.2848  0.0604  0.0225
17520TIP3    H273976   3.575   0.418   5.354 -0.2258  0.7231 -0.2280
17521TIP3   OH273977   5.743   5.119  13.741 -0.5622 -0.1297  0.4108
17521TIP3    H173978   5.768   5.087  13.827  0.0075 -0.7942  0.0083
17521TIP3    H273979   5.796   5.198  13.728  0.9157 -1.2049 -0.1933
17522TIP3   OH273980   3.401   6.361  14.367 -0.3947  0.0532  0.2633
17522TIP3    H173981   3.448   6.409  14.435 -0.8401  1.6625 -0.5574
17522TIP3    H273982   3.367   6.428  14.309  0.7040 -1.3283 -2.0432
17523TIP3   OH273983   1.024   5.312   5.794 -0.1554 -0.2282 -0.2903
17523TIP3    H173984   1.031   5.398   5.834 -0.1893 -1.0771  1.6051
17523TIP3    H273985   1.046   5.326   5.702  1.1188  1.5630  0.2595
17524TIP3   OH273986   2.231   0.254  10.766  0.3636  0.2524 -0.3993
17524TIP3    H173987   2.190   0.338  10.746  0.7897  0.1848 -1.5657
17524TIP3    H273988   2.285   0.235  10.690  3.0570  0.6309  1.3454
17525TIP3   OH273989   1.228   5.178   3.924  0.0888 -0.5137 -0.4799
17525TIP3    H173990   1.302   5.236   3.945 -1.1614  1.0420 -0.2693
17525TIP3    H273991   1.240   5.103   3.982  0.4525  0.6339  0.9912
17526TIP3   OH273992   6.002   3.099  13.427 -0.5763  0.0614  0.3718
17526TIP3    H173993   6.039   3.184  13.405 -0.8818  0.2303  0.4960
17526TIP3    H273994   6.024   3.042  13.353  0.3214  0.0358  0.6575
17527TIP3   OH273995   1.462   4.502  16.949  0.0619  0.6558  0.1510
17527TIP3    H173996   1.387   4.560  16.936 -1.4513 -1.1633  0.3907
17527TIP3    H273997   1.477   4.503  17.044 -0.3898  0.1767  0.2335
17528TIP3   OH273998   3.112   0.141  15.256  0.0336  0.5628  0.1930
17528TIP3    H173999   3.095   0.199  15.330 -0.1911 -0.8594  1.2747
17528TIP3    H274000   3.097   0.052  15.290 -2.0712 -0.0238 -2.0726
17529TIP3   OH274001   5.842   2.062  15.291  0.0925  0.1096 -0.8277
17529TIP3    H174002   5.831   2.149  15.330  0.4773 -0.5632  0.8335
17529TIP3    H274003   5.934   2.058  15.266  0.7402 -0.7911  1.5807
17530TIP3   OH274004   1.909   1.110   6.838  0.0606 -0.2985  0.3142
17530TIP3    H174005   1.958   1.099   6.920 -0.0934  0.5047  0.5127
17530TIP3    H274006   1.922   1.201   6.814 -2.0207  0.1412  0.8115
17531TIP3   OH274007   0.632   4.411   4.946 -0.2992 -0.1535  0.0762
17531TIP3    H174008   0.641   4.394   4.852 -0.7587 -1.9090  0.3357
17531TIP3    H274009   0.686   4.344   4.988 -0.4507  0.3511  1.0887
17532TIP3   OH274010   2.088   0.237  14.466 -0.7952 -0.1858 -0.2228
17532TIP3    H174011   2.160   0.287  14.505 -2.2107  2.0463 -0.3655
17532TIP3    H274012   2.045   0.195  14.541  0.3570 -1.1814 -0.0931
17533TIP3   OH274013   2.141   3.201   5.058  0.0526  1.0486  0.0453
17533TIP3    H174014   2.143   3.293   5.031 -0.5339  0.5441 -1.8517
17533TIP3    H274015   2.065   3.165   5.013  1.8607 -0.9982 -1.5082
17534TIP3   OH274016   4.311   2.915   0.116 -0.3630 -0.0587 -0.5481
17534TIP3    H174017   4.402   2.885   0.118 -0.6504 -0.9781 -0.9966
17534TIP3    H274018   4.310   2.982   0.048  0.2790  0.9540  0.4344
17535TIP3   OH274019   1.718   1.320   1.667  0.0812  0.1353  0.3463
17535TIP3    H174020   1.644   1.275   1.706 -1.8693  2.5973 -0.3797
17535TIP3    H274021   1.688   1.343   1.579  0.4701  3.9299  1.1223
17536TIP3   OH274022   6.609   4.884  15.630 -0.4324 -0.5644  0.7598
17536TIP3    H174023   6.532   4.928  15.594  0.1005  0.6894  1.1167
17536TIP3    H274024   6.581   4.852  15.716  0.2041  2.2581  2.0569
17537TIP3   OH274025   4.040   4.667   1.143  0.4762  0.0578 -0.3529
17537TIP3    H174026   4.031   4.725   1.219 -1.9064 -1.3133  0.4409
17537TIP3    H274027   4.135   4.655   1.134  0.7912  0.0624  2.5556
17538TIP3   OH274028   1.238   0.886   6.647 -0.4375  0.4010 -0.1772
17538TIP3    H174029   1.316   0.941   6.638  1.4407 -1.5585  3.1540
17538TIP3    H274030   1.241   0.827   6.571  1.7415 -0.1009  0.2787
17539TIP3   OH274031   3.611   3.648  12.723 -0.4069  0.2293 -0.1446
17539TIP3    H174032   3.669   3.654  12.647  0.2981  0.7462  0.4255
17539TIP3    H274033   3.653   3.584  12.780 -1.4987 -0.9768 -0.6668
17540TIP3   OH274034   4.729   5.049  11.848  0.2154 -0.3719 -0.5204
17540TIP3    H174035   4.645   5.035  11.891  1.1125 -1.2667  1.0227
17540TIP3    H274036   4.793   5.044  11.919  1.5743  0.2336 -1.6705
17541TIP3   OH274037   2.345   0.985   4.007 -0.3091  0.1890 -0.0423
17541TIP3    H174038   2.377   1.067   4.043 -1.1950  0.1358  0.8898
17541TIP3    H274039   2.285   1.012   3.937  1.5172  0.2894 -1.6325
17542TIP3   OH274040   1.793   4.141   5.382 -0.3994  0.2272 -0.0554
17542TIP3    H174041   1.814   4.162   5.474  1.2161  0.6216 -0.4844
17542TIP3    H274042   1.854   4.071   5.360 -1.6231 -0.7126 -0.4693
17543TIP3   OH274043   5.728   1.800  15.447  0.4335 -0.4479  0.1598
17543TIP3    H174044   5.742   1.875  15.388 -0.4805  1.2559  2.0551
17543TIP3    H274045   5.784   1.817  15.522 -0.9493 -0.8373  1.3195
17544TIP3   OH274046   5.377   4.047   0.633  0.1351  0.3409  1.0099
17544TIP3    H174047   5.323   4.123   0.611 -2.4382 -2.2976 -2.4057
17544TIP3    H274048   5.444   4.045   0.565 -1.9997 -2.3847 -1.1332
17545TIP3   OH274049   5.309   0.397  15.103  0.0846  0.2161 -0.5512
17545TIP3    H174050   5.222   0.358  15.110 -0.6038  1.3521 -2.1889
17545TIP3    H274051   5.296   0.472  15.045  1.4911  2.4854  1.9647
17546TIP3   OH274052   5.505   2.431  16.430  0.5161  0.1669  0.5790
17546TIP3    H174053   5.526   2.520  16.456 -0.5620  0.2703  1.1335
17546TIP3    H274054   5.490   2.385  16.513 -1.1819  0.0548  0.2273
17547TIP3   OH274055   3.794   1.329   0.530  0.0531  0.0011 -0.3878
17547TIP3    H174056   3.708   1.292   0.514  0.3482  0.0968 -2.3773
17547TIP3    H274057   3.852   1.253   0.541 -0.1682 -0.0708  0.2655
17548TIP3   OH274058   6.698   2.449  12.992  0.2257  0.4173  0.4231
17548TIP3    H174059   6.666   2.393  13.063 -1.6773 -0.4038 -1.0168
17548TIP3    H274060   6.632   2.518  12.984  0.2061  0.2770 -0.7786
17549TIP3   OH274061   2.282   3.234  14.321  0.0058  0.4558 -0.2319
17549TIP3    H174062   2.305   3.175  14.250  0.0645 -0.2880  0.3964
17549TIP3    H274063   2.268   3.176  14.397  2.2215  1.3869  0.9522
17550TIP3   OH274064   5.360   4.882   1.929 -0.0749 -0.3185  0.4108
17550TIP3    H174065   5.356   4.856   2.021  0.6536  1.2024  0.9041
17550TIP3    H274066   5.423   4.955   1.928 -0.4467  0.0005 -1.2162
17551TIP3   OH274067   4.239   5.397   1.444 -0.0082 -0.3011 -0.2407
17551TIP3    H174068   4.151   5.388   1.481 -0.1603 -1.2700 -0.8237
17551TIP3    H274069   4.277   5.310   1.452  1.0026  0.1831  0.2561
17552TIP3   OH274070   2.862   5.635   1.783 -0.4300 -0.4758  0.4231
17552TIP3    H174071   2.801   5.705   1.806 -0.8406 -0.3056 -1.1095
17552TIP3    H274072   2.809   5.555   1.787 -1.0609 -0.2115 -1.9467
17553TIP3   OH274073   3.548   5.786   2.894 -0.5463  0.7283 -0.9130
17553TIP3    H174074   3.588   5.866   2.858 -1.1176  0.4421 -2.1895
17553TIP3    H274075   3.585   5.715   2.842  0.0436  0.1274  0.2962
17554TIP3   OH274076   1.810   2.781   3.007  0.0588 -0.1307  0.5803
17554TIP3    H174077   1.774   2.730   3.080 -1.8659  1.7249  0.9847
17554TIP3    H274078   1.753   2.761   2.933 -0.3397  0.8996  0.5875
17555TIP3   OH274079   4.506   0.844   3.579  0.6330 -0.0932 -0.5230
17555TIP3    H174080   4.498   0.784   3.653  3.5953  0.1295  0.0433
17555TIP3    H274081   4.556   0.795   3.514 -0.5267  0.3041 -1.7385
17556TIP3   OH274082   2.735   3.409   3.512  0.1190 -0.4482 -0.1210
17556TIP3    H174083   2.656   3.355   3.517  0.4296 -0.8637  0.2737
17556TIP3    H274084   2.804   3.350   3.482  0.6708 -0.4981  1.2345
17557TIP3   OH274085   2.328   0.979  15.707 -0.8912 -0.2352  0.2481
17557TIP3    H174086   2.291   1.007  15.623  0.3806 -1.8160 -0.8788
17557TIP3    H274087   2.274   1.023  15.773 -1.6057  1.4092 -1.3948
17558TIP3   OH274088   4.114   2.291  11.538  0.2647 -0.0195 -0.3563
17558TIP3    H174089   4.095   2.348  11.463 -0.7118  0.1608  0.0287
17558TIP3    H274090   4.190   2.240  11.510 -0.5086 -0.4339 -1.7338
17559TIP3   OH274091   6.588   3.301   2.748  0.1122  0.5944 -0.2449
17559TIP3    H174092   6.509   3.265   2.789  0.1338  1.2129  0.3511
17559TIP3    H274093   6.573   3.291   2.654  0.8388 -2.4993 -0.0865
17560TIP3   OH274094   1.705   2.659  10.873 -0.0748 -0.5245  0.1524
17560TIP3    H174095   1.643   2.661  10.945 -1.1423 -1.7999 -0.7072
17560TIP3    H274096   1.675   2.728  10.813  1.9721  1.9079  1.8108
17561TIP3   OH274097   2.278   0.945  13.189  0.0998 -0.0693  0.5655
17561TIP3    H174098   2.275   1.034  13.223  0.4360 -0.1061  0.6940
17561TIP3    H274099   2.211   0.898  13.239 -0.9695  0.4108 -0.3902
17562TIP3   OH274100   5.578   2.551   0.202 -0.4924  0.4086  0.1087
17562TIP3    H174101   5.489   2.558   0.236 -0.4672 -0.5517  0.3822
17562TIP3    H274102   5.591   2.458   0.187  0.2500  0.6067 -0.5335
17563TIP3   OH274103   5.416   0.210   2.303 -0.2145  0.8275 -0.1327
17563TIP3    H174104   5.405   0.122   2.268  1.5238  0.8648 -0.8296
17563TIP3    H274105   5.331   0.252   2.291 -0.5665 -0.2084 -1.3141
17564TIP3   OH274106   6.699   2.021   0.470 -0.1421  0.1037 -0.7486
17564TIP3    H174107   6.747   1.942   0.447  1.3454  1.0043 -0.8160
17564TIP3    H274108   6.665   2.054   0.387 -1.2219 -0.7275 -0.6565
17565TIP3   OH274109   6.214   1.977   0.015  0.3140 -0.0221  0.3032
17565TIP3    H174110   6.151   1.961   0.085  1.4197 -1.6564  0.9436
17565TIP3    H274111   6.266   1.897   0.010  2.4896  1.3550 -0.0731
17566TIP3   OH274112   6.284   0.969  11.578 -0.0740  0.1895  0.1850
17566TIP3    H174113   6.340   0.992  11.505  1.4130  2.8880  2.0655
17566TIP3    H274114   6.266   1.053  11.621 -1.4749 -1.2379  2.4913
17567TIP3   OH274115   3.246   6.649   3.933 -0.5348  0.2253  0.1092
17567TIP3    H174116   3.221   6.594   3.859  1.0185 -0.4745  0.0961
17567TIP3    H274117   3.164   6.664   3.981 -0.9325 -2.3771  0.3063
17568TIP3   OH274118   1.510   0.383   5.907  0.8542 -0.5106 -0.1198
17568TIP3    H174119   1.525   0.375   6.002 -0.2285  0.2821  0.1232
17568TIP3    H274120   1.585   0.337   5.868  1.5306 -0.4965  1.1079
17569TIP3   OH274121   0.846   4.520   5.246  0.1013  0.6335 -0.1662
17569TIP3    H174122   0.826   4.613   5.259  0.0917  0.4072  1.5963
17569TIP3    H274123   0.760   4.479   5.235  0.0635  0.7418 -0.2800
17570TIP3   OH274124   0.809   0.609   5.985  0.1148  0.3433 -0.4382
17570TIP3    H174125   0.734   0.582   6.038  0.1695 -0.4812 -0.7759
17570TIP3    H274126   0.880   0.622   6.049 -0.0223  0.0660 -0.2275
17571TIP3   OH274127   0.730   2.826  13.254 -0.0176 -0.1709  0.3485
17571TIP3    H174128   0.655   2.848  13.309  0.6275  0.0217  1.1598
17571TIP3    H274129   0.805   2.829  13.313  0.5757 -0.7920 -0.3624
17572TIP3   OH274130   1.793   1.589   5.209  0.2579  0.2534 -0.3529
17572TIP3    H174131   1.817   1.498   5.188 -0.5369 -0.2540  0.8754
17572TIP3    H274132   1.704   1.598   5.175 -0.1508  0.1606  0.6867
17573TIP3   OH274133   4.881   0.917   5.948  0.4276 -0.0990  0.0207
17573TIP3    H174134   4.791   0.884   5.947  0.0802  0.8458 -0.7145
17573TIP3    H274135   4.924   0.869   6.018 -1.1140  0.6473  1.5006
17574TIP3   OH274136   0.928   3.371  17.080 -0.0097 -0.7886  0.1396
17574TIP3    H174137   1.008   3.420  17.063 -1.1498  0.6913 -1.1684
17574TIP3    H274138   0.925   3.304  17.011  0.5148 -1.3750  0.6877
17575TIP3   OH274139   5.554   5.767   2.203 -0.6561  0.6432  0.6571
17575TIP3    H174140   5.496   5.704   2.244  0.1448 -0.6286 -0.1200
17575TIP3    H274141   5.627   5.714   2.170 -0.1113  1.9328 -0.2516
17576TIP3   OH274142   4.496   1.899  13.348  0.3260  0.5068 -0.0587
17576TIP3    H174143   4.430   1.949  13.395  0.6235  1.3523 -0.5381
17576TIP3    H274144   4.577   1.912  13.398  0.4254  0.5803 -0.2375
17577TIP3   OH274145   2.589   5.915   0.852 -0.1069 -0.0805 -0.1304
17577TIP3    H174146   2.630   5.906   0.767 -2.2377  0.2621 -1.2356
17577TIP3    H274147   2.570   6.009   0.860  0.0063 -0.1244  0.6777
17578TIP3   OH274148   3.299   6.647   2.622 -0.1671 -0.1993  0.9048
17578TIP3    H174149   3.390   6.673   2.612 -0.5591  0.7690 -0.1789
17578TIP3    H274150   3.248   6.721   2.587 -1.3231 -1.5887 -0.4200
17579TIP3   OH274151   3.760   5.637  15.000  0.4516 -0.5693  0.1893
17579TIP3    H174152   3.819   5.669  15.068  1.0517  0.5577 -0.8304
17579TIP3    H274153   3.799   5.668  14.918 -1.0149 -0.6717 -0.5732
17580TIP3   OH274154   1.640   2.472  11.228 -0.2184  0.0761  0.0266
17580TIP3    H174155   1.547   2.452  11.219 -0.0369 -1.3977  1.2447
17580TIP3    H274156   1.642   2.566  11.248 -1.5254 -0.1507  1.2859
17581TIP3   OH274157   0.673   2.108  15.202 -0.0033 -0.1803  0.3032
17581TIP3    H174158   0.705   2.136  15.288  0.5974  1.8700 -0.5679
17581TIP3    H274159   0.753   2.094  15.151 -0.4119  1.0098 -0.6634
17582TIP3   OH274160   0.590   2.377  13.519 -0.4579 -0.8212 -0.1763
17582TIP3    H174161   0.593   2.469  13.543 -1.0025 -1.2049  1.4591
17582TIP3    H274162   0.680   2.347  13.528 -0.3594 -0.5517 -0.2682
17583TIP3   OH274163   0.314   6.033   2.613 -0.2504  0.6418  0.4357
17583TIP3    H174164   0.303   5.939   2.600  0.8483  0.5412  0.1455
17583TIP3    H274165   0.396   6.042   2.662  1.5604  1.5815 -2.5765
17584TIP3   OH274166   3.776   6.574  11.663  0.4190  0.0914 -0.5276
17584TIP3    H174167   3.842   6.624  11.710  1.4050 -0.7938 -0.9485
17584TIP3    H274168   3.791   6.595  11.571 -0.3654  0.4485 -0.5789
17585TIP3   OH274169   3.871   6.280   6.317  0.2303  0.3441 -0.2073
17585TIP3    H174170   3.965   6.291   6.332  0.4294 -1.1629 -0.2267
17585TIP3    H274171   3.850   6.197   6.361 -1.2848  1.1365  0.6007
17586TIP3   OH274172   4.342   5.666   1.472  0.0961 -0.3192 -0.6770
17586TIP3    H174173   4.429   5.707   1.463 -0.0157 -0.2344 -1.3748
17586TIP3    H274174   4.360   5.572   1.472  0.3456 -0.2836  0.8464
17587TIP3   OH274175   2.400   3.660  14.370  0.5815 -0.0167 -0.0972
17587TIP3    H174176   2.310   3.635  14.392  0.7499 -1.6831 -1.2275
17587TIP3    H274177   2.393   3.751  14.341 -0.6725 -0.0021  0.2177
17588TIP3   OH274178   5.233   3.117   1.773 -0.1111 -0.7253  0.2516
17588TIP3    H174179   5.276   3.127   1.857 -0.6823 -1.1300  0.5969
17588TIP3    H274180   5.234   3.205   1.734  0.4486 -0.6088  0.5351
17589TIP3   OH274181   6.689   0.049  13.551 -0.8718 -0.7080 -0.4288
17589TIP3    H174182   6.773   0.021  13.586 -0.3341 -0.2148 -1.2985
17589TIP3    H274183   6.628   0.041  13.624  0.5332  1.8996  1.1127
17590TIP3   OH274184   3.292   0.090   1.813  0.4459  0.4059  0.0524
17590TIP3    H174185   3.199   0.064   1.817  0.3885  0.7940  1.9081
17590TIP3    H274186   3.338   0.009   1.791 -0.3532  0.2700 -1.1593
17591TIP3   OH274187   0.130   6.001   5.449  0.5734  0.0262 -0.0622
17591TIP3    H174188   0.043   6.035   5.472 -0.4467 -1.0635 -2.0686
17591TIP3    H274189   0.131   5.912   5.486  0.8577  0.0658  0.0238
17592TIP3   OH274190   5.098   1.628   0.298  0.1483  0.4375  0.7905
17592TIP3    H174191   5.157   1.554   0.297  1.4694  1.4839  0.2115
17592TIP3    H274192   5.024   1.599   0.351  0.6166 -1.3004  0.5076
17593TIP3   OH274193   3.747   5.066   6.306 -0.7002  0.5850 -0.0206
17593TIP3    H174194   3.792   5.108   6.233 -0.1876  0.2507  0.1012
17593TIP3    H274195   3.723   4.979   6.274  2.6436 -0.9311  1.3076
17594TIP3   OH274196   6.410   2.912  13.439 -0.6263  0.0701  0.6404
17594TIP3    H174197   6.359   2.975  13.490 -1.6976  0.1921 -0.5639
17594TIP3    H274198   6.373   2.827  13.461 -0.9406  0.1033  0.2474
17595TIP3   OH274199   2.735   0.884  12.752  0.0915  0.5796  0.0358
17595TIP3    H174200   2.730   0.967  12.800 -0.4601  0.8740 -0.5364
17595TIP3    H274201   2.668   0.829  12.792  0.9194  0.1660  0.8752
17596TIP3   OH274202   3.347   4.904   1.359 -0.6803  0.3914 -0.0036
17596TIP3    H174203   3.274   4.894   1.422  0.0368  2.8526  1.2630
17596TIP3    H274204   3.332   4.989   1.318 -0.2110 -0.4746 -2.0233
17597TIP3   OH274205   2.977   5.488  14.115 -0.3799  0.8333 -0.1708
17597TIP3    H174206   3.055   5.537  14.088 -0.5939  1.0318 -0.4285
17597TIP3    H274207   2.906   5.552  14.111 -0.5304  0.6842  0.1940
17598TIP3   OH274208   4.819   3.265   2.864 -0.5213  0.1455  0.6239
17598TIP3    H174209   4.872   3.343   2.846 -0.1359 -0.4285 -0.8768
17598TIP3    H274210   4.797   3.231   2.777 -0.2024 -1.7353  1.2555
17599TIP3   OH274211   6.581   2.524  12.497  0.0190 -0.0035  0.2598
17599TIP3    H174212   6.492   2.556  12.479  0.5904  0.9118 -1.0057
17599TIP3    H274213   6.587   2.442  12.448 -0.1560 -0.1075  0.4103
17600TIP3   OH274214   3.026   2.679   3.934  0.1290  0.1174 -1.4722
17600TIP3    H174215   3.105   2.634   3.905 -0.6033 -0.4603 -2.6315
17600TIP3    H274216   3.055   2.768   3.953  1.2433 -0.3575 -0.9073
17601TIP3   OH274217   4.794   2.752  16.849 -0.1836 -0.5762  0.0920
17601TIP3    H174218   4.838   2.710  16.923  2.7962  1.7660 -0.2153
17601TIP3    H274219   4.844   2.723  16.773  0.0485  1.1114 -0.4186
17602TIP3   OH274220   0.158   6.233   4.963  0.1652  0.3826  0.0897
17602TIP3    H174221   0.073   6.267   4.992  0.2014  0.5401  0.0124
17602TIP3    H274222   0.144   6.139   4.953 -0.7304  0.7468 -2.3931
17603TIP3   OH274223   0.995   4.926  14.127  0.2114  0.4050 -0.1602
17603TIP3    H174224   1.046   4.860  14.079 -0.8415  0.8261 -1.8952
17603TIP3    H274225   1.044   5.007  14.115  0.3002  0.3835  0.0511
17604TIP3   OH274226   1.301   5.270  12.304  0.2855 -0.7894 -0.1152
17604TIP3    H174227   1.226   5.258  12.362 -0.1001  0.4341 -0.3543
17604TIP3    H274228   1.294   5.198  12.241  0.8799 -2.3132  1.5203
17605TIP3   OH274229   3.071   0.551  15.754 -0.3998  0.4173  0.1013
17605TIP3    H174230   3.152   0.596  15.779  0.7132 -0.6241 -1.4982
17605TIP3    H274231   3.050   0.496  15.830  0.4988  0.5738  0.4765
17606TIP3   OH274232   2.861   6.250   6.039 -0.1089 -0.2411  0.0679
17606TIP3    H174233   2.935   6.243   5.980 -0.8891  1.2610 -1.1215
17606TIP3    H274234   2.796   6.190   6.003 -0.1683 -0.1607  0.0409
17607TIP3   OH274235   5.037   4.480  14.242 -0.3543  0.3581 -0.3170
17607TIP3    H174236   5.021   4.386  14.229 -0.7634  0.5577 -1.2751
17607TIP3    H274237   5.128   4.492  14.215 -0.1570  0.1630  0.2438
17608TIP3   OH274238   1.729   3.806  12.769  0.0715 -0.3212 -0.2332
17608TIP3    H174239   1.639   3.836  12.757  1.0514  2.5306 -0.9350
17608TIP3    H274240   1.743   3.809  12.863 -0.0695  0.8424 -0.2432
17609TIP3   OH274241   4.033   3.702   4.760  0.2490  0.6694 -0.2512
17609TIP3    H174242   3.957   3.721   4.816 -0.2644 -1.4826 -0.2010
17609TIP3    H274243   4.103   3.757   4.797  0.1468 -1.2727  3.0503
17610TIP3   OH274244   4.333   4.252  11.388  0.4827 -0.1199 -0.2370
17610TIP3    H174245   4.270   4.189  11.353  2.1375 -1.7599 -0.3933
17610TIP3    H274246   4.294   4.337  11.372 -0.9915 -1.0378 -1.7160
17611TIP3   OH274247   6.115   2.637   5.245 -0.2276  0.0020  0.4084
17611TIP3    H174248   6.083   2.727   5.234 -1.5305 -0.5647 -0.6033
17611TIP3    H274249   6.102   2.617   5.337 -0.8494  0.5093  0.4298
17612TIP3   OH274250   3.851   1.558   1.846 -0.3997 -0.2031 -0.2587
17612TIP3    H174251   3.826   1.520   1.930  0.3514  1.0069  0.5369
17612TIP3    H274252   3.942   1.587   1.859 -0.2385 -0.0957 -1.5173
17613TIP3   OH274253   0.447   1.702   0.296  0.2237 -0.1311 -0.2757
17613TIP3    H174254   0.537   1.703   0.330  0.2036  0.4037 -0.2287
17613TIP3    H274255   0.458   1.709   0.201  0.2976 -2.1279 -0.4360
17614TIP3   OH274256   5.515   6.433   2.924  0.3852  0.6004 -0.2532
17614TIP3    H174257   5.533   6.521   2.891 -1.4864  0.4448 -1.7813
17614TIP3    H274258   5.490   6.383   2.846  1.1249 -1.2068  0.6434
17615TIP3   OH274259   6.314   5.792  12.037  0.1485 -0.0180  0.2117
17615TIP3    H174260   6.398   5.833  12.017 -0.1550  0.5512  0.0751
17615TIP3    H274261   6.287   5.834  12.119 -1.0578  1.4624 -0.9012
17616TIP3   OH274262   3.721   6.653  10.556  0.1018 -0.1513  0.0502
17616TIP3    H174263   3.795   6.592  10.558 -1.0492 -1.5587  2.6792
17616TIP3    H274264   3.760   6.738  10.574  1.3380 -0.5307 -0.7139
17617TIP3   OH274265   4.197   4.162  13.842  0.5631 -0.1957 -0.1657
17617TIP3    H174266   4.185   4.075  13.803  1.0924 -0.4146  0.1626
17617TIP3    H274267   4.207   4.221  13.767 -0.2643 -0.3465 -0.4031
17618TIP3   OH274268   6.304   2.532   4.503 -0.1016  0.1058  0.1267
17618TIP3    H174269   6.261   2.577   4.576  0.2101 -1.0004  1.0127
17618TIP3    H274270   6.382   2.493   4.542  0.3656 -0.0261 -0.9275
17619TIP3   OH274271   5.695   3.606  17.122 -0.0606  0.1310  0.1878
17619TIP3    H174272   5.649   3.532  17.162 -0.4737 -0.1585 -0.7957
17619TIP3    H274273   5.701   3.672  17.191 -1.4854 -0.0424  0.4877
17620TIP3   OH274274   2.128   6.704   4.700  0.0715 -0.0072 -0.2939
17620TIP3    H174275   2.205   6.749   4.666 -0.3997  0.9058 -0.1701
17620TIP3    H274276   2.163   6.634   4.754  0.8222  0.3127 -0.3598
17621TIP3   OH274277   2.630   1.054   5.845  0.2838 -0.1921 -0.5053
17621TIP3    H174278   2.722   1.056   5.820 -0.1845  0.7284 -2.2631
17621TIP3    H274279   2.616   0.966   5.880  1.8296 -0.3239 -0.2021
17622TIP3   OH274280   0.343   3.885  16.230 -0.0762  0.0409  0.1880
17622TIP3    H174281   0.411   3.920  16.288 -0.2031  1.3045 -0.3997
17622TIP3    H274282   0.377   3.900  16.142 -1.1530  0.7762 -0.1130
17623TIP3   OH274283   5.130   4.798   4.708 -0.2384 -0.1285  0.2656
17623TIP3    H174284   5.181   4.877   4.693  1.8252 -0.8456  3.0345
17623TIP3    H274285   5.060   4.826   4.768 -1.1561  0.1555 -0.9238
17624TIP3   OH274286   3.711   4.647  13.283 -0.1753  0.2881  0.5021
17624TIP3    H174287   3.707   4.727  13.230  0.6092 -0.0536 -0.0880
17624TIP3    H274288   3.734   4.579  13.221 -0.3401 -0.3104  1.0971
17625TIP3   OH274289   5.685   5.077   5.823 -0.5095  0.4429  0.0715
17625TIP3    H174290   5.628   5.021   5.877 -0.9664  1.7255  0.9476
17625TIP3    H274291   5.762   5.023   5.806 -1.2466 -0.7135  0.2907
17626TIP3   OH274292   1.194   1.740  12.093 -0.2960 -0.1960 -0.3795
17626TIP3    H174293   1.169   1.833  12.096  0.0341 -0.1293  0.7935
17626TIP3    H274294   1.215   1.724  12.001 -0.9005  0.7498 -0.6950
17627TIP3   OH274295   5.609   3.896   1.621  0.0772 -0.1383  0.3753
17627TIP3    H174296   5.556   3.976   1.616 -1.3491 -1.0582  0.6486
17627TIP3    H274297   5.565   3.842   1.687  1.7349 -0.6396  1.0797
17628TIP3   OH274298   2.897   5.578  10.828  0.1499  0.1226  0.0497
17628TIP3    H174299   2.951   5.657  10.831  0.4321  0.0229 -1.7468
17628TIP3    H274300   2.829   5.598  10.764 -1.1148 -0.2626  1.2805
17629TIP3   OH274301   4.541   6.731   5.988 -0.2415 -0.1967  0.0741
17629TIP3    H174302   4.633   6.744   6.012  0.1687 -2.4201 -0.2231
17629TIP3    H274303   4.492   6.779   6.054  1.1408  1.8083 -0.2956
17630TIP3   OH274304   2.363   3.319   1.455 -0.1969  0.8034  0.6639
17630TIP3    H174305   2.354   3.399   1.508  0.7798 -0.0871  2.2037
17630TIP3    H274306   2.348   3.349   1.365  3.6335  3.4337  0.7911
17631TIP3   OH274307   1.112   6.171   2.345  0.1250  0.0025  0.0419
17631TIP3    H174308   1.041   6.201   2.402 -0.1591 -1.2422  0.3572
17631TIP3    H274309   1.072   6.102   2.292  0.9932 -0.4054 -0.0862
17632TIP3   OH274310   6.546   6.396  14.933 -0.2210 -0.4083  0.1289
17632TIP3    H174311   6.511   6.369  15.018  0.6268 -0.7085  0.3870
17632TIP3    H274312   6.606   6.326  14.908 -0.3858 -0.2720 -0.6748
17633TIP3   OH274313   6.619   1.607  12.762  0.3044 -0.3809 -0.0575
17633TIP3    H174314   6.558   1.673  12.730 -0.9311 -2.1063 -1.3276
17633TIP3    H274315   6.601   1.600  12.855 -2.7773 -2.2005 -0.7267
17634TIP3   OH274316   5.039   4.530   2.542 -0.4337  0.3794 -0.1532
17634TIP3    H174317   5.046   4.458   2.604 -0.4860  0.2149 -0.3380
17634TIP3    H274318   4.950   4.522   2.506 -0.4613  0.5712 -0.1299
17635TIP3   OH274319   3.669   3.803   1.390  0.4414 -0.2304 -0.4560
17635TIP3    H174320   3.607   3.874   1.409 -0.9324 -1.8794  1.4227
17635TIP3    H274321   3.623   3.747   1.329  1.5243  0.4587 -1.9285
17636TIP3   OH274322   5.461   3.377   2.411  0.2375 -0.4112 -0.6011
17636TIP3    H174323   5.378   3.418   2.385  1.3090  0.7535 -2.2907
17636TIP3    H274324   5.437   3.286   2.432 -1.2778 -0.4252 -2.2443
17637TIP3   OH274325   3.119   3.966  11.442  0.8108 -0.4474 -0.3046
17637TIP3    H174326   3.081   3.938  11.524  1.7287  0.0721  0.3087
17637TIP3    H274327   3.102   3.894  11.381 -1.7583  0.0721 -0.2469
17638TIP3   OH274328   3.538   2.190   6.005 -0.1657  0.5205 -0.3313
17638TIP3    H174329   3.595   2.233   6.069 -0.0677  1.2264 -0.8913
17638TIP3    H274330   3.490   2.124   6.056  1.6935 -0.6096  0.0072
17639TIP3   OH274331   0.098   0.308  15.273  0.1527 -0.0442 -0.5113
17639TIP3    H174332   0.077   0.372  15.204 -0.9242 -2.6271 -2.6720
17639TIP3    H274333   0.046   0.231  15.250  0.9437 -1.4909  2.4016
17640TIP3   OH274334   3.847   0.264   1.751 -0.4273 -0.1742 -0.3462
17640TIP3    H174335   3.793   0.212   1.810  0.9984 -1.6388 -0.3066
17640TIP3    H274336   3.857   0.210   1.673  2.0056 -0.4935  0.1349
17641TIP3   OH274337   1.525   4.461   1.595  0.0914 -0.0285 -0.2757
17641TIP3    H174338   1.553   4.388   1.649  1.8524 -0.2366 -1.4343
17641TIP3    H274339   1.445   4.430   1.552  0.3180 -0.9170 -0.0637
17642TIP3   OH274340   0.275   3.272   2.054  0.0054 -0.1430 -0.4106
17642TIP3    H174341   0.340   3.334   2.086 -0.1710 -0.1887  0.0411
17642TIP3    H274342   0.268   3.291   1.961  0.2252  0.2646 -0.3465
17643TIP3   OH274343   6.030   3.073  16.895  0.4196  0.2198  0.7934
17643TIP3    H174344   6.096   3.138  16.918  0.7631  0.2432 -0.2303
17643TIP3    H274345   5.951   3.101  16.942  0.4868  1.5463  0.1393
17644TIP3   OH274346   4.951   0.208   2.924  0.0358  0.1633 -0.3918
17644TIP3    H174347   4.924   0.252   2.844  0.6334 -1.0660 -1.2845
17644TIP3    H274348   5.044   0.230   2.933 -0.4789  1.8704  1.0165
17645TIP3   OH274349   6.696   0.641  15.045  0.0088  0.3396 -0.0762
17645TIP3    H174350   6.737   0.568  14.999 -1.2959  0.1208 -0.8984
17645TIP3    H274351   6.606   0.612  15.060 -0.5132  1.7861 -0.4021
17646TIP3   OH274352   1.271   1.551   0.289 -0.0101 -0.2818 -0.2230
17646TIP3    H174353   1.327   1.473   0.292 -0.4106 -0.5527  0.4922
17646TIP3    H274354   1.316   1.611   0.231  0.1080 -1.2059 -1.1122
17647TIP3   OH274355   0.151   1.469   3.464 -0.1074  0.3731  0.2541
17647TIP3    H174356   0.191   1.490   3.549  0.3227 -0.2127  0.2044
17647TIP3    H274357   0.226   1.465   3.403 -0.3696  0.3968 -0.0702
17648TIP3   OH274358   3.275   3.890   0.843  0.2405  0.1261  0.3120
17648TIP3    H174359   3.302   3.851   0.926 -0.1150  0.4980  0.6023
17648TIP3    H274360   3.182   3.869   0.835  0.0897  0.7438  0.3804
17649TIP3   OH274361   5.323   5.554  12.277 -0.4069  0.4877 -0.6297
17649TIP3    H174362   5.408   5.514  12.293 -0.6624 -0.5148 -1.6852
17649TIP3    H274363   5.266   5.520  12.346  0.3737  2.2831  0.9459
17650TIP3   OH274364   3.428   3.049   4.741 -0.0060 -0.9445  0.5854
17650TIP3    H174365   3.497   3.063   4.805  1.6925 -1.5133 -1.0623
17650TIP3    H274366   3.406   3.136   4.709  1.7307 -0.9257 -0.6504
17651TIP3   OH274367   0.687   4.883  14.198 -0.7074  0.0190 -0.2999
17651TIP3    H174368   0.769   4.851  14.159 -0.5470  0.2672 -0.1654
17651TIP3    H274369   0.706   4.972  14.225 -1.5260  0.6780 -1.7946
17652TIP3   OH274370   3.111   6.742   5.589  0.8837  0.2220  0.8716
17652TIP3    H174371   3.093   6.802   5.660  0.6517 -0.5568  1.4791
17652TIP3    H274372   3.162   6.672   5.629  1.1663  0.0170  0.1715
17653TIP3   OH274373   1.000   5.917  15.351  0.1734 -0.0903  0.5080
17653TIP3    H174374   0.986   5.824  15.371 -2.6035  0.4160  1.1413
17653TIP3    H274375   1.034   5.954  15.433  3.6933 -0.9650 -0.4690
17654TIP3   OH274376   2.691   3.018  14.357  0.1126 -0.7497  0.7251
17654TIP3    H174377   2.710   2.981  14.443  0.2110 -0.5362  0.7950
17654TIP3    H274378   2.720   3.109  14.362 -0.1256 -0.6625  0.5510
17655TIP3   OH274379   6.137   6.092   2.419  0.5554  0.4155 -0.3091
17655TIP3    H174380   6.076   6.163   2.396 -0.8176 -0.6788 -0.1278
17655TIP3    H274381   6.105   6.017   2.369  2.0882 -0.0473 -0.6118
17656TIP3   OH274382   0.380   5.590  15.400 -0.0097 -0.0447 -0.4648
17656TIP3    H174383   0.464   5.624  15.371  0.7818 -1.0913  0.5858
17656TIP3    H274384   0.323   5.598  15.323  0.6627  1.9124 -0.7740
17657TIP3   OH274385   1.332   4.410   2.567 -0.3763 -0.4860 -0.1836
17657TIP3    H174386   1.427   4.399   2.562 -0.5526 -0.8448 -4.5787
17657TIP3    H274387   1.300   4.328   2.606  1.0842 -0.4134  1.1837
17658TIP3   OH274388   0.041   4.327  14.585  0.1149 -0.0486 -0.0266
17658TIP3    H174389   0.073   4.284  14.664 -0.6518  0.6643  0.6801
17658TIP3    H274390   0.074   4.273  14.513 -0.4622 -1.5735  0.8274
17659TIP3   OH274391   3.594   1.276  14.267 -0.5017  0.2168 -0.1951
17659TIP3    H174392   3.661   1.338  14.238 -0.9533  0.3487 -0.9676
17659TIP3    H274393   3.525   1.284  14.202  0.3703 -2.6826 -1.5548
17660TIP3   OH274394   3.626   4.506  14.463  0.6088  0.3011  0.0198
17660TIP3    H174395   3.627   4.602  14.458  1.0925  0.3096  0.3260
17660TIP3    H274396   3.548   4.486  14.514  1.7952  0.6154  1.9949
17661TIP3   OH274397   2.489   3.577   5.083  0.4622  0.1221 -0.2248
17661TIP3    H174398   2.574   3.607   5.050 -0.0202 -0.7350 -2.3347
17661TIP3    H274399   2.508   3.543   5.171  2.2145  0.4264 -0.4717
17662TIP3   OH274400   2.236   6.433  13.050 -0.5952  0.3296  0.6044
17662TIP3    H174401   2.171   6.463  13.114 -2.7521  0.2225 -1.4896
17662TIP3    H274402   2.301   6.504  13.047 -1.9559  1.6035  0.8508
17663TIP3   OH274403   1.210   2.799  10.593 -0.1150  0.0848 -0.0737
17663TIP3    H174404   1.253   2.852  10.525  1.1621 -1.6231 -0.6276
17663TIP3    H274405   1.264   2.812  10.671  0.3180 -0.5560 -0.2643
17664TIP3   OH274406   0.238   4.694  16.486 -0.1925 -0.0216 -0.1391
17664TIP3    H174407   0.151   4.698  16.528 -1.3927 -1.0298 -2.4437
17664TIP3    H274408   0.220   4.666  16.397  2.5495 -0.3121 -0.6387
17665TIP3   OH274409   5.148   4.349  15.908 -0.3159  0.4510  0.2713
17665TIP3    H174410   5.126   4.441  15.923  2.1802  1.3646 -1.3906
17665TIP3    H274411   5.088   4.321  15.839  0.8721  1.7329 -1.3357
17666TIP3   OH274412   3.473   6.438   2.255 -0.2657 -0.3270 -0.4615
17666TIP3    H174413   3.482   6.431   2.350  1.6537  1.3348 -0.4786
17666TIP3    H274414   3.463   6.532   2.239  1.9311 -0.3143 -2.0446
17667TIP3   OH274415   2.292   4.520   4.163 -0.0917  0.2268  0.1941
17667TIP3    H174416   2.288   4.614   4.148 -0.6249  0.6766  2.8330
17667TIP3    H274417   2.201   4.495   4.181  0.2036 -0.6068  0.5212
17668TIP3   OH274418   5.955   4.708  12.660 -0.2974  0.1334  0.6865
17668TIP3    H174419   5.890   4.706  12.729 -0.2985 -0.9220  0.6688
17668TIP3    H274420   5.980   4.800  12.652 -1.2561  0.4366  1.1810
17669TIP3   OH274421   6.278   1.963  16.519 -0.6478  0.3948 -0.2673
17669TIP3    H174422   6.227   2.044  16.525 -1.1808  0.0912 -0.5980
17669TIP3    H274423   6.328   1.971  16.438  0.2787  0.9503  0.3637
17670TIP3   OH274424   4.150   3.240  15.922  0.2849  0.2813  0.8126
17670TIP3    H174425   4.076   3.179  15.926 -0.3639  0.8487 -1.8459
17670TIP3    H274426   4.227   3.184  15.934 -0.3521 -0.9765 -0.7066
17671TIP3   OH274427   6.626   6.238  13.435  0.1983 -0.3186  0.1200
17671TIP3    H174428   6.608   6.278  13.350  1.5426  0.9242  0.4199
17671TIP3    H274429   6.667   6.154  13.413  1.8283  0.6100 -0.4615
17672TIP3   OH274430   6.282   6.502  13.489 -0.0407 -0.1726  0.3722
17672TIP3    H174431   6.248   6.591  13.483  0.4993  0.0374  0.4248
17672TIP3    H274432   6.361   6.510  13.543  0.8695 -0.4527 -0.9103
17673TIP3   OH274433   6.634   6.751   4.435  0.2612  0.5129  0.2553
17673TIP3    H174434   6.559   6.780   4.487 -0.0195  0.0420  0.1152
17673TIP3    H274435   6.684   6.831   4.418 -0.8928  1.0352 -0.7575
17674TIP3   OH274436   0.146   4.377   0.224  0.0243 -0.6652 -0.0685
17674TIP3    H174437   0.100   4.447   0.271  0.3200  0.3550 -1.2702
17674TIP3    H274438   0.225   4.419   0.189  0.7153 -1.8450  0.0387
17675TIP3   OH274439   3.417   5.875   0.270 -0.2612  0.1513  0.8781
17675TIP3    H174440   3.457   5.852   0.186 -0.3235  0.7367  0.6810
17675TIP3    H274441   3.357   5.803   0.289 -1.1441  0.5963 -0.1793
17676TIP3   OH274442   1.179   4.047  10.857 -0.0314  0.3061  0.1936
17676TIP3    H174443   1.158   3.954  10.855 -0.9767  0.5223 -0.3809
17676TIP3    H274444   1.109   4.089  10.807  0.4099  1.3206  0.4000
17677TIP3   OH274445   2.847   1.572   5.836  0.6692 -0.8100  0.7485
17677TIP3    H174446   2.802   1.501   5.792  0.9547 -0.8800  0.5660
17677TIP3    H274447   2.856   1.543   5.927 -1.1159 -0.0953  1.1714
17678TIP3   OH274448   1.398   2.764   5.050  0.2766 -0.4328 -0.0323
17678TIP3    H174449   1.316   2.805   5.024  0.6225  0.7490  0.6983
17678TIP3    H274450   1.377   2.671   5.059 -0.5487 -0.4149 -1.5875
17679TIP3   OH274451   3.064   2.876  14.254 -1.1343  0.2036 -0.0035
17679TIP3    H174452   3.122   2.830  14.192 -1.6926 -0.8805  0.2747
17679TIP3    H274453   3.036   2.954  14.206 -0.4479  0.0885 -0.6097
17680TIP3   OH274454   2.281   3.295   1.952 -0.3429  0.7740  0.0542
17680TIP3    H174455   2.260   3.327   1.864 -0.8186 -0.1085 -0.1576
17680TIP3    H274456   2.298   3.202   1.941 -0.6260  0.6103  0.9318
17681TIP3   OH274457   0.258   4.542  12.256  0.4162 -0.1170 -0.3289
17681TIP3    H174458   0.310   4.610  12.300 -0.5769  0.3283  0.1759
17681TIP3    H274459   0.317   4.467  12.250  0.9196  0.1850  0.7750
17682TIP3   OH274460   5.484   5.048   4.824  0.4172 -0.0338 -0.1990
17682TIP3    H174461   5.419   4.977   4.815  1.1827 -0.5996 -1.3874
17682TIP3    H274462   5.510   5.045   4.916 -0.8654 -0.1406  0.1705
17683TIP3   OH274463   2.351   0.157  14.340  0.0670  0.1010  0.1189
17683TIP3    H174464   2.282   0.192  14.397  0.5645 -1.4380  1.7093
17683TIP3    H274465   2.390   0.086  14.390  0.5125 -1.3320 -2.1614
17684TIP3   OH274466   4.698   6.051   2.860  0.6582  0.9456 -0.0242
17684TIP3    H174467   4.741   6.117   2.807 -0.1556 -0.2741 -2.2891
17684TIP3    H274468   4.620   6.094   2.895  1.2457  1.7863  0.2434
17685TIP3   OH274469   3.282   2.991  12.059 -0.1150  0.3655 -0.0805
17685TIP3    H174470   3.328   3.074  12.077  1.6829 -0.5976 -0.0403
17685TIP3    H274471   3.229   3.009  11.982  1.3061  1.1957 -0.9033
17686TIP3   OH274472   0.546   4.861   5.030 -0.0563  0.7323 -0.4251
17686TIP3    H174473   0.463   4.897   4.997  0.0294  1.8187  0.5245
17686TIP3    H274474   0.573   4.923   5.098  1.0990 -0.0893 -0.1390
17687TIP3   OH274475   3.500   4.006  16.024  0.6069 -0.6429  0.0342
17687TIP3    H174476   3.557   3.989  15.950  0.7004 -0.1353 -0.0090
17687TIP3    H274477   3.443   4.077  15.995  1.9481  0.9146  1.1359
17688TIP3   OH274478   0.309   5.282  14.848 -0.1760 -0.2365 -0.5101
17688TIP3    H174479   0.222   5.244  14.846 -0.1172 -0.3388 -1.3042
17688TIP3    H274480   0.296   5.373  14.822 -0.2096  0.0784  0.5921
17689TIP3   OH274481   2.907   6.388   4.270  0.1591  0.4086  0.3110
17689TIP3    H174482   2.919   6.413   4.361 -0.7528  1.4640  0.1537
17689TIP3    H274483   2.900   6.472   4.223  0.1613 -0.1261 -0.6555
17690TIP3   OH274484   0.004   2.507  16.224 -0.6606 -0.0120  0.1536
17690TIP3    H174485  -0.076   2.496  16.172 -0.1709  0.0101 -0.6183
17690TIP3    H274486   0.011   2.426  16.275 -1.0450 -0.1144  0.0453
17691TIP3   OH274487   1.053   2.467  16.315 -0.0726 -0.6779  0.1848
17691TIP3    H174488   1.068   2.403  16.384  0.3640 -0.8995 -0.1129
17691TIP3    H274489   1.026   2.547  16.361  0.3083 -0.7967  0.6174
17692TIP3   OH274490   5.528   5.544  16.943 -0.0755  0.4108 -0.0569
17692TIP3    H174491   5.520   5.634  16.973  0.3762  0.3336  0.3019
17692TIP3    H274492   5.559   5.551  16.852 -0.0605  0.6129 -0.0374
17693TIP3   OH274493   1.247   4.394  11.339  0.3122  0.0177 -0.2791
17693TIP3    H174494   1.263   4.453  11.412  0.6297 -0.0626 -0.2853
17693TIP3    H274495   1.152   4.381  11.339 -0.0182  2.1427 -1.5145
17694TIP3   OH274496   6.548   5.987   1.396  0.4568  0.6696  0.0365
17694TIP3    H174497   6.485   6.030   1.454 -1.3253 -0.2535 -1.1323
17694TIP3    H274498   6.507   5.903   1.376  1.9545  0.1718 -0.9864
17695TIP3   OH274499   5.113   2.261  12.975 -0.1376  0.1240 -0.0161
17695TIP3    H174500   5.058   2.316  13.029  0.0369  0.5767 -0.2979
17695TIP3    H274501   5.110   2.301  12.888  0.6988  0.1996 -0.0163
17696TIP3   OH274502   3.542   2.222   4.961 -0.3002 -0.3021  0.0668
17696TIP3    H174503   3.557   2.148   5.021 -1.7760 -0.3770  0.3836
17696TIP3    H274504   3.506   2.181   4.882  1.6094 -0.1985 -0.8902
17697TIP3   OH274505   1.253   3.096   5.907  0.8175  0.2227 -0.2988
17697TIP3    H174506   1.269   3.127   5.997  2.2422  0.4051 -0.6003
17697TIP3    H274507   1.279   3.004   5.908 -1.9673 -0.6120  0.2031
17698TIP3   OH274508   4.761   4.963   5.095 -0.3906  0.3355 -0.0316
17698TIP3    H174509   4.833   4.901   5.101 -0.1046  0.8120  2.1973
17698TIP3    H274510   4.794   5.034   5.040  1.4549  1.2902  2.2134
17699TIP3   OH274511   3.967   3.682  13.204 -0.0560  0.0556 -0.3270
17699TIP3    H174512   4.023   3.669  13.280 -0.2878  0.3595 -0.1018
17699TIP3    H274513   3.908   3.607  13.205 -0.8703  0.6900  0.5129
17700TIP3   OH274514   5.074   6.429  15.295 -0.0146  0.0759  0.2405
17700TIP3    H174515   5.170   6.423  15.296  0.0336  0.6757 -0.2348
17700TIP3    H274516   5.046   6.388  15.376  0.6552 -0.0594  0.4004
17701TIP3   OH274517   3.708   2.324   0.072  0.2371  0.2025 -0.1081
17701TIP3    H174518   3.624   2.305   0.114 -0.1586  2.0167 -0.0334
17701TIP3    H274519   3.753   2.240   0.070 -1.5131 -0.7631 -0.0012
17702TIP3   OH274520   1.788   3.799   3.886 -0.0440 -0.0412  0.2221
17702TIP3    H174521   1.729   3.775   3.956  0.5017 -1.5301  0.2024
17702TIP3    H274522   1.875   3.779   3.920  0.3396  0.7601 -0.2725
17703TIP3   OH274523   1.993   1.402   3.619  0.1527  0.9359 -0.2405
17703TIP3    H174524   2.030   1.419   3.532 -0.1839  1.1525 -0.3430
17703TIP3    H274525   1.992   1.488   3.661  0.9469  0.7218  0.2261
17704TIP3   OH274526   4.946   6.034   0.745 -0.1517 -0.2270  0.4208
17704TIP3    H174527   4.967   5.949   0.706  1.4948 -0.1901  1.1751
17704TIP3    H274528   5.029   6.064   0.782 -1.3852  0.2721  2.8937
17705TIP3   OH274529   5.023   1.398  14.091  1.0483 -0.1044 -0.2989
17705TIP3    H174530   5.099   1.381  14.146  0.1409 -1.8462  0.4555
17705TIP3    H274531   4.948   1.394  14.150  0.1018 -1.5283 -1.5387
17706TIP3   OH274532   2.195   6.472   0.605 -0.0611 -0.2206 -0.1826
17706TIP3    H174533   2.257   6.402   0.584  0.1481 -0.6235  1.6676
17706TIP3    H274534   2.110   6.428   0.612 -0.1585 -0.0599 -0.3348
17707TIP3   OH274535   3.961   2.836  14.671 -0.1943  0.2145  0.2710
17707TIP3    H174536   3.925   2.752  14.644 -0.3550  0.9245 -1.8092
17707TIP3    H274537   3.884   2.889  14.694 -0.1813  0.2519  0.2280
17708TIP3   OH274538   3.608   5.531  15.851  0.0147 -0.6633  0.7190
17708TIP3    H174539   3.624   5.622  15.877  1.2775 -0.8834  0.7601
17708TIP3    H274540   3.564   5.537  15.767 -1.9465  0.0199  1.7516
17709TIP3   OH274541   3.343   0.541   0.355  0.2216  0.0790  0.0962
17709TIP3    H174542   3.400   0.606   0.397 -1.2134  0.6303  1.2457
17709TIP3    H274543   3.387   0.458   0.372  1.3583  0.6134 -0.1683
17710TIP3   OH274544   2.196   0.375   1.233  0.2655  0.2078  0.3313
17710TIP3    H174545   2.285   0.402   1.212 -0.1187  0.1093 -1.4929
17710TIP3    H274546   2.199   0.279   1.231 -0.0071  0.2082 -0.3358
17711TIP3   OH274547   2.862   5.082  13.353  0.0905  0.7721 -0.4346
17711TIP3    H174548   2.865   5.174  13.379 -0.0835  0.5731  0.3085
17711TIP3    H274549   2.949   5.048  13.376  0.0645  0.6869 -0.4634
17712TIP3   OH274550   5.771   5.612   6.578 -0.6587 -0.1485 -0.2603
17712TIP3    H174551   5.833   5.679   6.552  0.4309 -1.1832 -0.3556
17712TIP3    H274552   5.817   5.560   6.644 -1.1222 -1.3883 -0.8851
17713TIP3   OH274553   2.435   2.682  15.614  0.1635 -0.4579 -0.3589
17713TIP3    H174554   2.389   2.729  15.544 -1.8293  0.4022  1.4720
17713TIP3    H274555   2.386   2.599  15.623 -0.4540  0.0304  0.9220
17714TIP3   OH274556   4.351   0.141   0.589  0.2098 -0.0932  0.0687
17714TIP3    H174557   4.296   0.070   0.622 -0.5520  0.7731  0.7031
17714TIP3    H274558   4.291   0.192   0.534  0.4053  0.8052  0.6880
17715TIP3   OH274559   0.002   1.108  13.214  0.1271  0.5866 -0.4793
17715TIP3    H174560  -0.053   1.186  13.203  0.5606  0.9449 -0.1525
17715TIP3    H274561  -0.060   1.035  13.216 -0.5610  1.1824  2.2241
17716TIP3   OH274562   2.730   1.108  13.260 -0.2639  0.2328 -0.2619
17716TIP3    H174563   2.737   1.176  13.193  0.4048  0.7029  0.2627
17716TIP3    H274564   2.686   1.152  13.333 -0.8723 -0.2339 -0.3556
17717TIP3   OH274565   0.506   2.329   0.018  0.0762 -0.2635  0.2041
17717TIP3    H174566   0.557   2.408   0.035  1.5584 -1.1332 -0.0823
17717TIP3    H274567   0.511   2.316  -0.076  1.0108 -1.4364  0.3918
17718TIP3   OH274568   1.659   2.255  13.281 -0.5922 -0.0384 -0.2465
17718TIP3    H174569   1.664   2.350  13.277 -0.1572 -0.0779 -0.7478
17718TIP3    H274570   1.602   2.231  13.208 -0.2080 -0.1990 -0.4950
17719TIP3   OH274571   2.167   3.191   2.755 -0.0712  0.2164 -0.0443
17719TIP3    H174572   2.236   3.256   2.738 -0.0754  1.0075  2.7511
17719TIP3    H274573   2.098   3.213   2.693  0.8054  1.5347 -0.5903
17720TIP3   OH274574   1.948   1.096   0.352 -0.0618  0.3324  0.2023
17720TIP3    H174575   1.961   1.061   0.264 -1.7524 -0.0957  0.0899
17720TIP3    H274576   1.983   1.028   0.410 -1.7525 -0.7992 -0.0694
17721TIP3   OH274577   1.531   1.812  16.478  0.4132 -0.0974  0.4165
17721TIP3    H174578   1.474   1.886  16.457 -0.5234 -0.7445  0.6587
17721TIP3    H274579   1.592   1.807  16.404  0.7459  1.1568  0.5875
17722TIP3   OH274580   1.526   3.465  12.524 -0.7950 -0.7525  0.0496
17722TIP3    H174581   1.532   3.484  12.430  0.6624 -1.9781 -0.1322
17722TIP3    H274582   1.441   3.500  12.550 -1.0156  0.0435 -1.6230
17723TIP3   OH274583   3.167   6.453   3.745 -0.0002 -0.2840  0.8698
17723TIP3    H174584   3.080   6.415   3.730 -0.9076  2.4609 -1.2479
17723TIP3    H274585   3.224   6.411   3.681 -0.4351  0.1103  0.2276
17724TIP3   OH274586   3.075   5.984   6.486 -0.6341  0.3114  0.0783
17724TIP3    H174587   3.145   5.925   6.512 -0.6470 -0.1791 -0.9714
17724TIP3    H274588   3.120   6.068   6.469 -0.4584  0.2976  0.4855
17725TIP3   OH274589   4.441   4.973   4.523  0.1615  0.3525  0.1032
17725TIP3    H174590   4.444   4.884   4.557  0.5799 -0.0298 -0.9133
17725TIP3    H274591   4.524   4.985   4.478  0.5252  1.6015  1.0621
17726TIP3   OH274592   0.272   2.968   0.927 -0.0906 -0.3538  0.5096
17726TIP3    H174593   0.183   2.937   0.947 -0.1104  0.0670  1.0715
17726TIP3    H274594   0.329   2.911   0.979 -0.1317  0.6177  1.6229
17727TIP3   OH274595   6.579   0.497  13.870 -0.2757 -0.0053 -0.1357
17727TIP3    H174596   6.513   0.559  13.901  0.5240  1.0726 -0.5578
17727TIP3    H274597   6.633   0.547  13.809  0.7217 -0.9649 -0.0632
17728TIP3   OH274598   3.755   5.227   2.585  0.4371 -0.4816  0.0105
17728TIP3    H174599   3.783   5.173   2.659 -0.4138 -1.9107 -0.6847
17728TIP3    H274600   3.828   5.287   2.570  1.5613 -1.6878  0.5671
17729TIP3   OH274601   3.029   4.150   1.665  0.3476 -0.0288  0.8564
17729TIP3    H174602   3.025   4.054   1.666  1.0219 -0.0847 -0.5512
17729TIP3    H274603   3.058   4.173   1.754  2.0813 -1.2487  0.6437
17730TIP3   OH274604   6.539   3.297   0.355  0.2180 -0.3848  1.4203
17730TIP3    H174605   6.596   3.373   0.367 -0.3362  0.4125 -0.6280
17730TIP3    H274606   6.450   3.334   0.354 -0.0428 -0.9969  0.2587
17731TIP3   OH274607   4.797   1.506  16.343  0.6206  0.3757 -0.0431
17731TIP3    H174608   4.791   1.554  16.426 -1.3234  0.5911 -0.2912
17731TIP3    H274609   4.784   1.572  16.276 -1.0242 -0.3254 -0.4159
17732TIP3   OH274610   5.669   3.601  11.688 -0.5146 -0.0731  0.0081
17732TIP3    H174611   5.721   3.532  11.728 -0.3781  0.3491  0.5688
17732TIP3    H274612   5.628   3.646  11.762  2.1353  2.6469 -0.1147
17733TIP3   OH274613   0.503   5.978  12.941  0.5353 -0.2932  0.3491
17733TIP3    H174614   0.597   5.982  12.925  0.5305  0.5447  0.5482
17733TIP3    H274615   0.466   6.049  12.889 -0.1049 -1.2515 -0.5413
17734TIP3   OH274616   0.287   3.176  14.973  0.1029  0.0326  0.1817
17734TIP3    H174617   0.338   3.132  15.041 -0.7580 -0.0546  0.7729
17734TIP3    H274618   0.277   3.265  15.004 -0.6780 -0.1251  0.3819
17735TIP3   OH274619   0.915   3.329   2.079  0.2651 -0.3424 -0.4012
17735TIP3    H174620   0.977   3.343   2.151 -0.0561 -1.5877  0.1334
17735TIP3    H274621   0.870   3.413   2.069 -0.3083 -0.4043  1.4536
17736TIP3   OH274622   5.730   3.453  16.018 -0.0190  0.3334  0.8044
17736TIP3    H174623   5.726   3.545  15.990  0.6311  0.3354  0.7041
17736TIP3    H274624   5.672   3.407  15.956  2.9389  0.0380 -1.8680
17737TIP3   OH274625   4.194   0.051   3.289 -0.0505 -0.4597 -0.2114
17737TIP3    H174626   4.124  -0.014   3.284 -0.5021 -0.0399  0.5065
17737TIP3    H274627   4.252   0.019   3.358 -0.0804 -0.2879 -0.1060
17738TIP3   OH274628   0.978   5.169  13.156 -0.3399  0.1998  0.0593
17738TIP3    H174629   0.987   5.260  13.130  0.3882 -0.2043 -1.1343
17738TIP3    H274630   0.959   5.173  13.250 -0.3470  1.5743  0.0115
17739TIP3   OH274631   2.363   6.284   1.655 -0.3866 -0.0518 -0.2535
17739TIP3    H174632   2.418   6.361   1.644 -0.5845  0.0197 -0.7494
17739TIP3    H274633   2.292   6.296   1.593  1.1042 -2.0005 -2.4274
17740TIP3   OH274634   0.864   4.825   5.811  0.2287  0.1458 -0.1742
17740TIP3    H174635   0.813   4.801   5.888  3.1134 -0.9026  1.4924
17740TIP3    H274636   0.832   4.911   5.786  0.6239  1.3977  3.4754
17741TIP3   OH274637   0.964   2.888  12.569  0.2685  0.6398 -0.2841
17741TIP3    H174638   0.891   2.848  12.617  0.8359 -0.8003 -0.5903
17741TIP3    H274639   1.039   2.880  12.628  0.2426  1.8607 -0.0843
17742TIP3   OH274640   1.277   5.921  14.286  0.3992  0.4412  0.2081
17742TIP3    H174641   1.230   6.001  14.264 -0.5440 -0.1967 -0.1232
17742TIP3    H274642   1.264   5.911  14.380 -0.0150  0.3409  0.1403
17743TIP3   OH274643   6.505   6.367  11.686 -0.8127  0.8789  0.1191
17743TIP3    H174644   6.511   6.273  11.668 -0.7805  0.8821  0.1150
17743TIP3    H274645   6.574   6.406  11.633  0.6379  0.6798  1.8115
17744TIP3   OH274646   1.598   6.059  13.434  0.3816  0.0979  0.1808
17744TIP3    H174647   1.602   6.107  13.351  2.0494 -0.5901 -0.1623
17744TIP3    H274648   1.680   6.081  13.478 -0.4386  0.3627  1.6095
17745TIP3   OH274649   0.410   1.410   4.333 -0.9041  1.0674 -0.0011
17745TIP3    H174650   0.477   1.342   4.333  1.0237  2.8938 -0.7674
17745TIP3    H274651   0.342   1.377   4.274 -0.9578 -1.0363  1.1769
17746TIP3   OH274652   4.747   6.623   1.430  0.0415  0.2159  0.6417
17746TIP3    H174653   4.676   6.614   1.366  0.5433  0.5853  0.0180
17746TIP3    H274654   4.705   6.655   1.509 -0.2816  1.8653 -0.1701
17747TIP3   OH274655   1.279   3.675   1.624 -0.2504  0.1105 -0.2509
17747TIP3    H174656   1.266   3.670   1.530 -1.3456  0.4396 -0.1255
17747TIP3    H274657   1.191   3.677   1.661  0.1436  1.3286  0.6969
17748TIP3   OH274658   6.554   4.359  17.214  0.1530 -0.2950  0.1257
17748TIP3    H174659   6.520   4.283  17.261 -0.3054  0.7323  1.4824
17748TIP3    H274660   6.485   4.425  17.223  1.1178  0.7147  0.0816
17749TIP3   OH274661   1.446   0.522   2.215  0.1703  0.3650 -0.0041
17749TIP3    H174662   1.479   0.509   2.126  0.6488 -1.8802  0.4693
17749TIP3    H274663   1.353   0.502   2.209 -0.0747  1.5443 -0.2621
17750TIP3   OH274664   2.280   3.044  14.539  0.0096 -0.6944  0.1840
17750TIP3    H174665   2.357   2.987  14.542 -0.6634 -1.6936 -0.9922
17750TIP3    H274666   2.240   3.036  14.625 -0.8088 -3.0438 -0.3857
17751TIP3   OH274667   1.879   6.395   3.452 -0.5975  0.0889 -0.2425
17751TIP3    H174668   1.854   6.332   3.385 -0.4495  1.5465 -1.6933
17751TIP3    H274669   1.925   6.464   3.405  0.1997  0.7616  1.4683
17752TIP3   OH274670   2.276   4.940   2.494 -0.2136 -0.2469 -0.0397
17752TIP3    H174671   2.359   4.988   2.497  0.0289 -0.4923 -2.4274
17752TIP3    H274672   2.301   4.849   2.482 -0.8221 -0.3196 -0.7821
17753TIP3   OH274673   2.328   0.601  15.038 -0.2355 -0.2527 -0.3743
17753TIP3    H174674   2.304   0.515  15.072 -2.2456  0.5067  0.1810
17753TIP3    H274675   2.332   0.588  14.943  2.6639 -1.6975 -0.1212
17754TIP3   OH274676   0.736   0.910  13.791  0.1967 -0.4561  0.4130
17754TIP3    H174677   0.786   0.986  13.822 -0.5502 -0.3781  1.4681
17754TIP3    H274678   0.794   0.866  13.729  0.5581  1.0849 -0.3562
17755TIP3   OH274679   2.917   5.793  12.412 -0.7209  0.1134  0.2803
17755TIP3    H174680   2.836   5.765  12.455 -0.8854 -0.3484 -0.3233
17755TIP3    H274681   2.964   5.712  12.393 -1.7208  0.1515 -2.4803
17756TIP3   OH274682   5.277   2.322   5.412 -0.0975 -0.2918 -0.2481
17756TIP3    H174683   5.349   2.314   5.475 -1.4943  0.2170  1.4400
17756TIP3    H274684   5.321   2.344   5.329  1.5830  2.0215  1.1887
17757TIP3   OH274685   0.112   2.391  15.299 -0.1446 -0.6478 -0.2193
17757TIP3    H174686   0.136   2.468  15.246 -1.8141 -0.2490 -0.4141
17757TIP3    H274687   0.130   2.316  15.242 -1.1811 -0.2562 -1.0789
17758TIP3   OH274688   1.863   1.231  16.059  0.0981 -0.1301  0.3481
17758TIP3    H174689   1.861   1.135  16.066  0.4386 -0.1581  0.0617
17758TIP3    H274690   1.932   1.258  16.119 -0.7733  0.0173  1.2949
17759TIP3   OH274691   3.949   6.056  16.580  0.2390  0.2715  0.4539
17759TIP3    H174692   3.864   6.099  16.569  0.4824  0.5722 -0.2911
17759TIP3    H274693   3.929   5.963  16.580  0.0562  0.2798 -1.2545
17760TIP3   OH274694   3.293   4.121  16.622  0.2016 -0.6113  0.3102
17760TIP3    H174695   3.290   4.120  16.718 -2.0782 -0.1200  0.2742
17760TIP3    H274696   3.374   4.075  16.600  1.1079 -0.1218  2.4847
17761TIP3   OH274697   4.160   3.853  11.025  0.4285 -0.5192 -0.2449
17761TIP3    H174698   4.192   3.943  11.022 -2.4640  0.6051  1.1023
17761TIP3    H274699   4.091   3.850  10.959  0.5246 -1.7840 -0.3040
17762TIP3   OH274700   0.537   4.702  11.670  0.4266 -0.2456 -0.2541
17762TIP3    H174701   0.545   4.773  11.734 -1.2407  0.4445 -0.7961
17762TIP3    H274702   0.491   4.633  11.717  1.0783 -0.5627 -0.0696
17763TIP3   OH274703   1.526   4.585   5.529 -0.2653 -0.8146  0.1206
17763TIP3    H174704   1.455   4.627   5.578  0.0777 -0.9136  0.7034
17763TIP3    H274705   1.562   4.520   5.588  0.7048 -0.3583  0.0526
17764TIP3   OH274706   2.757   5.803   2.868  0.0807  0.2056 -0.5328
17764TIP3    H174707   2.672   5.801   2.825 -0.6790  0.0561  0.9846
17764TIP3    H274708   2.820   5.799   2.795 -1.1892 -0.3206 -1.6201
17765TIP3   OH274709   3.490   3.671  13.923  0.5936 -0.6642 -0.7641
17765TIP3    H174710   3.425   3.643  13.986  2.4700  0.5980  1.8300
17765TIP3    H274711   3.523   3.590  13.884 -0.6648 -1.4475 -0.2302
17766TIP3   OH274712   5.433   0.708   2.057 -0.6407 -0.1131 -0.7000
17766TIP3    H174713   5.469   0.785   2.012  0.6924  0.5920  1.5204
17766TIP3    H274714   5.476   0.634   2.015  0.7482  0.5459 -0.4703
17767TIP3   OH274715   3.960   2.303   4.302 -0.0902 -0.2004  0.0340
17767TIP3    H174716   4.019   2.237   4.264  0.3205  0.0403  0.2475
17767TIP3    H274717   3.901   2.326   4.231  0.6204  0.1854 -0.4390
17768TIP3   OH274718   6.677   3.393   5.466 -0.4941  0.3778 -0.4935
17768TIP3    H174719   6.617   3.385   5.540  0.4681  1.1170  0.3798
17768TIP3    H274720   6.749   3.447   5.499 -0.2270  1.0167 -2.0845
17769TIP3   OH274721   1.610   1.791   1.802 -0.6882  0.3336  0.6988
17769TIP3    H174722   1.593   1.829   1.888 -1.4405 -0.4117  0.8730
17769TIP3    H274723   1.662   1.713   1.820 -1.6064 -0.3139  0.5381
17770TIP3   OH274724   2.920   5.947   6.254  0.0098 -0.0881  0.6380
17770TIP3    H174725   2.955   6.026   6.214  0.4802 -1.6480 -2.1641
17770TIP3    H274726   2.958   5.946   6.342  2.0899  1.4369 -0.1973
17771TIP3   OH274727   4.291   3.498  17.152  0.0976 -0.2599 -0.2716
17771TIP3    H174728   4.333   3.422  17.192 -0.5498 -1.1013 -1.1601
17771TIP3    H274729   4.202   3.498  17.188 -0.3610 -0.7877 -1.3487
17772TIP3   OH274730   3.807   6.681  16.672  0.5407  0.4931  0.6217
17772TIP3    H174731   3.884   6.624  16.678 -0.9898 -1.8723 -1.2264
17772TIP3    H274732   3.760   6.667  16.753  1.7355  1.5446  1.5276
17773TIP3   OH274733   4.862   3.394   1.002 -0.5926 -0.1313  0.0898
17773TIP3    H174734   4.917   3.316   0.996  1.3334  1.1730  0.3485
17773TIP3    H274735   4.917   3.465   0.970 -2.3895  1.1060 -0.3386
17774TIP3   OH274736   4.338   3.632   6.357  0.2112  0.0618 -0.1633
17774TIP3    H174737   4.315   3.544   6.386 -0.6386  0.0563 -0.8334
17774TIP3    H274738   4.434   3.634   6.361  0.1383 -0.1298  2.0062
17775TIP3   OH274739   6.189   6.783  13.456 -0.1898  0.3059  0.3302
17775TIP3    H174740   6.252   6.854  13.469  1.3611 -0.9430 -0.1514
17775TIP3    H274741   6.104   6.824  13.466  0.6908  2.1716  0.3548
17776TIP3   OH274742   6.114   4.667  11.486 -0.4442  0.0166  0.5096
17776TIP3    H174743   6.176   4.712  11.544 -0.4304  1.1920 -0.4130
17776TIP3    H274744   6.169   4.606  11.436 -0.2675 -0.0469  0.7761
17777TIP3   OH274745   6.003   1.919  12.251 -0.1811 -0.8774 -0.2596
17777TIP3    H174746   6.043   1.844  12.207 -0.3715 -1.5618  0.7126
17777TIP3    H274747   6.070   1.947  12.313 -0.7873 -1.3547  0.6195
17778TIP3   OH274748   4.244   1.404   1.790  0.1086 -0.1118 -0.3969
17778TIP3    H174749   4.264   1.434   1.701 -1.2679 -1.0250 -1.0464
17778TIP3    H274750   4.225   1.310   1.780  2.4137 -0.7822  1.2773
17779TIP3   OH274751   1.932   3.398   0.092  0.4116  0.0321  0.1534
17779TIP3    H174752   2.009   3.374   0.042  0.2407 -1.3848  0.5478
17779TIP3    H274753   1.858   3.365   0.040  0.2152 -1.0584  1.1169
17780TIP3   OH274754   5.647   4.991   3.046  0.3867 -0.0428 -0.1847
17780TIP3    H174755   5.552   5.002   3.048  0.5004  0.9367 -0.1449
17780TIP3    H274756   5.676   5.021   3.132  0.6333 -1.2955  0.1793
17781TIP3   OH274757   0.242   5.069   4.368  0.5720 -0.2882  0.1198
17781TIP3    H174758   0.222   4.994   4.312 -0.3868  1.5307 -2.0559
17781TIP3    H274759   0.167   5.074   4.428 -0.1946 -0.0379 -0.8541
17782TIP3   OH274760   4.605   3.147  14.914 -0.4574 -0.1305 -0.3359
17782TIP3    H174761   4.583   3.122  14.824 -2.2613  0.2137 -0.0183
17782TIP3    H274762   4.629   3.066  14.957 -0.4322 -0.4221 -0.8968
17783TIP3   OH274763   6.291   6.781  13.196 -0.1699  0.2375  0.0121
17783TIP3    H174764   6.334   6.862  13.224 -0.4636 -0.4639  2.6358
17783TIP3    H274765   6.224   6.765  13.263  0.8412 -2.9114  0.3450
17784TIP3   OH274766   2.979   4.839  12.740 -0.1767 -0.4425  0.2044
17784TIP3    H174767   3.029   4.766  12.777  1.2736  0.8057  0.7470
17784TIP3    H274768   2.990   4.831  12.645  1.1891 -0.0792  0.3302
17785TIP3   OH274769   4.319   0.067  15.324  0.2568  0.3785 -0.1396
17785TIP3    H174770   4.377  -0.008  15.313 -0.6356 -0.3072 -0.2550
17785TIP3    H274771   4.253   0.056  15.255  1.1472  2.2368 -1.3083
17786TIP3   OH274772   2.262   5.340   5.712 -0.6177 -0.2858 -0.3799
17786TIP3    H174773   2.174   5.338   5.674 -0.0587 -3.2595 -1.6851
17786TIP3    H274774   2.302   5.420   5.678 -1.7939 -0.4570 -2.2333
17787TIP3   OH274775   4.051   5.343   1.986 -0.0551  0.3507 -0.2434
17787TIP3    H174776   4.088   5.408   2.046  1.0368 -1.2651  0.8845
17787TIP3    H274777   4.047   5.387   1.901  1.3354  1.6674  0.3562
17788TIP3   OH274778   4.264   0.097  14.225 -0.1063  0.0168 -0.2300
17788TIP3    H174779   4.225   0.011  14.210 -0.2525 -0.0164  0.2979
17788TIP3    H274780   4.189   0.155  14.238 -0.0132  0.2828 -0.9024
17789TIP3   OH274781   0.084   1.066  14.620 -0.0914  0.5307 -0.3254
17789TIP3    H174782   0.064   0.980  14.656 -0.5468  0.5995 -0.4074
17789TIP3    H274783   0.035   1.070  14.537 -0.8940  1.2532  0.1693
17790TIP3   OH274784   1.794   2.946  15.984 -0.3988  0.3692 -0.1679
17790TIP3    H174785   1.826   2.882  15.920  0.8216  2.2657 -1.4940
17790TIP3    H274786   1.811   2.904  16.069  1.4319 -0.6163 -0.9810
17791TIP3   OH274787   3.522   0.731   5.038 -0.7944 -0.4753  0.0289
17791TIP3    H174788   3.477   0.652   5.006 -1.5800  0.0283 -0.1317
17791TIP3    H274789   3.596   0.743   4.978  0.5671 -2.2676  1.2936
17792TIP3   OH274790   0.089   0.779   0.626  0.2878 -0.1481  0.2201
17792TIP3    H174791   0.039   0.790   0.546 -0.4650 -1.5031  0.4924
17792TIP3    H274792   0.168   0.732   0.600  0.9061  0.9913 -0.0146
17793TIP3   OH274793   1.842   0.566   1.589 -0.0255 -0.1185 -0.7333
17793TIP3    H174794   1.894   0.570   1.508 -0.7515  1.3624 -1.1533
17793TIP3    H274795   1.752   0.553   1.559 -0.2183 -0.1703 -0.1386
17794TIP3   OH274796   5.174   0.259  14.800  0.0254 -0.2635 -0.6872
17794TIP3    H174797   5.259   0.215  14.796  0.7463  1.0631 -0.1003
17794TIP3    H274798   5.165   0.287  14.891 -0.5381  0.5750 -0.9945
17795TIP3   OH274799   5.918   1.774  14.944  0.3971 -0.1203  0.2444
17795TIP3    H174800   5.949   1.828  14.871 -1.2584  0.5748  0.0202
17795TIP3    H274801   5.893   1.691  14.904 -3.2263  1.2424 -0.5119
17796TIP3   OH274802   2.051   4.736  14.753  0.1074 -0.6621 -0.4003
17796TIP3    H174803   1.976   4.795  14.760 -1.0078 -2.1596  0.4378
17796TIP3    H274804   2.013   4.653  14.723  1.5685 -1.1513 -0.9310
17797TIP3   OH274805   3.194   1.136  13.580  0.3021 -0.5457  0.2670
17797TIP3    H174806   3.122   1.086  13.541  1.0411 -1.1358 -0.3493
17797TIP3    H274807   3.250   1.158  13.506  0.9713 -0.4261  0.8098
17798TIP3   OH274808   0.072   4.287  16.427  0.7651 -0.0375  0.2024
17798TIP3    H174809   0.064   4.320  16.516  0.4888  1.7045 -0.4351
17798TIP3    H274810   0.164   4.263  16.418  0.8270 -0.0522  0.9089
17799TIP3   OH274811   3.194   4.719  14.473 -0.0229 -0.1595  0.1008
17799TIP3    H174812   3.259   4.762  14.417 -0.1651  0.3410  0.3199
17799TIP3    H274813   3.130   4.682  14.413 -0.8338  1.4320 -0.0192
17800TIP3   OH274814   4.793   5.892   5.316 -0.1832 -0.1680  0.3048
17800TIP3    H174815   4.818   5.848   5.398 -0.0923 -1.1839 -0.2530
17800TIP3    H274816   4.854   5.858   5.251  1.6264  2.8243  0.3694
17801TIP3   OH274817   5.407   3.191  12.632  0.7910 -0.4743 -0.0371
17801TIP3    H174818   5.369   3.154  12.552  0.9088 -2.6505  0.8759
17801TIP3    H274819   5.336   3.239  12.673  0.6245  0.3391 -1.2602
17802TIP3   OH274820   1.003   6.773  15.212  0.3314 -0.0989 -0.1026
17802TIP3    H174821   0.910   6.788  15.230 -0.0519  1.9901 -3.3058
17802TIP3    H274822   1.006   6.691  15.162  0.4338 -1.0878  1.4943
17803TIP3   OH274823   1.510   4.469   0.502  0.4188 -0.4633  0.1854
17803TIP3    H174824   1.552   4.385   0.485 -0.3591 -0.4005 -2.3239
17803TIP3    H274825   1.567   4.534   0.460 -0.8229 -0.1373 -1.0537
17804TIP3   OH274826   6.114   6.330   3.951  0.1181 -0.0638  0.4135
17804TIP3    H174827   6.027   6.291   3.938  0.1266  0.0909 -0.1253
17804TIP3    H274828   6.138   6.305   4.040 -0.8058  0.5308  0.8386
17805TIP3   OH274829   1.875   4.981  14.859 -0.4067  0.0693  0.5241
17805TIP3    H174830   1.876   4.934  14.942  1.9809 -1.6656 -0.4177
17805TIP3    H274831   1.814   4.932  14.804  1.8607 -1.8732 -0.3600
17806TIP3   OH274832   3.930   1.791  12.543  0.0928  0.2115  0.2314
17806TIP3    H174833   3.916   1.709  12.591 -0.9498  1.5024  2.2419
17806TIP3    H274834   3.858   1.794  12.480  0.2021 -0.4812  0.0749
17807TIP3   OH274835   6.279   4.780  11.652  0.2577  0.4479 -0.2220
17807TIP3    H174836   6.217   4.809  11.719  1.4346  1.6154  0.3999
17807TIP3    H274837   6.362   4.774  11.699  0.9941  0.7792 -1.4677
17808TIP3   OH274838   4.525   2.187   4.024  0.4566  0.7838 -0.2081
17808TIP3    H174839   4.462   2.246   3.983 -0.5258  2.3795  3.4206
17808TIP3    H274840   4.575   2.244   4.083  2.6818 -1.1946 -0.1278
17809TIP3   OH274841   5.746   2.965   0.518  0.2860  0.5590  0.4674
17809TIP3    H174842   5.733   2.913   0.439  0.6868  0.0901  0.7134
17809TIP3    H274843   5.829   3.011   0.503  0.3970  0.4167  0.6460
17810TIP3   OH274844   6.552   5.846   1.956  0.4574 -0.4890 -0.3359
17810TIP3    H174845   6.536   5.894   2.037 -1.9334 -1.4469 -0.2034
17810TIP3    H274846   6.573   5.913   1.892 -1.4263  0.6270  0.1800
17811TIP3   OH274847   1.523   2.678  12.752 -0.2055  0.1031  0.3332
17811TIP3    H174848   1.456   2.675  12.820 -0.6025  0.8922 -0.0081
17811TIP3    H274849   1.474   2.665  12.670  0.3622 -1.5662  0.2463
17812TIP3   OH274850   3.493   5.162  12.685 -0.0039 -0.5605 -0.7575
17812TIP3    H174851   3.406   5.149  12.648  0.8420  0.2672 -3.0945
17812TIP3    H274852   3.545   5.089  12.650 -0.0962 -1.9398  1.8515
17813TIP3   OH274853   6.501   5.456  14.316 -0.2056  0.3894  0.1097
17813TIP3    H174854   6.458   5.387  14.367 -0.3462  0.2816 -0.1479
17813TIP3    H274855   6.530   5.411  14.236 -0.0616  0.5711  0.0599
17814TIP3   OH274856   5.625   1.872   0.193  0.2800 -1.1647 -0.4770
17814TIP3    H174857   5.694   1.850   0.255 -0.3859 -1.3339  0.2152
17814TIP3    H274858   5.572   1.938   0.238  0.1478 -0.8315 -1.1065
17815TIP3   OH274859   5.292   2.569  16.295 -0.6531  0.0268 -0.0075
17815TIP3    H174860   5.372   2.518  16.295 -1.0451 -0.6077 -1.1528
17815TIP3    H274861   5.282   2.599  16.385  1.5553  1.2049 -0.1330
17816TIP3   OH274862   2.170   4.031   1.541  0.3555  0.4478  0.6177
17816TIP3    H174863   2.259   4.005   1.519  0.5350 -0.6820  2.5779
17816TIP3    H274864   2.171   4.127   1.535  1.8143  0.4626  1.0317
17817TIP3   OH274865   5.132   5.825  11.728  0.3201  0.1178  0.3260
17817TIP3    H174866   5.113   5.757  11.793 -1.6735  0.8808  0.5687
17817TIP3    H274867   5.127   5.907  11.777  0.0396  0.6156 -0.5318
17818TIP3   OH274868   2.213   4.791   4.119  0.3352  0.1173 -0.3877
17818TIP3    H174869   2.119   4.779   4.122  0.4001 -0.3407 -0.1574
17818TIP3    H274870   2.228   4.845   4.041 -0.2829  1.7941  0.6361
17819TIP3   OH274871   2.660   5.647  11.647 -0.4831  0.2827 -0.2255
17819TIP3    H174872   2.655   5.578  11.581 -2.0524  1.5036 -1.4139
17819TIP3    H274873   2.577   5.693  11.640 -0.9066  0.0829  3.0339
17820TIP3   OH274874   4.688   1.863   1.316  0.1558  1.0538 -0.3065
17820TIP3    H174875   4.729   1.859   1.230  1.5738  0.5673  0.3789
17820TIP3    H274876   4.700   1.776   1.353 -2.6934  0.4928 -0.6179
17821TIP3   OH274877   6.080   1.758  11.984 -0.0051  0.5613  0.0428
17821TIP3    H174878   6.113   1.839  12.023 -0.1152  0.3408  0.5968
17821TIP3    H274879   5.988   1.775  11.967  0.5683  1.4413 -2.2133
17822TIP3   OH274880   5.201   6.120   3.541 -0.0944 -0.0093 -0.3279
17822TIP3    H174881   5.219   6.127   3.447 -0.8277 -0.2495 -0.4963
17822TIP3    H274882   5.251   6.043   3.569  1.3209  0.9432 -0.2020
17823TIP3   OH274883   1.838   1.362  16.491 -0.1701 -0.0972  0.1370
17823TIP3    H174884   1.758   1.412  16.511  0.2692  0.8023 -0.3356
17823TIP3    H274885   1.806   1.278  16.460 -0.9489  0.4200 -0.4898
17824TIP3   OH274886   5.235   3.050   0.407 -0.2278  0.2759 -0.0229
17824TIP3    H174887   5.261   2.980   0.467 -0.5603  1.2104  1.2427
17824TIP3    H274888   5.191   3.115   0.464 -0.2433  1.3326 -1.2205
17825TIP3   OH274889   1.978   0.296   2.279 -0.3209 -0.2671 -0.3668
17825TIP3    H174890   1.950   0.361   2.215 -0.6611 -1.0668 -1.0485
17825TIP3    H274891   1.897   0.267   2.321 -0.2468 -0.6782 -0.4966
17826TIP3   OH274892   1.269   3.584  13.476  0.0954 -0.6727 -0.6016
17826TIP3    H174893   1.271   3.508  13.533  0.2733 -0.8233 -0.8079
17826TIP3    H274894   1.340   3.570  13.413 -1.1359 -1.2968 -1.8791
17827TIP3   OH274895   4.524   2.632  16.754 -0.0645  0.0041  0.0758
17827TIP3    H174896   4.546   2.697  16.821  0.6792  0.3486 -0.4890
17827TIP3    H274897   4.547   2.548  16.795  1.7809  0.3115 -0.2604
17828TIP3   OH274898   2.111   0.916  14.713 -0.3429  0.2565  0.2664
17828TIP3    H174899   2.041   0.856  14.689  0.6216 -0.6951 -0.2101
17828TIP3    H274900   2.067   0.986  14.761 -1.4265 -1.0109  1.1568
17829TIP3   OH274901   5.970   1.119   1.386  0.7107  0.0542 -0.0216
17829TIP3    H174902   5.999   1.105   1.296  2.0907 -0.6289  0.5271
17829TIP3    H274903   6.036   1.176   1.425  0.4612 -0.1661  0.7511
17830TIP3   OH274904   0.277   4.895  11.387 -0.0379  0.0671  0.1505
17830TIP3    H174905   0.190   4.885  11.348 -0.3800 -2.4580  1.5007
17830TIP3    H274906   0.337   4.855  11.324 -0.0811 -0.0901  0.2109
17831TIP3   OH274907   5.568   1.178  14.395  1.0219  0.5217 -0.2112
17831TIP3    H174908   5.558   1.093  14.353  0.2812  0.8368 -0.6975
17831TIP3    H274909   5.617   1.160  14.475 -0.1992 -0.5531  0.3064
17832TIP3   OH274910   0.140   2.084  10.256  0.5228  0.2496 -0.0030
17832TIP3    H174911   0.179   2.003  10.222  1.0127  0.6658 -0.4352
17832TIP3    H274912   0.116   2.062  10.346 -0.3067 -0.6944 -0.4390
17833TIP3   OH274913   1.207   1.542  13.007 -0.1500  0.3428  0.0514
17833TIP3    H174914   1.271   1.584  13.065  0.3391 -1.7577  1.0849
17833TIP3    H274915   1.221   1.449  13.020 -2.6132 -0.1543 -0.6500
17834TIP3   OH274916   0.685   4.533  13.564  0.0011  0.4522 -0.2892
17834TIP3    H174917   0.599   4.536  13.605 -0.1018  1.0726 -0.5482
17834TIP3    H274918   0.691   4.614  13.514  0.4755  0.1121 -0.7962
17835TIP3   OH274919   6.590   0.998  15.647 -0.2353  0.2183 -0.7826
17835TIP3    H174920   6.517   0.945  15.679 -0.7256 -0.3428 -2.7732
17835TIP3    H274921   6.642   1.016  15.726 -2.1421  0.0753  0.5542
17836TIP3   OH274922   3.533   2.848   1.112 -0.8487  0.1390  0.1706
17836TIP3    H174923   3.566   2.764   1.080  0.0620  0.4639  0.2644
17836TIP3    H274924   3.596   2.876   1.178 -1.3915  0.6827  0.4659
17837TIP3   OH274925   5.134   4.673   2.125 -0.6197 -0.0514 -0.3682
17837TIP3    H174926   5.058   4.724   2.152  0.4669  1.1391  0.4859
17837TIP3    H274927   5.209   4.717   2.165  0.7731  0.1701 -3.0586
17838TIP3   OH274928   0.794   5.384  16.503 -0.1586  0.2975 -0.0929
17838TIP3    H174929   0.719   5.402  16.561  1.1464 -0.0900  1.7766
17838TIP3    H274930   0.842   5.315  16.549  0.9377  0.0195 -1.6471
17839TIP3   OH274931   0.388   4.525   1.770  0.1714 -0.4706  0.3231
17839TIP3    H174932   0.305   4.490   1.736 -0.4460  1.7300 -0.4632
17839TIP3    H274933   0.365   4.610   1.806  1.3255 -1.5624  3.8717
17840TIP3   OH274934   3.933   6.458   5.726 -0.1684 -0.2554  0.1741
17840TIP3    H174935   3.948   6.549   5.699  0.5741 -0.5887 -0.5624
17840TIP3    H274936   4.020   6.418   5.725 -0.4836 -0.9659  0.5426
17841TIP3   OH274937   6.436   1.791   5.500  0.2225 -0.0678 -0.6097
17841TIP3    H174938   6.485   1.872   5.517  1.0981 -0.7670  0.2723
17841TIP3    H274939   6.344   1.817   5.506  0.4970  0.6745  0.6059
17842TIP3   OH274940   2.957   2.037  15.623  0.5403 -0.0921 -0.4862
17842TIP3    H174941   2.911   2.078  15.696  0.3396  0.6361 -1.0114
17842TIP3    H274942   2.890   2.023  15.557  0.3588 -2.4698  0.1626
17843TIP3   OH274943   3.775   3.536   3.449  0.2978 -0.1230 -0.5216
17843TIP3    H174944   3.734   3.569   3.369  0.2010  1.2095  0.0658
17843TIP3    H274945   3.856   3.588   3.457  1.2660 -1.5711 -0.7739
17844TIP3   OH274946   1.031   4.453   5.430 -0.7350  0.2054  0.8144
17844TIP3    H174947   0.947   4.466   5.388 -0.0267  0.0694 -0.6817
17844TIP3    H274948   1.047   4.534   5.479 -1.6891  0.2488  1.0528
17845TIP3   OH274949   2.909   6.431  15.785 -0.0636  0.0659  0.6562
17845TIP3    H174950   2.904   6.357  15.846  2.1259 -1.6350 -1.1366
17845TIP3    H274951   2.998   6.428  15.750  0.4347  4.2503  1.3213
17846TIP3   OH274952   4.147   0.683  15.295  0.8739 -0.5843 -0.4353
17846TIP3    H174953   4.203   0.620  15.339  0.5221  0.9451  2.3330
17846TIP3    H274954   4.195   0.766  15.300 -1.5761  0.7724  2.0993
17847TIP3   OH274955   4.173   2.341   5.682  0.0922  0.3758  0.1310
17847TIP3    H174956   4.108   2.286   5.639 -1.5853  1.3404  1.3805
17847TIP3    H274957   4.257   2.313   5.645 -0.7341 -2.8564  0.5845
17848TIP3   OH274958   2.152   5.023   4.986 -0.1069  0.2083  0.1793
17848TIP3    H174959   2.162   5.116   5.006 -0.3881  0.5063 -0.9906
17848TIP3    H274960   2.141   4.981   5.071  0.1052  1.2296  0.7273
17849TIP3   OH274961   0.165   6.404  16.190  0.0853  0.3200  0.7353
17849TIP3    H174962   0.208   6.363  16.115 -0.7375 -1.7905  1.3894
17849TIP3    H274963   0.089   6.448  16.153 -0.7004 -1.2808  0.3877
17850TIP3   OH274964   4.394   3.315  12.796 -0.9328 -0.0087  0.1982
17850TIP3    H174965   4.364   3.224  12.801 -1.9416  0.3402  0.8688
17850TIP3    H274966   4.395   3.334  12.703  0.6147 -1.1223 -0.0330
17851TIP3   OH274967   1.067   1.809  10.875 -0.2513  0.0271 -0.1170
17851TIP3    H174968   1.143   1.840  10.826 -0.3053  0.7368  0.2466
17851TIP3    H274969   1.096   1.728  10.915  0.9319  1.2720  1.5849
17852TIP3   OH274970   3.221   5.642   1.526  0.5052  0.1051 -0.5687
17852TIP3    H174971   3.192   5.644   1.617  0.0704  0.3975 -0.7093
17852TIP3    H274972   3.148   5.601   1.479  0.8820 -0.3806 -0.7296
17853TIP3   OH274973   1.844   2.168   4.250  0.0050  0.3089 -0.5050
17853TIP3    H174974   1.902   2.093   4.262  1.1938  0.9733 -1.9231
17853TIP3    H274975   1.904   2.242   4.236 -1.1448  1.5082  0.7730
17854TIP3   OH274976   4.463   4.887  13.237 -0.3047 -0.3152 -0.8929
17854TIP3    H174977   4.468   4.935  13.319 -1.2168  0.3175 -1.2067
17854TIP3    H274978   4.535   4.824  13.242  0.9038  1.0741 -0.4744
17855TIP3   OH274979   6.198   3.624   3.555 -0.0500 -0.0995  0.2288
17855TIP3    H174980   6.217   3.568   3.480  0.1162  0.2941 -0.0246
17855TIP3    H274981   6.253   3.701   3.542 -1.0594  0.5911  0.0384
17856TIP3   OH274982   5.588   5.053   2.388 -0.2649  0.3839 -0.5092
17856TIP3    H174983   5.587   5.148   2.371 -0.4022  0.2618 -1.1982
17856TIP3    H274984   5.623   5.045   2.477 -1.1696  1.1375 -0.0775
17857TIP3   OH274985   3.533   2.512  10.856 -0.5645 -0.2367  0.2517
17857TIP3    H174986   3.556   2.429  10.898  0.3350 -0.3597 -0.4664
17857TIP3    H274987   3.438   2.509  10.846 -0.4160 -1.6575 -0.7894
17858TIP3   OH274988   1.172   4.034   2.464  0.6620  0.1794  0.1800
17858TIP3    H174989   1.142   4.125   2.456  1.5495  0.5262  0.7222
17858TIP3    H274990   1.191   4.007   2.375 -0.4030  0.2496 -0.0764
17859TIP3   OH274991   2.566   0.782   0.741  0.2630 -0.1126  0.1157
17859TIP3    H174992   2.521   0.827   0.670  0.9020 -1.4926 -1.1828
17859TIP3    H274993   2.574   0.692   0.711 -0.1402 -0.8903  2.2657
17860TIP3   OH274994   2.617   2.332  13.708 -0.7939  0.4838  0.1995
17860TIP3    H174995   2.696   2.372  13.747  0.0921 -0.6205 -0.4433
17860TIP3    H274996   2.636   2.239  13.705 -2.0109  0.2421 -0.2662
17861TIP3   OH274997   0.815   3.214   4.681 -0.4325  0.2625 -0.3483
17861TIP3    H174998   0.817   3.120   4.659 -1.4795  0.0014  0.6296
17861TIP3    H274999   0.886   3.225   4.744 -1.6938 -0.3321  1.2170
17862TIP3   OH275000   4.789   5.516  15.327 -0.3974  0.4654  0.5878
17862TIP3    H175001   4.879   5.547  15.336 -0.7906  1.2977  1.7714
17862TIP3    H275002   4.788   5.468  15.245  0.9431  1.1092  0.1883
17863TIP3   OH275003   2.806   3.486   1.527 -0.1291 -0.1122 -0.0888
17863TIP3    H175004   2.742   3.416   1.541  0.6757 -0.5958  1.2257
17863TIP3    H275005   2.788   3.549   1.597  0.5415 -0.0358  0.0170
17864TIP3   OH275006   2.327   4.833   1.294  0.0539 -0.0931  0.0081
17864TIP3    H175007   2.242   4.872   1.313 -0.6694 -1.5390 -0.1914
17864TIP3    H275008   2.337   4.763   1.358  0.4491 -0.8408 -0.8462
17865TIP3   OH275009   2.298   2.324  16.809  0.2812  0.2648  0.1390
17865TIP3    H175010   2.337   2.321  16.721  1.3947 -0.2860  0.6437
17865TIP3    H275011   2.373   2.328  16.868 -0.4829  1.1782  1.0458
17866TIP3   OH275012   5.088   0.103   2.545  0.4178 -0.2025 -0.2963
17866TIP3    H175013   5.024   0.167   2.515  0.9250  0.2225 -0.4928
17866TIP3    H275014   5.164   0.156   2.570  0.6902 -0.6976 -0.0609
17867TIP3   OH275015   2.328   2.155   5.066  0.4107  0.3608  0.5977
17867TIP3    H175016   2.244   2.169   5.022  1.0541  0.7496 -0.5411
17867TIP3    H275017   2.341   2.234   5.119  0.6817  0.9233 -0.2851
17868TIP3   OH275018   3.399   6.687  12.447  0.5829 -0.5748 -1.1920
17868TIP3    H175019   3.456   6.614  12.427  0.5140 -1.3155  1.0931
17868TIP3    H275020   3.458   6.757  12.475  0.5301 -0.4773 -1.3262
17869TIP3   OH275021   3.703   6.082  10.758 -0.4505  1.3141  0.0651
17869TIP3    H175022   3.619   6.069  10.716 -0.0600 -0.2299 -0.2580
17869TIP3    H275023   3.707   6.176  10.776 -2.4208  1.3252  0.4850
17870TIP3   OH275024   3.461   6.055   4.266 -0.0729 -0.1953  0.0661
17870TIP3    H175025   3.385   6.112   4.276  0.8994  1.0361  0.6022
17870TIP3    H275026   3.526   6.109   4.221  1.0811 -0.6544  1.1450
17871TIP3   OH275027   0.937   1.259  15.778  0.3617 -0.6345  0.4494
17871TIP3    H175028   0.953   1.310  15.699 -0.1061 -1.3502 -0.1053
17871TIP3    H275029   1.008   1.195  15.781  2.0473  1.2321  2.1503
17872TIP3   OH275030   0.728   1.135   0.184  0.0933 -1.1267 -0.3994
17872TIP3    H175031   0.678   1.109   0.107 -0.0607 -0.3891 -0.5583
17872TIP3    H275032   0.728   1.058   0.240  0.1081 -1.6333 -1.0845
17873TIP3   OH275033   3.588   4.767  14.664 -0.2096 -0.2145  0.1815
17873TIP3    H175034   3.607   4.767  14.758 -0.1833  1.3937  0.1837
17873TIP3    H275035   3.600   4.858  14.636  0.1910 -0.7527 -1.4669
17874TIP3   OH275036   5.202   4.153  16.307  0.1709 -0.9441 -0.3542
17874TIP3    H175037   5.150   4.096  16.364 -1.0721 -1.8700 -2.3320
17874TIP3    H275038   5.144   4.172  16.234  1.0372  1.8379 -0.3674
17875TIP3   OH275039   1.904   5.180  10.475 -0.0288 -0.1095  0.2932
17875TIP3    H175040   1.903   5.090  10.507 -0.2048  0.0089  0.6213
17875TIP3    H275041   1.914   5.233  10.554  3.4420  0.0356 -0.1575
17876TIP3   OH275042   5.930   6.027   4.527 -0.5922 -0.3799 -0.2611
17876TIP3    H175043   5.968   5.944   4.556  1.4268  0.5230 -0.2171
17876TIP3    H275044   5.888   6.063   4.605  1.5849  0.2772  0.6554
17877TIP3   OH275045   1.657   2.893  14.854  0.8231  0.0299  0.0475
17877TIP3    H175046   1.574   2.847  14.867  1.4222 -0.8117  0.9764
17877TIP3    H275047   1.647   2.974  14.904 -1.0308  1.9569 -3.2900
17878TIP3   OH275048   2.165   4.958  14.257 -0.1136  0.4259  0.1215
17878TIP3    H175049   2.182   4.923  14.170  0.0924  1.4612 -0.2600
17878TIP3    H275050   2.076   4.993  14.252 -0.0067  0.7219  0.2436
17879TIP3   OH275051   4.453   5.300  12.260  0.0775 -0.1170  0.0091
17879TIP3    H175052   4.453   5.272  12.351  0.9838  1.1031  0.4137
17879TIP3    H275053   4.363   5.289  12.231  0.1136 -1.9987  0.5718
17880TIP3   OH275054   1.378   2.253  11.040 -0.1396 -0.0030 -0.1044
17880TIP3    H175055   1.345   2.339  11.066  0.8388  0.6237 -0.9095
17880TIP3    H275056   1.328   2.230  10.962 -0.3347 -0.1177  0.0551
17881TIP3   OH275057   1.186   4.064   4.920  0.0690  0.3974  0.1197
17881TIP3    H175058   1.231   3.987   4.956  1.4187  0.8510 -0.5502
17881TIP3    H275059   1.137   4.030   4.845 -0.6439 -0.0882  0.8000
17882TIP3   OH275060   0.617   0.358  12.668  0.5338 -0.2090  0.1323
17882TIP3    H175061   0.580   0.272  12.644  2.9005 -1.3885  0.5877
17882TIP3    H275062   0.637   0.350  12.761 -1.0112  1.5294  0.6351
17883TIP3   OH275063   2.864   4.626  13.758 -0.2846  0.4579  0.3974
17883TIP3    H175064   2.882   4.684  13.831 -0.2575  1.2808 -0.2530
17883TIP3    H275065   2.803   4.561  13.793 -0.1371  0.7472  1.1894
17884TIP3   OH275066   3.254   5.742   3.743 -0.1161 -1.0039 -0.4103
17884TIP3    H175067   3.320   5.725   3.809  0.3232 -0.0450 -0.5857
17884TIP3    H275068   3.171   5.718   3.784  0.1326 -0.2015  0.5652
17885TIP3   OH275069   3.300   1.593   0.353 -0.2196  0.6380  0.0957
17885TIP3    H175070   3.219   1.547   0.331  0.2041  1.6408 -3.8524
17885TIP3    H275071   3.366   1.554   0.295  1.6657  1.3573  1.7051
17886TIP3   OH275072   2.234   5.841   1.273  0.2526  0.2946  0.2876
17886TIP3    H175073   2.259   5.760   1.317 -0.1558 -0.2467 -0.4573
17886TIP3    H275074   2.176   5.812   1.202  0.3417  1.2109 -0.1596
17887TIP3   OH275075   1.917   0.603  12.672 -0.7191  0.3226  0.4407
17887TIP3    H175076   1.967   0.642  12.600  2.1157 -0.7454  1.7691
17887TIP3    H275077   1.828   0.596  12.638  0.4774  0.2249 -2.8286
17888TIP3   OH275078   6.677   5.806  11.068 -0.7686 -0.5167 -0.0312
17888TIP3    H175079   6.726   5.825  11.148 -0.2901  0.4194 -0.5324
17888TIP3    H275080   6.588   5.837  11.087 -0.5487  0.1211 -0.0092
17889TIP3   OH275081   1.054   4.693   0.776  0.4748  0.4566 -0.0595
17889TIP3    H175082   1.084   4.660   0.861  1.8009  0.8439 -0.3589
17889TIP3    H275083   1.123   4.666   0.715 -0.5302  0.0719 -1.0375
17890TIP3   OH275084   1.263   5.389  12.698 -0.5304  0.3173 -0.3450
17890TIP3    H175085   1.271   5.321  12.631 -2.0673  0.0724 -0.2999
17890TIP3    H275086   1.337   5.447  12.682 -0.2967 -0.3128 -1.6011
17891TIP3   OH275087   3.440   5.791   1.874 -0.3278 -0.1181  0.7346
17891TIP3    H175088   3.365   5.848   1.861 -0.3862 -0.4285 -0.3509
17891TIP3    H275089   3.445   5.778   1.969 -2.0414 -0.6212  0.7665
17892TIP3   OH275090   4.973   6.388   0.933  0.3342 -0.2829  0.4527
17892TIP3    H175091   4.958   6.318   0.998  0.7076 -0.2366  0.5918
17892TIP3    H275092   4.886   6.409   0.900  0.2820 -1.2768 -0.0723
17893TIP3   OH275093   4.685   4.364  11.423  0.2009  0.3168 -0.1340
17893TIP3    H175094   4.673   4.395  11.333  0.0009 -0.1006 -0.2495
17893TIP3    H275095   4.622   4.293  11.433  0.7510 -0.1434  0.0965
17894TIP3   OH275096   0.522   2.069   3.876  0.1652  0.0399 -0.4559
17894TIP3    H175097   0.505   2.083   3.970  1.2825  0.7903 -0.3485
17894TIP3    H275098   0.467   2.134   3.832  0.5970  0.5521 -0.2493
17895TIP3   OH275099   5.213   0.942  12.849 -0.0649 -0.1902  0.2235
17895TIP3    H175100   5.253   0.897  12.775 -1.8754  1.8980 -2.1039
17895TIP3    H275101   5.287   0.982  12.895  1.0142 -0.9628 -0.7951
17896TIP3   OH275102   5.187   6.368  10.558  0.3374  0.0367  0.3339
17896TIP3    H175103   5.221   6.456  10.546 -1.7953  0.9667  0.7985
17896TIP3    H275104   5.229   6.336  10.638  0.5606  0.9106  0.5657
17897TIP3   OH275105   1.506   5.170  12.855 -0.5221 -0.0179  0.1542
17897TIP3    H175106   1.475   5.160  12.765 -0.6968  3.8692 -0.2721
17897TIP3    H275107   1.434   5.213  12.901  0.4466  0.1019  1.5830
17898TIP3   OH275108   0.929   1.855   1.490  0.3064 -0.3746  0.3801
17898TIP3    H175109   0.845   1.873   1.448  0.3241 -0.2117  0.4160
17898TIP3    H275110   0.973   1.795   1.430  0.7221  0.5924 -0.2838
17899TIP3   OH275111   4.828   5.203   0.076  0.6610 -0.4923  0.3653
17899TIP3    H175112   4.901   5.203   0.013 -0.0173  3.2603 -0.5326
17899TIP3    H275113   4.758   5.155   0.031  0.9704  0.1368 -0.8069
17900TIP3   OH275114   2.112   4.616   5.203  0.5337 -0.4647  0.4854
17900TIP3    H175115   2.060   4.537   5.188 -0.3219 -0.3745  2.7307
17900TIP3    H275116   2.062   4.686   5.162 -0.0139 -0.7102  0.7255
17901TIP3   OH275117   5.231   2.826   4.781  0.2912  0.8450  0.6338
17901TIP3    H175118   5.147   2.849   4.820 -0.8661  0.8898 -1.7836
17901TIP3    H275119   5.241   2.886   4.707  2.4060  0.7476  0.7905
17902TIP3   OH275120   1.822   3.416   5.471 -0.0661  0.5547  0.1336
17902TIP3    H175121   1.780   3.331   5.488  0.0638  0.5600  0.4947
17902TIP3    H275122   1.902   3.414   5.525 -0.9559  1.6187  1.5272
17903TIP3   OH275123   2.133   2.630  14.824 -0.1858  0.0812 -0.0108
17903TIP3    H175124   2.099   2.670  14.743 -0.4209  2.6041  1.2845
17903TIP3    H275125   2.215   2.677  14.840 -0.3965 -0.0608  1.4818
17904TIP3   OH275126   2.084   2.891   4.204  0.0356 -0.3923 -0.3562
17904TIP3    H175127   2.083   2.896   4.299  2.2739  0.4036 -0.3362
17904TIP3    H275128   2.063   2.980   4.175  2.0969  0.0652 -0.5374
17905TIP3   OH275129   3.819   3.868   0.757  0.5677 -0.4321 -0.5836
17905TIP3    H175130   3.772   3.838   0.679  0.1401 -2.1994  0.3314
17905TIP3    H275131   3.750   3.903   0.814  0.7678  0.0223 -0.6206
17906TIP3   OH275132   1.655   0.972   5.754 -0.1803 -0.2195 -0.3067
17906TIP3    H175133   1.710   0.999   5.681 -0.0668 -0.2370 -0.2269
17906TIP3    H275134   1.583   0.922   5.713 -0.5184  0.4011 -0.4762
17907TIP3   OH275135   1.119   0.682  16.191 -0.2210  0.5834  0.2363
17907TIP3    H175136   1.198   0.698  16.242  1.6480  1.7191 -2.8490
17907TIP3    H275137   1.109   0.761  16.138 -2.2947 -0.3807 -0.8522
17908TIP3   OH275138   4.995   4.174  10.569  0.7743  0.6894  0.5603
17908TIP3    H175139   5.089   4.155  10.572  0.7372  0.6952  2.2591
17908TIP3    H275140   4.955   4.094  10.536  1.2062 -0.0023  1.6940
17909TIP3   OH275141   6.638   1.112   6.435 -1.1712  0.2548  0.3476
17909TIP3    H175142   6.627   1.020   6.412 -0.9187 -0.0728  1.5384
17909TIP3    H275143   6.727   1.118   6.470 -1.1363  0.9809  0.1443
17910TIP3   OH275144   0.683   5.433   2.651  0.2914 -0.3289 -0.4464
17910TIP3    H175145   0.592   5.420   2.622  0.9890  0.1991 -2.9707
17910TIP3    H275146   0.723   5.347   2.643  0.0381 -0.5552  0.6398
17911TIP3   OH275147   2.033   0.367  12.288 -0.2500  0.7936  0.1019
17911TIP3    H175148   1.951   0.321  12.306 -0.7755  0.7987 -2.0542
17911TIP3    H275149   2.021   0.401  12.199  1.3719  2.3989  0.4932
17912TIP3   OH275150   6.309   1.956  15.816  0.4384  0.6727  0.1413
17912TIP3    H175151   6.235   1.977  15.759  0.0327  0.3262  0.5457
17912TIP3    H275152   6.370   1.908  15.759 -0.7799 -1.2987  0.4623
17913TIP3   OH275153   5.284   4.579   2.614 -0.5889 -0.1200 -0.1157
17913TIP3    H175154   5.305   4.486   2.610 -1.3535 -0.2974 -0.2241
17913TIP3    H275155   5.188   4.582   2.606 -0.5653  0.6777 -0.1611
17914TIP3   OH275156   4.098   2.075   3.045  0.3577  0.1959  0.4162
17914TIP3    H175157   4.146   1.997   3.019  0.4174 -0.5916  2.7573
17914TIP3    H275158   4.106   2.135   2.970  0.4009 -1.9708 -1.3597
17915TIP3   OH275159   4.132   6.137  14.722 -0.2098  0.1459  0.4650
17915TIP3    H175160   4.222   6.119  14.692 -0.3209 -0.4539  0.4715
17915TIP3    H275161   4.143   6.172  14.811  0.0623  0.8646  0.1468
17916TIP3   OH275162   4.792   6.782   1.968  0.1241 -0.5119 -0.5754
17916TIP3    H175163   4.803   6.713   2.033 -1.4764 -0.4076 -0.1736
17916TIP3    H275164   4.870   6.775   1.911  0.5151 -1.9060  0.1231
17917TIP3   OH275165   5.282   5.686  17.089  0.2358  0.3527 -0.1860
17917TIP3    H175166   5.218   5.697  17.020 -0.1595  2.1733  0.4408
17917TIP3    H275167   5.231   5.668  17.168  0.7063 -2.3423 -0.4247
17918TIP3   OH275168   4.109   4.333   4.084  0.0066 -0.2396 -0.7264
17918TIP3    H175169   4.133   4.425   4.071 -1.3510  0.4872  1.5637
17918TIP3    H275170   4.123   4.318   4.178  0.1073 -2.3571 -1.0500
17919TIP3   OH275171   2.574   2.795  15.341  0.3735 -0.5389  0.5510
17919TIP3    H175172   2.491   2.808  15.387  0.2820  0.0096  0.2389
17919TIP3    H275173   2.589   2.701  15.346 -1.1059 -0.8847 -0.7979
17920TIP3   OH275174   1.644   5.958   4.932  0.4622 -0.3161  0.8034
17920TIP3    H175175   1.574   5.893   4.937  0.1548  0.0085  0.7018
17920TIP3    H275176   1.721   5.912   4.965  0.6056 -1.2521 -0.7849
17921TIP3   OH275177   0.947   3.682  14.525 -0.6890  0.4178 -0.7871
17921TIP3    H175178   0.915   3.711  14.611 -1.7555  0.5692 -1.2360
17921TIP3    H275179   1.033   3.645  14.544 -1.3959 -0.6074  0.5431
17922TIP3   OH275180   6.662   5.538   0.996  0.0358 -0.1417 -0.3316
17922TIP3    H175181   6.703   5.506   0.916  1.2116  0.6643 -0.0734
17922TIP3    H275182   6.584   5.483   1.007 -0.4135  0.0802 -2.2841
17923TIP3   OH275183   3.766   3.478  16.287  0.1273 -0.3852  0.0380
17923TIP3    H175184   3.695   3.455  16.227  0.9823 -1.3631 -0.6283
17923TIP3    H275185   3.788   3.568  16.265  1.1881 -1.0945 -1.9030
17924TIP3   OH275186   2.274   3.570  11.924 -0.1796 -0.6296 -0.2472
17924TIP3    H175187   2.306   3.643  11.872  0.5911 -1.1588 -0.5159
17924TIP3    H275188   2.180   3.587  11.933  0.1577  0.8964  0.5199
17925TIP3   OH275189   4.929   4.518   4.695 -0.4577 -0.1027 -0.0895
17925TIP3    H175190   4.969   4.553   4.616 -1.5698  2.0995  0.2895
17925TIP3    H275191   4.905   4.427   4.672  2.0433 -0.5022 -1.2362
17926TIP3   OH275192   3.978   2.106  13.793 -0.4503 -1.0318 -1.1110
17926TIP3    H175193   3.907   2.053  13.757 -2.4302  0.7435  0.0954
17926TIP3    H275194   3.994   2.173  13.727 -2.5223  0.8425  0.2208
17927TIP3   OH275195   0.809   5.151  12.044  0.2720  0.1768  0.7513
17927TIP3    H175196   0.797   5.154  11.949  1.2115  2.0522  0.6654
17927TIP3    H275197   0.757   5.076  12.072 -2.0761  1.1149 -0.9322
17928TIP3   OH275198   1.508   3.083  10.677 -0.0648  0.0678 -0.0779
17928TIP3    H175199   1.436   3.062  10.617  1.2449 -2.4290 -0.8501
17928TIP3    H275200   1.520   3.177  10.669 -1.5595  0.1215 -1.8609
17929TIP3   OH275201   6.160   0.829   6.225  0.0400  0.4864 -0.3072
17929TIP3    H175202   6.157   0.820   6.320 -1.3376 -0.9727 -0.4667
17929TIP3    H275203   6.068   0.841   6.199  0.2977 -0.1485 -1.5460
17930TIP3   OH275204   1.764   0.849   0.580 -0.1256  0.3209 -0.3680
17930TIP3    H175205   1.716   0.809   0.508 -1.5639  0.7351  0.3485
17930TIP3    H275206   1.704   0.914   0.616 -0.1320 -1.1121  2.3345
17931TIP3   OH275207   5.079   3.918   1.176 -0.3346 -0.2344  0.4783
17931TIP3    H175208   5.038   3.832   1.172  0.6796 -0.6495 -2.2780
17931TIP3    H275209   5.006   3.980   1.169 -0.8802 -0.9028  0.2671
17932TIP3   OH275210   2.377   2.816  12.210  0.1479  0.7628 -0.1374
17932TIP3    H175211   2.454   2.828  12.266 -0.0422  0.3680  0.2060
17932TIP3    H275212   2.406   2.757  12.141 -0.0396  0.0606  0.3784
17933TIP3   OH275213   1.637   4.470   1.859 -0.2596 -0.1478 -0.4126
17933TIP3    H175214   1.548   4.505   1.870 -0.9469 -1.5653 -1.2129
17933TIP3    H275215   1.694   4.546   1.862 -1.7860  1.1523 -3.0305
17934TIP3   OH275216   6.413   5.889   3.758  0.2557  0.2380  0.1389
17934TIP3    H175217   6.434   5.815   3.701  2.8003  0.0380  1.2757
17934TIP3    H275218   6.318   5.883   3.772  0.2323 -2.0141 -0.8580
17935TIP3   OH275219   2.177   5.372  16.942  0.2091  0.5976  0.3316
17935TIP3    H175220   2.225   5.289  16.938 -0.6171  0.1256  0.1332
17935TIP3    H275221   2.189   5.403  17.032 -0.9721 -0.6303  0.9234
17936TIP3   OH275222   6.757   5.285   3.019 -0.3962  0.5156 -0.0958
17936TIP3    H175223   6.853   5.281   3.019 -0.4095  0.0533 -1.2981
17936TIP3    H275224   6.730   5.227   2.948 -1.6242 -0.3394  1.0457
17937TIP3   OH275225   1.603   2.651  13.720  0.0681  0.6382  0.1652
17937TIP3    H175226   1.512   2.623  13.710  0.3459  0.5769 -2.6192
17937TIP3    H275227   1.652   2.569  13.731 -0.0355  0.5617  0.0590
17938TIP3   OH275228   2.554   0.709  15.156  0.1884  0.4840  0.4087
17938TIP3    H175229   2.479   0.657  15.126  0.8889 -0.9347  1.0455
17938TIP3    H275230   2.597   0.737  15.075  0.5361 -1.0470  0.0405
17939TIP3   OH275231   4.307   0.889  12.213  0.4313 -0.3011 -0.0037
17939TIP3    H175232   4.344   0.809  12.174 -0.2603 -1.0235  0.7786
17939TIP3    H275233   4.224   0.902  12.167 -0.8699 -1.7204  1.8300
17940TIP3   OH275234   5.438   1.044  13.016 -0.0631  0.5667 -0.1041
17940TIP3    H175235   5.386   1.078  13.089  0.5990  0.2401  0.5295
17940TIP3    H275236   5.496   0.980  13.056  1.2073  1.3251 -0.7147
17941TIP3   OH275237   5.413   4.308  13.923  0.0520  0.5845 -0.2719
17941TIP3    H175238   5.505   4.293  13.945 -0.4666 -1.2848  0.7506
17941TIP3    H275239   5.376   4.349  14.000 -0.5385 -1.0121  0.3145
17942TIP3   OH275240   5.546   1.623  14.915  0.3992  0.6456  0.4399
17942TIP3    H175241   5.492   1.550  14.946  0.4271 -0.0210 -1.0304
17942TIP3    H275242   5.622   1.624  14.973 -0.6284  0.8618  1.8039
17943TIP3   OH275243   0.503   1.643   3.519  0.0636  0.1823  0.0448
17943TIP3    H175244   0.571   1.610   3.577 -0.0608  1.8158  1.1237
17943TIP3    H275245   0.467   1.564   3.478  0.9452 -0.8928  1.2975
17944TIP3   OH275246   3.238   2.859  11.767 -0.5027  0.1318 -0.1475
17944TIP3    H175247   3.237   2.951  11.742 -1.8997  0.2399  0.2104
17944TIP3    H275248   3.165   2.851  11.829  0.3551 -0.9581  0.7434
17945TIP3   OH275249   3.189   2.215  16.041 -0.0061  0.3656  0.8576
17945TIP3    H175250   3.245   2.292  16.025  0.7782 -0.4273 -0.3138
17945TIP3    H275251   3.152   2.194  15.955  0.5721 -1.1580  0.9634
17946TIP3   OH275252   3.827   6.618   0.364  0.5964 -0.2183 -0.7212
17946TIP3    H175253   3.850   6.684   0.430  1.3711  0.1479 -1.3442
17946TIP3    H275254   3.791   6.668   0.291  0.4299 -0.5549 -0.8694
17947TIP3   OH275255   6.190   5.545   5.733 -0.3882  0.0280  0.4374
17947TIP3    H175256   6.133   5.473   5.759 -2.1317  2.2671  3.0985
17947TIP3    H275257   6.183   5.547   5.637 -0.8220 -2.8707  0.3658
17948TIP3   OH275258   6.420   4.561   1.325 -0.4589  0.0616  0.6170
17948TIP3    H175259   6.487   4.516   1.375  0.5763 -1.0945 -1.7151
17948TIP3    H275260   6.423   4.652   1.355  0.3103 -0.5494  2.4006
17949TIP3   OH275261   4.738   4.131  13.685  0.0869 -0.7478  0.7703
17949TIP3    H175262   4.810   4.114  13.746  0.5198  0.1640  0.5171
17949TIP3    H275263   4.752   4.220  13.655 -1.6563 -0.2423  1.3976
17950TIP3   OH275264   1.612   0.270   2.039 -0.0129 -0.2581 -0.7334
17950TIP3    H175265   1.685   0.327   2.063  0.8413 -1.7473  0.2133
17950TIP3    H275266   1.647   0.212   1.972  0.0923 -1.9113  0.7244
17951TIP3   OH275267   2.012   5.131  10.834  0.4118  0.2920 -0.3300
17951TIP3    H175268   2.034   5.220  10.805  0.2487  0.3991 -0.1285
17951TIP3    H275269   1.918   5.133  10.848  0.4168  0.1007 -0.2701
17952TIP3   OH275270   3.305   1.320   5.261 -0.2143  0.2451  0.1321
17952TIP3    H175271   3.307   1.405   5.305 -0.7631 -1.1965  3.0676
17952TIP3    H275272   3.222   1.281   5.288  1.4828 -2.5770  1.5259
17953TIP3   OH275273   6.118   1.019  11.226 -0.7328  0.1691 -0.0280
17953TIP3    H175274   6.183   1.043  11.160 -0.5004 -0.0109  0.1376
17953TIP3    H275275   6.163   0.957  11.284 -0.5804  1.1617  0.9405
17954TIP3   OH275276   5.959   4.543  13.884  0.2926  0.0481  0.0850
17954TIP3    H175277   6.012   4.617  13.912 -0.2354  0.8504 -1.0132
17954TIP3    H275278   5.891   4.535  13.951 -0.0446  0.9735 -0.1442
17955TIP3   OH275279   4.212   5.558   6.284  0.7792  0.1411  0.5695
17955TIP3    H175280   4.221   5.587   6.375  0.2045 -0.4826  0.8286
17955TIP3    H275281   4.149   5.619   6.245  0.0782 -0.3466  0.9316
17956TIP3   OH275282   6.268   0.014  14.663  0.4531  0.3994 -0.0628
17956TIP3    H175283   6.237  -0.014  14.749 -1.2482 -0.4116 -0.9209
17956TIP3    H275284   6.268  -0.067  14.611  0.2992  1.1048 -1.1636
17957TIP3   OH275285   1.501   2.136   5.730  0.9267  0.3605  0.2824
17957TIP3    H175286   1.474   2.151   5.639  2.2450 -0.5306 -0.2607
17957TIP3    H275287   1.517   2.042   5.735  1.5885  0.5186  1.2555
17958TIP3   OH275288   3.871   6.781   0.564 -0.2299  0.8285 -0.3740
17958TIP3    H175289   3.933   6.854   0.557 -1.1227  1.5638 -0.8076
17958TIP3    H275290   3.789   6.823   0.590 -0.4679 -0.1738  0.5448
17959TIP3   OH275291   6.046   0.317   2.274 -0.5059  0.8843 -0.2785
17959TIP3    H175292   5.966   0.276   2.306  0.0288 -0.1865 -0.2779
17959TIP3    H275293   6.099   0.244   2.241  0.6623  1.5250  0.1354
17960TIP3   OH275294   0.878   1.160  14.469 -0.5011  0.1901  0.3695
17960TIP3    H175295   0.800   1.201  14.433  0.7435  3.3666  1.0900
17960TIP3    H275296   0.875   1.181  14.563  1.8439  1.5275  0.1932
17961TIP3   OH275297   2.864   4.050   4.133 -0.3258  0.4179  0.3751
17961TIP3    H175298   2.771   4.045   4.111 -0.6203 -0.4775  1.7528
17961TIP3    H275299   2.903   3.973   4.093  0.0471  1.4145 -1.2039
17962TIP3   OH275300   3.350   5.015   3.125 -0.2813  0.4604 -0.7918
17962TIP3    H175301   3.256   5.018   3.109 -0.4674 -0.9553 -0.0265
17962TIP3    H275302   3.390   5.019   3.038 -1.1108 -1.3848 -1.2808
17963TIP3   OH275303   5.077   1.171  11.826  1.2576 -0.4929 -0.1868
17963TIP3    H175304   5.056   1.188  11.918  0.3760 -0.2996 -0.4189
17963TIP3    H275305   5.070   1.257  11.784  0.8249 -0.7230 -0.5886
17964TIP3   OH275306   4.537   4.221   4.318  0.0241 -0.2009 -0.4080
17964TIP3    H175307   4.560   4.177   4.399 -0.8004 -0.0036 -0.0622
17964TIP3    H275308   4.611   4.203   4.259  0.8499  0.0608  0.5306
17965TIP3   OH275309   5.589   2.747  13.196  0.5358 -0.4019 -0.1459
17965TIP3    H175310   5.652   2.781  13.260  0.3931  1.9138 -1.1860
17965TIP3    H275311   5.606   2.653  13.193  2.5229 -0.1060  1.1391
17966TIP3   OH275312   2.001   3.269  16.179 -0.0007  0.7563  0.2175
17966TIP3    H175313   1.993   3.209  16.253 -0.5829  1.2175  0.5317
17966TIP3    H275314   1.931   3.243  16.119 -0.2808  1.1561  0.3737
17967TIP3   OH275315   3.264   0.131   3.064 -0.0928 -0.3238  0.2232
17967TIP3    H175316   3.226   0.114   3.150 -0.4282 -1.4497 -0.1428
17967TIP3    H275317   3.260   0.227   3.055  1.4756 -0.0308  2.1559
17968TIP3   OH275318   4.311   2.386  13.959  0.6104  0.4950  0.3514
17968TIP3    H175319   4.381   2.338  14.003  1.2224  1.1387  0.0927
17968TIP3    H275320   4.252   2.412  14.030 -0.5092 -1.8677  0.3416
17969TIP3   OH275321   5.202   6.361   2.084  0.2430  0.4202 -0.1513
17969TIP3    H175322   5.265   6.348   2.014  1.8899  1.9296  1.0303
17969TIP3    H275323   5.133   6.415   2.045  0.3541 -0.0660 -1.0410
17970TIP3   OH275324   3.764   0.015   1.910  0.2768  0.5737  0.0584
17970TIP3    H175325   3.726   0.064   1.983  1.0356 -0.6010  1.2708
17970TIP3    H275326   3.858   0.017   1.926  0.2267 -3.0099  1.3441
17971TIP3   OH275327   5.252   3.409  15.683 -0.0765  0.1514 -0.2401
17971TIP3    H175328   5.167   3.451  15.697 -0.0080  0.1778  0.0992
17971TIP3    H275329   5.241   3.361  15.601 -0.9717 -1.2567  0.6921
17972TIP3   OH275330   3.013   2.706  12.706  0.5853  0.4379  0.3317
17972TIP3    H175331   3.093   2.748  12.673  0.2255  0.4365 -0.5710
17972TIP3    H275332   2.991   2.642  12.638  1.2169 -1.3452  1.7681
17973TIP3   OH275333   4.609   2.155  12.004 -0.3509 -0.3252 -0.0059
17973TIP3    H175334   4.678   2.092  12.024  0.0229  0.0728 -0.0598
17973TIP3    H275335   4.651   2.240  12.008 -1.3019  0.0811  2.0209
17974TIP3   OH275336   4.940   4.672  16.482 -0.2681  0.9370 -0.2630
17974TIP3    H175337   4.894   4.668  16.565  1.0454  1.4582  0.4926
17974TIP3    H275338   4.968   4.582  16.466  2.3560  1.4048  1.5073
17975TIP3   OH275339   0.886   4.692  12.328  1.2042 -0.2665 -0.0847
17975TIP3    H175340   0.868   4.783  12.350  0.9798 -0.1388 -0.7945
17975TIP3    H275341   0.981   4.683  12.341  1.2522  0.1078 -0.1708
17976TIP3   OH275342   6.618   0.284   2.755  0.5451  0.1525  0.5133
17976TIP3    H175343   6.587   0.275   2.664  1.0826  0.1770  0.3250
17976TIP3    H275344   6.678   0.358   2.752  1.7030 -0.7666  0.5852
17977TIP3   OH275345   4.474   3.397  11.140  0.2506  0.2028  0.0570
17977TIP3    H175346   4.393   3.434  11.105 -1.3553 -1.2943  2.0651
17977TIP3    H275347   4.485   3.440  11.225  0.0516 -1.6052  1.0207
17978TIP3   OH275348   6.355   4.539   4.745  0.8944 -0.5291 -0.2559
17978TIP3    H175349   6.415   4.476   4.784  0.5764 -2.1741 -2.3483
17978TIP3    H275350   6.323   4.496   4.666 -1.5304  1.1130 -0.2143
17979TIP3   OH275351   2.647   1.476  15.967 -0.6317 -0.3856 -0.3130
17979TIP3    H175352   2.625   1.534  16.040 -0.8326 -1.5873  0.5870
17979TIP3    H275353   2.661   1.535  15.893  0.6748  0.9369  0.9566
17980TIP3   OH275354   3.000   5.704  12.929 -0.7128 -0.2164 -0.4164
17980TIP3    H175355   2.927   5.763  12.914 -1.3923 -1.0531 -0.4196
17980TIP3    H275356   3.013   5.704  13.024 -2.7650 -2.4796 -0.0880
17981TIP3   OH275357   2.598   1.680   1.015  0.1417  0.0060  0.9763
17981TIP3    H175358   2.579   1.616   1.083  1.7983 -0.9012  0.6184
17981TIP3    H275359   2.525   1.672   0.954  0.1966 -1.3633  1.0689
17982TIP3   OH275360   2.537   0.796   4.041 -0.5876 -0.1673  0.0634
17982TIP3    H175361   2.623   0.826   4.068 -0.6735 -0.8613  1.1243
17982TIP3    H275362   2.483   0.876   4.039 -0.4641 -0.0481  1.4995
17983TIP3   OH275363   0.072   4.942  14.520  0.1828 -0.5742 -0.0514
17983TIP3    H175364   0.050   4.849  14.513 -2.5213 -0.0807  1.1291
17983TIP3    H275365   0.148   4.944  14.578 -2.0546 -1.8398  3.0398
17984TIP3   OH275366   0.860   4.526  11.844 -0.1494  0.4850  0.0193
17984TIP3    H175367   0.853   4.602  11.787  1.7504  1.6043  1.2348
17984TIP3    H275368   0.825   4.555  11.928 -1.9771 -0.8445 -0.2412
17985TIP3   OH275369   2.171   3.615  14.081 -0.1418 -0.1453  0.4588
17985TIP3    H175370   2.151   3.540  14.137 -0.3952 -1.6885 -1.6302
17985TIP3    H275371   2.085   3.647  14.052  0.0050  0.3122  0.5249
17986TIP3   OH275372   6.471   2.751   1.997 -0.0798  0.3846  0.0073
17986TIP3    H175373   6.423   2.668   2.006 -0.4912  0.5819 -0.3088
17986TIP3    H275374   6.408   2.818   2.025 -0.4140  0.7538 -1.5687
17987TIP3   OH275375   0.904   0.502   1.830  0.9594  0.3593  0.1644
17987TIP3    H175376   0.844   0.442   1.876  0.1380  0.9970 -0.0579
17987TIP3    H275377   0.968   0.444   1.789 -0.3815 -0.4649 -0.8359
17988TIP3   OH275378   6.300   6.522   6.254 -0.0441 -0.0464  0.0966
17988TIP3    H175379   6.263   6.520   6.342 -0.9563 -0.3260 -0.2817
17988TIP3    H275380   6.366   6.453   6.254 -0.8148 -0.7876  0.2323
17989TIP3   OH275381   2.063   5.658   0.089  0.1578  0.4036  0.3433
17989TIP3    H175382   2.036   5.678   0.178 -0.2251 -1.0506  0.5633
17989TIP3    H275383   1.981   5.637   0.043  0.2216  2.2268 -0.6475
17990TIP3   OH275384   3.730   3.068   5.812 -0.6004 -0.6516 -0.5609
17990TIP3    H175385   3.671   3.072   5.888 -0.1340 -3.3462 -0.0115
17990TIP3    H275386   3.818   3.075   5.849 -0.4755  2.4619 -1.3017
17991TIP3   OH275387   5.742   0.049  10.786 -0.0746  0.3538 -0.4207
17991TIP3    H175388   5.780  -0.021  10.733 -0.6724 -0.6390  0.4362
17991TIP3    H275389   5.797   0.051  10.865 -0.6068  0.2439 -0.0484
17992TIP3   OH275390   4.256   6.777   0.035 -0.1564 -0.4347  0.1294
17992TIP3    H175391   4.273   6.703  -0.023 -1.0681  0.1356 -0.8798
17992TIP3    H275392   4.340   6.821   0.044  0.2775 -1.2992  0.3205
17993TIP3   OH275393   2.331   6.236   0.396  0.1796  0.0699  0.0719
17993TIP3    H175394   2.261   6.261   0.336 -0.3212  0.1351  0.6790
17993TIP3    H275395   2.302   6.152   0.433  0.4476  0.0723  0.2888
17994TIP3   OH275396   4.471   1.304  12.492 -0.0889  0.2440 -0.1732
17994TIP3    H175397   4.443   1.216  12.470  0.8237 -0.0513 -0.1650
17994TIP3    H275398   4.549   1.292  12.546 -1.2632  1.0095  1.7240
17995TIP3   OH275399   6.679   1.376  13.794  0.1437  0.0459  0.0668
17995TIP3    H175400   6.752   1.328  13.754 -0.8129 -0.7108 -0.7894
17995TIP3    H275401   6.614   1.308  13.812  0.3935  0.4152  2.5877
17996TIP3   OH275402   3.401   5.814  16.523 -0.0815 -0.5080 -0.4607
17996TIP3    H175403   3.471   5.861  16.568  2.4547 -3.8736 -0.7449
17996TIP3    H275404   3.361   5.760  16.592 -2.6385  1.5328 -0.2476
17997TIP3   OH275405   6.092   5.770  13.288  0.2916  0.2922  0.2910
17997TIP3    H175406   6.176   5.730  13.266 -0.6684 -0.3172 -2.4602
17997TIP3    H275407   6.116   5.852  13.332  2.2845 -1.3763  2.4622
17998TIP3   OH275408   4.156   6.272  15.485 -0.1792 -0.7236 -0.2014
17998TIP3    H175409   4.168   6.205  15.417  0.2070 -0.2406 -0.6039
17998TIP3    H275410   4.123   6.349  15.439  1.0420 -0.0674  0.0101
17999TIP3   OH275411   0.027   5.153  12.077 -0.1255  0.6605  0.1857
17999TIP3    H175412  -0.013   5.182  11.995 -0.3881  1.5494  0.6259
17999TIP3    H275413   0.053   5.234  12.121  1.1519  0.1355  0.4131
18000TIP3   OH275414   5.790   5.020  13.996 -0.6381 -0.0780  0.7845
18000TIP3    H175415   5.754   5.049  14.080 -1.5619  0.3342  0.2615
18000TIP3    H275416   5.884   5.038  14.002 -0.6100 -0.5673  1.9338
18001TIP3   OH275417   4.785   1.093  16.456  0.5671  0.0530 -0.2479
18001TIP3    H175418   4.843   1.148  16.510  0.2969 -0.3091  0.4104
18001TIP3    H275419   4.764   1.019  16.512 -3.1275  1.7349  0.7469
18002TIP3   OH275420   5.537   6.106  10.805  0.0763  0.1883 -0.3896
18002TIP3    H175421   5.590   6.089  10.727  0.8231  0.0649  0.1356
18002TIP3    H275422   5.514   6.019  10.838 -1.4456  0.2457 -1.2756
18003TIP3   OH275423   3.923   1.757   5.839  0.1257 -0.3944 -0.6874
18003TIP3    H175424   3.895   1.848   5.833  0.0499 -0.2441  1.5539
18003TIP3    H275425   3.994   1.758   5.904 -1.6443 -2.2818  1.3753
18004TIP3   OH275426   5.670   6.506  10.759 -0.2668 -0.2133  0.4525
18004TIP3    H175427   5.644   6.578  10.817 -0.7473  1.1903 -1.4534
18004TIP3    H275428   5.738   6.544  10.703 -0.7416 -1.1320 -0.7787
18005TIP3   OH275429   0.434   3.545   3.988 -0.2348 -0.0431  0.3701
18005TIP3    H175430   0.411   3.584   4.073  1.2264  0.8518  0.3698
18005TIP3    H275431   0.444   3.452   4.007  0.9111  0.2665  1.3730
18006TIP3   OH275432   0.210   2.518  12.938  0.0976 -0.0377  0.6669
18006TIP3    H175433   0.155   2.458  12.990 -0.1859 -0.4872 -0.1521
18006TIP3    H275434   0.292   2.523  12.987  0.8668 -2.6943 -0.3209
18007TIP3   OH275435   1.362   2.558  13.836 -0.6950  0.9808 -0.0884
18007TIP3    H175436   1.279   2.588  13.873 -0.6460  0.3834  0.5109
18007TIP3    H275437   1.354   2.463  13.832 -1.3014  1.1003 -3.0502
18008TIP3   OH275438   1.529   1.746  12.676 -0.3131 -0.0102 -0.3641
18008TIP3    H175439   1.521   1.653  12.699 -0.4347 -0.2959 -1.5171
18008TIP3    H275440   1.612   1.753  12.630 -0.5816  0.3500 -0.7965
18009TIP3   OH275441   6.351   2.596   0.691  0.4269  0.0892  0.0734
18009TIP3    H175442   6.363   2.506   0.659  0.5848  0.6576 -1.5224
18009TIP3    H275443   6.265   2.622   0.659  1.4852  1.4232 -1.7806
18010TIP3   OH275444   1.100   3.041  17.137  0.1869 -0.1169  0.0583
18010TIP3    H175445   1.088   3.117  17.195  0.4302 -0.2579  0.2968
18010TIP3    H275446   1.069   2.967  17.189  0.3125 -0.2313 -0.0302
18011TIP3   OH275447   1.987   3.133  14.358  0.1968 -0.0763  0.2832
18011TIP3    H175448   1.968   3.049  14.399 -1.3452  0.1963  0.1654
18011TIP3    H275449   1.988   3.114  14.264 -2.4141  0.4274  0.1153
18012TIP3   OH275450   3.748   1.375   4.156  0.2655 -0.0097 -0.3505
18012TIP3    H175451   3.815   1.391   4.223 -0.9306 -1.1568  1.1577
18012TIP3    H275452   3.680   1.440   4.173 -0.8294 -1.3731  0.6669
18013TIP3   OH275453   3.051   1.816  12.811 -0.0194 -0.1786 -0.4151
18013TIP3    H175454   2.977   1.823  12.751  0.0571 -0.8052 -0.5920
18013TIP3    H275455   3.032   1.738  12.864  0.0874  0.1655  0.1299
18014TIP3   OH275456   5.990   3.294   4.028  0.5131  0.4260  0.3156
18014TIP3    H175457   5.902   3.286   3.993  0.0909 -0.4008  1.5356
18014TIP3    H275458   5.982   3.268   4.120  2.0230  0.3465  0.4394
18015TIP3   OH275459   3.522   6.048  16.034  0.1377  0.4708  0.0838
18015TIP3    H175460   3.478   5.968  16.062 -1.7609  0.8583 -1.6210
18015TIP3    H275461   3.496   6.058  15.942  2.0012  1.9487 -0.3085
18016TIP3   OH275462   0.029   1.334   1.085  0.1311  0.6007  0.2563
18016TIP3    H175463   0.030   1.364   0.994  2.4096  0.1780  0.1174
18016TIP3    H275464   0.021   1.238   1.079 -0.8203  0.6567  0.5374
18017TIP3   OH275465   5.160   3.494   6.426 -0.4424  0.2768 -0.0253
18017TIP3    H175466   5.148   3.464   6.516  1.0414  0.9920  0.4303
18017TIP3    H275467   5.242   3.545   6.428 -0.8562  1.0502 -1.5809
18018TIP3   OH275468   5.003   2.698  12.223 -0.0244 -0.2764  0.3757
18018TIP3    H175469   5.020   2.661  12.137  2.0748  0.4740  0.4366
18018TIP3    H275470   4.951   2.631  12.268 -0.4217 -1.0261 -1.1693
18019TIP3   OH275471   1.606   2.160  16.413 -0.0357 -0.3197 -0.2887
18019TIP3    H175472   1.520   2.118  16.405 -0.7418  1.0555 -0.1677
18019TIP3    H275473   1.585   2.251  16.437  1.4921 -0.2853  0.9456
18020TIP3   OH275474   1.478   3.805   0.358 -0.3286 -0.0623  0.2699
18020TIP3    H175475   1.424   3.868   0.406 -3.5791 -2.1215 -0.4835
18020TIP3    H275476   1.466   3.830   0.266  0.0263 -0.5407  0.0948
18021TIP3   OH275477   4.157   3.178  16.738  0.7415  0.2720 -0.9109
18021TIP3    H175478   4.232   3.140  16.691 -0.1748 -3.0353  0.1198
18021TIP3    H275479   4.193   3.204  16.823  1.1789  0.7976 -1.2543
18022TIP3   OH275480   1.521   5.250   2.878  0.4787  0.0533 -0.2016
18022TIP3    H175481   1.587   5.190   2.914  0.4652  0.3552  0.3210
18022TIP3    H275482   1.503   5.312   2.948 -1.1222 -0.6334  0.0225
18023TIP3   OH275483   5.055   3.918  12.111  0.3441  0.3532 -0.0665
18023TIP3    H175484   5.042   3.960  12.195 -2.4124  0.1216 -0.3422
18023TIP3    H275485   5.086   3.988  12.053  3.9669  0.1519  1.4919
18024TIP3   OH275486   3.791   4.358  17.094  0.3342 -0.6281 -0.0849
18024TIP3    H175487   3.729   4.427  17.071  1.8816  0.3466 -1.4842
18024TIP3    H275488   3.799   4.364  17.189 -2.0446 -1.0885  0.1753
18025TIP3   OH275489   5.816   5.375   2.915 -0.9761  0.0717 -0.1601
18025TIP3    H175490   5.722   5.371   2.899 -0.9729  0.3957 -0.2589
18025TIP3    H275491   5.845   5.284   2.911 -1.2773 -0.0230 -0.1801
18026TIP3   OH275492   6.712   2.020   3.487  0.6989  0.2319 -0.1143
18026TIP3    H175493   6.709   1.924   3.490  0.8700  0.1640 -1.6133
18026TIP3    H275494   6.674   2.048   3.570 -0.7696 -1.1224 -0.3039
18027TIP3   OH275495   6.301   5.787   5.688  0.1040 -0.1700  0.3246
18027TIP3    H175496   6.268   5.698   5.702 -0.0904  0.1753  2.1112
18027TIP3    H275497   6.392   5.783   5.720  0.5859 -0.1033 -0.9916
18028TIP3   OH275498   4.630   3.473  10.904  0.3083  0.2848 -0.0898
18028TIP3    H175499   4.600   3.478  10.994 -1.9300  1.4715 -0.8456
18028TIP3    H275500   4.569   3.530  10.856  1.0394 -0.8620 -2.4394
18029TIP3   OH275501   2.924   2.755  16.661  0.1530 -0.7131 -0.5121
18029TIP3    H175502   2.860   2.803  16.609  0.8084 -0.9900 -1.6019
18029TIP3    H275503   2.885   2.669  16.674 -1.5795  0.4832  2.5263
18030TIP3   OH275504   1.898   0.191  14.946 -0.4192  0.2451 -0.0827
18030TIP3    H175505   1.920   0.250  15.019 -1.2759 -0.2922  0.6236
18030TIP3    H275506   1.877   0.249  14.873  0.4670  0.7919  0.0893
18031TIP3   OH275507   3.030   3.654  12.183  0.0089 -0.2544 -0.3896
18031TIP3    H175508   2.970   3.703  12.126 -0.4778 -0.2629  0.1157
18031TIP3    H275509   3.010   3.562  12.166  0.8178 -0.2807 -1.2272
18032TIP3   OH275510   1.767   4.831  15.968  0.2722  0.0456  0.2947
18032TIP3    H175511   1.857   4.865  15.969  0.4229 -0.2779 -1.3155
18032TIP3    H275512   1.769   4.758  16.029  1.5826 -1.1342 -1.1230
18033TIP3   OH275513   6.405   1.903   0.558 -0.1501  0.0570 -0.1982
18033TIP3    H175514   6.451   1.987   0.557 -1.2149  0.6416 -2.6736
18033TIP3    H275515   6.470   1.839   0.528  0.2687  0.1897  0.4089
18034TIP3   OH275516   1.375   6.597   3.890 -0.1726 -0.0710  0.7529
18034TIP3    H175517   1.318   6.659   3.935 -0.7046 -0.6597  0.8900
18034TIP3    H275518   1.431   6.652   3.834 -0.2992  0.5649  1.2531
18035TIP3   OH275519   3.384   4.389   5.291 -0.2235  0.2411  0.1918
18035TIP3    H175520   3.436   4.322   5.334  0.1152  0.4026  0.0335
18035TIP3    H275521   3.295   4.376   5.324 -0.1150 -0.1455  0.3253
18036TIP3   OH275522   0.185   5.045   0.786 -0.0634  0.1576 -0.0754
18036TIP3    H175523   0.182   5.133   0.823  1.2346 -0.4719  1.5961
18036TIP3    H275524   0.244   5.052   0.711 -0.2686  0.7867 -0.1800
18037TIP3   OH275525   2.495   4.507   6.344  0.3065 -0.2665 -1.3512
18037TIP3    H175526   2.567   4.474   6.399 -1.4380 -1.5335  0.2370
18037TIP3    H275527   2.467   4.588   6.388 -0.0910 -0.4660 -1.2405
18038TIP3   OH275528   1.453   4.679  10.970 -0.0794  0.4834  0.0007
18038TIP3    H175529   1.435   4.638  10.886  1.4038 -0.5161  0.1558
18038TIP3    H275530   1.493   4.763  10.948 -0.3942  0.5580 -0.2878
18039TIP3   OH275531   4.442   5.906  14.573 -0.3882 -0.4459 -0.0729
18039TIP3    H175532   4.527   5.861  14.572 -0.0384  0.2305 -0.5562
18039TIP3    H275533   4.389   5.858  14.510 -0.4098 -0.9383  0.3085
18040TIP3   OH275534   0.761   0.217  15.682 -0.2138  0.6808 -0.2697
18040TIP3    H175535   0.831   0.178  15.735  0.0475  1.0766 -0.3211
18040TIP3    H275536   0.680   0.185  15.722 -0.0041  0.2411 -0.1929
18041TIP3   OH275537   5.842   3.902  12.547 -0.5223  0.1995 -0.6785
18041TIP3    H175538   5.867   3.833  12.608 -1.4752 -0.6544 -1.2333
18041TIP3    H275539   5.828   3.979  12.602 -1.0653 -0.4796  0.1416
18042TIP3   OH275540   2.039   4.586   0.466 -0.5623  0.5027  0.2440
18042TIP3    H175541   2.124   4.572   0.426 -1.2135 -2.8744 -0.1405
18042TIP3    H275542   1.981   4.608   0.393 -0.5527  0.2074  0.1481
18043TIP3   OH275543   2.161   3.525  13.562  0.4165 -0.2371  0.1894
18043TIP3    H175544   2.174   3.619  13.552 -0.6382  0.0773  1.5900
18043TIP3    H275545   2.225   3.499  13.629  0.7503 -0.5342 -0.2395
18044TIP3   OH275546   1.318   4.243   2.185 -0.3863  0.3196 -0.7114
18044TIP3    H175547   1.359   4.158   2.202 -0.7231 -0.0157 -1.5867
18044TIP3    H275548   1.224   4.228   2.200 -0.2266  1.0583  1.1955
18045TIP3   OH275549   4.581   1.471  12.822 -0.1669  0.1406 -0.8162
18045TIP3    H175550   4.518   1.504  12.758 -0.7825  0.0774 -0.2507
18045TIP3    H275551   4.580   1.536  12.892 -0.0595 -0.1807 -0.5163
18046TIP3   OH275552   1.338   1.017  14.910  0.2633  0.2608 -0.1475
18046TIP3    H175553   1.311   0.993  14.822  0.6928  1.6259 -0.6697
18046TIP3    H275554   1.426   0.980  14.919  0.9436  1.6625 -0.9632
18047TIP3   OH275555   5.191   5.428   2.469 -0.4638  0.3516  0.3773
18047TIP3    H175556   5.122   5.429   2.536 -1.7271  2.9772 -0.8509
18047TIP3    H275557   5.143   5.428   2.386  1.0317  1.0993 -0.5077
18048TIP3   OH275558   6.717   5.771   0.877 -0.8358  0.0828  0.5629
18048TIP3    H175559   6.663   5.714   0.933 -1.0126  0.2730  0.5882
18048TIP3    H275560   6.764   5.711   0.820  0.6374 -0.2106  2.0574
18049TIP3   OH275561   4.180   3.437   3.948  0.3540  0.0396  0.3317
18049TIP3    H175562   4.160   3.523   3.986  0.5230 -0.4581  1.5851
18049TIP3    H275563   4.095   3.392   3.944  0.2139  0.3946 -0.6521
18050TIP3   OH275564   6.612   0.059   3.140  0.2650  0.3363 -0.2247
18050TIP3    H175565   6.628  -0.031   3.169 -1.6384  0.7667  2.2571
18050TIP3    H275566   6.678   0.111   3.186 -0.0638  0.4829  0.0847
18051TIP3   OH275567   5.169   4.446  14.740 -0.2925 -0.1931 -0.3011
18051TIP3    H175568   5.077   4.470  14.733 -0.2231  0.5131  1.1710
18051TIP3    H275569   5.204   4.502  14.809  0.5603 -2.5051  1.1881
18052TIP3   OH275570   1.991   4.376  12.964 -0.1685 -0.0168  0.1450
18052TIP3    H175571   1.910   4.337  12.996  0.4250 -0.9457  0.5111
18052TIP3    H275572   2.060   4.332  13.012  0.5164  1.4855  0.5765
18053TIP3   OH275573   3.653   2.948   2.866 -0.2003 -0.1314 -0.2200
18053TIP3    H175574   3.744   2.946   2.895  0.2097  0.2802 -1.4574
18053TIP3    H275575   3.639   3.038   2.835 -0.5237 -0.6319 -1.5932
18054TIP3   OH275576   4.626   3.368  11.642  0.3806  0.2893  0.1073
18054TIP3    H175577   4.685   3.310  11.689 -0.4054 -2.5868 -2.2564
18054TIP3    H275578   4.680   3.441  11.614  2.4172 -1.4205 -0.4973
18055TIP3   OH275579   0.216   4.002   4.686 -0.2239 -0.0600  0.1749
18055TIP3    H175580   0.189   4.068   4.750  0.1999 -0.7733  1.1024
18055TIP3    H275581   0.230   4.050   4.605 -1.5409  0.7459  0.4134
18056TIP3   OH275582   6.401   3.565   5.500  0.4301  1.1080 -0.1053
18056TIP3    H175583   6.430   3.608   5.420  3.5387 -2.3801 -0.9549
18056TIP3    H275584   6.385   3.474   5.475 -5.6443  1.4256  1.7172
18057TIP3   OH275585   2.160   3.870  14.518  0.1880  0.6526 -0.6890
18057TIP3    H175586   2.109   3.950  14.521 -1.8876 -0.5683 -1.5688
18057TIP3    H275587   2.250   3.898  14.503  0.0520  2.9335  2.4061
18058TIP3   OH275588   2.532   0.488   6.082 -0.1566  0.4554 -0.2445
18058TIP3    H175589   2.568   0.405   6.112 -1.7092 -0.1117  0.0699
18058TIP3    H275590   2.535   0.545   6.159 -1.9642 -0.2782  0.3932
18059TIP3   OH275591   3.803   6.341   1.772  0.2562  0.0090 -0.1051
18059TIP3    H175592   3.811   6.249   1.746 -2.1306  0.5829 -3.0603
18059TIP3    H275593   3.881   6.383   1.736  0.2034 -0.4236 -0.7304
18060TIP3   OH275594   6.097   1.418   2.752 -0.1101  0.4216  0.1123
18060TIP3    H175595   6.083   1.421   2.657 -0.8915  1.3160  0.2421
18060TIP3    H275596   6.179   1.465   2.765  0.0788  0.1615 -0.1403
18061TIP3   OH275597   2.852   1.138  15.751 -0.8037 -0.2696  0.5396
18061TIP3    H175598   2.927   1.190  15.724 -0.5482 -0.7164  0.3765
18061TIP3    H275599   2.842   1.155  15.844 -1.0090  0.4252  0.3925
18062TIP3   OH275600   5.996   1.625   4.726 -0.4848  0.6976 -0.5829
18062TIP3    H175601   5.978   1.706   4.678 -0.4314  1.4668  0.6693
18062TIP3    H275602   5.909   1.587   4.742 -0.4145 -0.4385 -2.7332
18063TIP3   OH275603   6.390   4.122  13.239 -0.4071  0.2652  0.5952
18063TIP3    H175604   6.438   4.168  13.308 -0.7519  0.3614  0.7697
18063TIP3    H275605   6.454   4.112  13.169  0.1834 -0.5937  1.2586
18064TIP3   OH275606   0.351   5.757  14.854 -0.4722 -0.2672  0.5473
18064TIP3    H175607   0.413   5.746  14.926 -0.7863 -0.3251  0.8123
18064TIP3    H275608   0.327   5.850  14.856 -0.8173 -0.3575  0.8018
18065TIP3   OH275609   0.631   5.981   1.738  0.0336 -0.1269 -0.4246
18065TIP3    H175610   0.628   5.981   1.643  0.9623 -2.8858 -0.5029
18065TIP3    H275611   0.581   5.904   1.764  0.0188  0.4375  1.3060
18066TIP3   OH275612   1.649   5.906  16.249  0.1440  0.4397  0.2651
18066TIP3    H175613   1.590   5.876  16.318  1.8251 -0.7378  1.2195
18066TIP3    H275614   1.733   5.866  16.270  0.9913  1.0839 -1.7772
18067TIP3   OH275615   3.552   1.581  15.941 -0.4006  0.0115 -0.1835
18067TIP3    H175616   3.579   1.521  16.011  2.4557  1.2813 -0.1420
18067TIP3    H275617   3.569   1.668  15.976 -3.2098  0.8481 -0.7860
18068TIP3   OH275618   3.568   2.726   4.043 -0.0118  0.5074  0.1321
18068TIP3    H175619   3.611   2.706   4.126 -1.1199 -0.9129  0.3910
18068TIP3    H275620   3.496   2.664   4.038 -2.0253  2.7851 -0.3091
18069TIP3   OH275621   3.745   4.573  16.789 -0.0118 -0.2371 -0.3881
18069TIP3    H175622   3.778   4.653  16.748 -0.2369 -0.0676 -0.2423
18069TIP3    H275623   3.729   4.597  16.880 -0.3213 -0.3776 -0.4032
18070TIP3   OH275624   5.629   0.696   0.977  0.2108 -0.0241  0.4066
18070TIP3    H175625   5.544   0.729   0.950  0.0100 -0.6484  0.2631
18070TIP3    H275626   5.668   0.767   1.029  0.2318  0.8230 -0.7685
18071TIP3   OH275627   4.927   0.062   3.451 -0.2146  0.1343 -0.6269
18071TIP3    H175628   4.926   0.123   3.525 -0.7666  1.0892 -1.4304
18071TIP3    H275629   4.923   0.117   3.373  1.4727 -0.8134 -1.4144
18072TIP3   OH275630   0.856   4.600  13.337  0.0209  0.6017  0.4590
18072TIP3    H175631   0.948   4.613  13.311 -0.2303  2.7891  0.5178
18072TIP3    H275632   0.861   4.575  13.429  0.6222 -0.7069  0.0791
18073TIP3   OH275633   4.217   0.069  13.219 -0.0594 -0.1853 -0.3379
18073TIP3    H175634   4.212   0.064  13.314 -1.4911 -0.5011 -0.4245
18073TIP3    H275635   4.155   0.137  13.194  1.4727  1.0367 -0.9611
18074TIP3   OH275636   5.864   1.874   1.134 -0.4252 -0.7323  0.1903
18074TIP3    H175637   5.858   1.932   1.059 -0.1557  1.9870  2.1985
18074TIP3    H275638   5.918   1.801   1.104  0.4549  0.7752 -1.9507
18075TIP3   OH275639   0.101   1.163  16.367  0.6134 -0.4534 -0.2981
18075TIP3    H175640   0.155   1.136  16.442  0.2340 -0.1181  0.1012
18075TIP3    H275641   0.066   1.081  16.332  1.3146 -0.6665 -0.5038
18076TIP3   OH275642   4.628   4.072  13.376 -0.1148 -0.3593  0.2165
18076TIP3    H175643   4.592   4.022  13.303  2.6438 -0.4058 -1.1805
18076TIP3    H275644   4.576   4.045  13.452 -2.3130 -1.1295 -1.5154
18077TIP3   OH275645   6.783   3.778  15.459  0.2051 -0.2712  0.2297
18077TIP3    H175646   6.748   3.769  15.548  0.2249  0.9128  0.3740
18077TIP3    H275647   6.872   3.811  15.472  0.1861 -0.0358 -0.2274
18078TIP3   OH275648   6.608   5.911  14.188  0.0298 -0.1213 -0.0393
18078TIP3    H175649   6.665   5.972  14.140  2.3849 -1.0787  1.4287
18078TIP3    H275650   6.586   5.844  14.124  0.4405  0.3565 -0.6909
18079TIP3   OH275651   2.252   5.980  13.394  0.6960  0.4608 -0.6038
18079TIP3    H175652   2.209   5.984  13.479  1.3542 -0.7773 -0.1912
18079TIP3    H275653   2.186   6.011  13.332 -0.3908 -0.2730  0.1607
18080TIP3   OH275654   1.864   0.367   6.262 -0.3346 -0.2883  0.0968
18080TIP3    H175655   1.804   0.298   6.232  0.5761 -1.2698  0.4943
18080TIP3    H275656   1.947   0.322   6.274 -0.0480  0.6179  1.6248
18081TIP3   OH275657   2.957   3.197   2.254  0.1362 -0.2884  0.3177
18081TIP3    H175658   2.967   3.277   2.203  0.2612  0.5833  1.6715
18081TIP3    H275659   2.862   3.186   2.262  0.0735  1.4871  2.7529
18082TIP3   OH275660   4.268   3.368   3.707 -0.2238  0.3921  0.0179
18082TIP3    H175661   4.276   3.396   3.798 -0.2634 -0.2031  0.2067
18082TIP3    H275662   4.233   3.279   3.712  0.9726 -0.1194 -0.5344
18083TIP3   OH275663   5.871   0.607   5.410 -0.0337 -0.1290  0.0609
18083TIP3    H175664   5.937   0.639   5.349 -0.4912  0.5591 -0.0865
18083TIP3    H275665   5.835   0.529   5.368 -0.5139  0.4783 -0.6660
18084TIP3   OH275666   5.802   3.026   6.648  0.0963  0.1241  0.1688
18084TIP3    H175667   5.720   3.061   6.614  1.1975  0.9268 -1.7457
18084TIP3    H275668   5.776   2.954   6.705 -1.9820  1.1317  0.5365
18085TIP3   OH275669   3.738   6.563  15.847 -0.2507  0.6456 -0.0940
18085TIP3    H175670   3.760   6.476  15.879 -2.0925  0.5433  0.9216
18085TIP3    H275671   3.821   6.597  15.812  0.1145 -2.1373 -2.0300
18086TIP3   OH275672   3.121   4.662  11.474  0.5617  0.3642  0.6013
18086TIP3    H175673   3.154   4.590  11.527  2.1528  0.0327 -0.7641
18086TIP3    H275674   3.099   4.621  11.390  1.0817  1.3798 -0.0449
18087TIP3   OH275675   4.025   4.367  12.432 -0.0050 -0.0479  0.1608
18087TIP3    H175676   4.014   4.374  12.338 -0.9907 -0.4018  0.2460
18087TIP3    H275677   4.098   4.306  12.444 -0.4392 -0.6648 -0.3478
18088TIP3   OH275678   3.262   0.704  15.832 -0.1868 -0.4020 -0.3898
18088TIP3    H175679   3.219   0.782  15.866 -1.3651 -0.1484 -2.3753
18088TIP3    H275680   3.320   0.676  15.902 -1.5972  0.8175  1.2983
18089TIP3   OH275681   0.992   4.617  10.584  0.3679 -0.0649  0.0308
18089TIP3    H175682   0.921   4.670  10.621 -0.7736 -1.2083 -0.4954
18089TIP3    H275683   1.071   4.665  10.607 -0.5078  0.7669  1.4100
18090TIP3   OH275684   4.554   5.018   2.864 -0.2947  0.1620  0.1128
18090TIP3    H175685   4.473   5.068   2.873 -1.0633 -0.9772 -0.3673
18090TIP3    H275686   4.621   5.084   2.844 -1.3595  0.9775 -0.8330
18091TIP3   OH275687   3.417   5.694  15.066 -1.1020 -0.3339  0.1989
18091TIP3    H175688   3.488   5.632  15.080 -0.0062  0.5905 -1.1744
18091TIP3    H275689   3.354   5.647  15.012 -0.1946 -0.2119 -0.9808
18092TIP3   OH275690   0.188   6.670   0.751 -0.7752 -0.5591 -0.3986
18092TIP3    H175691   0.217   6.674   0.843 -1.4104 -1.9034 -0.1278
18092TIP3    H275692   0.136   6.749   0.739  0.1485  0.1329  0.1118
18093TIP3   OH275693   6.452   2.524  13.992  0.1769 -0.2573 -0.6719
18093TIP3    H175694   6.452   2.513  14.087 -2.0022 -2.1536 -0.8489
18093TIP3    H275695   6.459   2.618  13.979  1.4953 -0.0381  1.3371
18094TIP3   OH275696   3.365   1.777   3.786 -0.0990 -0.0725 -0.3380
18094TIP3    H175697   3.363   1.829   3.705  1.4378 -0.0017 -0.3381
18094TIP3    H275698   3.353   1.840   3.856 -1.9629 -0.1957 -0.5161
18095TIP3   OH275699   4.023   3.622   5.072  0.3702  0.0952  0.3008
18095TIP3    H175700   3.971   3.682   5.018  0.3005  0.0273  0.2925
18095TIP3    H275701   4.113   3.651   5.059  0.3758 -0.0700 -0.0435
18096TIP3   OH275702   2.454   2.958   5.740 -1.0261  0.0749 -0.1758
18096TIP3    H175703   2.491   2.934   5.825  2.1696  1.4428 -1.1375
18096TIP3    H275704   2.506   2.909   5.676 -1.2624  1.5714 -1.5436
18097TIP3   OH275705   1.679   0.859  16.611  0.2041  0.2687  0.1188
18097TIP3    H175706   1.762   0.852  16.564 -0.2852 -1.1739 -0.5680
18097TIP3    H275707   1.664   0.771  16.647 -1.7443  0.1141 -1.0143
18098TIP3   OH275708   0.866   0.879  15.575  0.1504 -0.0390  0.5471
18098TIP3    H175709   0.794   0.907  15.518 -0.3478  0.9136  1.6319
18098TIP3    H275710   0.945   0.894  15.522 -0.2442  1.6403  0.3932
18099TIP3   OH275711   2.462   6.477   3.843  0.2700  0.1805  0.6322
18099TIP3    H175712   2.444   6.408   3.779  0.7601  1.0010 -0.4139
18099TIP3    H275713   2.423   6.556   3.805 -1.5703  0.2057  2.5085
18100TIP3   OH275714   2.894   0.967   5.833 -0.0724 -0.6253 -0.2365
18100TIP3    H175715   2.920   0.946   5.743  1.9495 -0.2185  0.2109
18100TIP3    H275716   2.945   0.907   5.887 -2.0392 -1.5618  0.6093
18101TIP3   OH275717   3.466   1.801  13.723 -0.0948 -0.2339 -0.1684
18101TIP3    H175718   3.526   1.810  13.797 -2.2076 -1.0238  1.6823
18101TIP3    H275719   3.469   1.708  13.700  2.6691  0.4416 -2.9806
18102TIP3   OH275720   1.709   1.920  16.244  0.4205 -0.3038  0.1363
18102TIP3    H175721   1.672   2.006  16.264 -1.4675 -1.0523 -0.0525
18102TIP3    H275722   1.732   1.925  16.152 -0.2349 -0.1778 -0.0262
18103TIP3   OH275723   2.080   1.249   1.124  0.1675  0.1224  0.3651
18103TIP3    H175724   2.126   1.287   1.199  1.5039  0.6687 -0.7254
18103TIP3    H275725   2.139   1.181   1.092  0.2545  0.8654 -1.0817
18104TIP3   OH275726   2.806   5.146   0.376  0.5228 -0.0211  0.4608
18104TIP3    H175727   2.813   5.127   0.469  0.0237  1.3183  0.7776
18104TIP3    H275728   2.740   5.215   0.370  1.1874  0.5315 -0.7948
18105TIP3   OH275729   3.575   0.047  13.599  0.4186 -0.4836 -0.4594
18105TIP3    H175730   3.661   0.025  13.634  1.0946  1.3043 -0.9715
18105TIP3    H275731   3.583   0.032  13.505  0.8932  1.8109 -0.8265
18106TIP3   OH275732   6.612   5.081   0.529 -0.2081  0.2710 -0.5839
18106TIP3    H175733   6.642   5.156   0.477  1.1553  1.4186  1.7655
18106TIP3    H275734   6.693   5.040   0.561 -1.0049  0.1950  1.4168
18107TIP3   OH275735   1.794   4.940   3.912 -0.1942  0.2529 -0.2700
18107TIP3    H175736   1.788   4.845   3.908 -2.7588  0.3484  0.9359
18107TIP3    H275737   1.803   4.967   3.820 -0.0543 -1.0954 -0.6644
18108TIP3   OH275738   3.799   4.334  15.944  0.6494  0.0116  0.0100
18108TIP3    H175739   3.796   4.361  15.852  0.5328 -1.8061 -0.5313
18108TIP3    H275740   3.891   4.311  15.959  0.9336  1.5214  0.7302
18109TIP3   OH275741   5.873   0.112  11.864  0.5714 -0.2147 -0.0989
18109TIP3    H175742   5.864   0.168  11.787  1.3167 -1.8101 -1.3648
18109TIP3    H275743   5.784   0.082  11.883  0.6075 -1.0708 -1.2855
18110TIP3   OH275744   3.459   0.224   0.804  0.6006  0.1434  0.8098
18110TIP3    H175745   3.433   0.316   0.798 -0.5926 -0.1907  0.5886
18110TIP3    H275746   3.452   0.203   0.897  2.9853  0.8567  1.1604
18111TIP3   OH275747   3.762   5.182  14.125 -0.7398  0.2752  0.2568
18111TIP3    H175748   3.766   5.143  14.213  0.6885 -0.5144 -0.1469
18111TIP3    H275749   3.782   5.274  14.139 -0.5607  0.1615  0.7734
18112TIP3   OH275750   5.661   4.804  12.130  0.1056 -0.0087  0.2223
18112TIP3    H175751   5.677   4.719  12.088 -4.7861 -0.7829 -0.3184
18112TIP3    H275752   5.672   4.786  12.224 -0.3595 -1.1445  0.0720
18113TIP3   OH275753   3.302   2.186  16.803 -0.0104  0.3752  0.3601
18113TIP3    H175754   3.345   2.157  16.884  1.6042 -0.9925 -0.9522
18113TIP3    H275755   3.371   2.231  16.754 -1.0172  1.3079 -0.2194
18114TIP3   OH275756   1.404   3.627   0.961 -0.2617  0.4032  0.1217
18114TIP3    H175757   1.312   3.641   0.982 -0.1309  0.3114  0.7628
18114TIP3    H275758   1.408   3.538   0.926 -0.4081  0.3928  0.1332
18115TIP3   OH275759   2.170   6.520   5.385 -0.1098  0.8426  0.3382
18115TIP3    H175760   2.262   6.535   5.409  0.5126 -0.7692 -0.9836
18115TIP3    H275761   2.174   6.458   5.313 -2.3902 -2.0992  2.6206
18116TIP3   OH275762   0.064   6.250  15.309 -0.1945 -0.0491  0.0233
18116TIP3    H175763   0.004   6.320  15.336  1.8761  1.0645  1.9261
18116TIP3    H275764   0.119   6.234  15.385  1.0365 -2.0064 -1.2191
18117TIP3   OH275765   0.681   3.545  17.175  0.4195 -0.2214 -0.6232
18117TIP3    H175766   0.724   3.630  17.178  0.1869 -0.0703 -1.4854
18117TIP3    H275767   0.750   3.482  17.198  0.5627  0.1980  0.1195
18118TIP3   OH275768   2.087   0.834  13.342 -0.0502 -0.4706  0.0920
18118TIP3    H175769   2.051   0.751  13.374 -0.4342 -0.5282 -0.4846
18118TIP3    H275770   2.031   0.901  13.381 -0.5942 -0.5464 -0.5476
18119TIP3   OH275771   0.384   2.946  13.578  0.1799 -0.6610 -0.0684
18119TIP3    H175772   0.381   2.951  13.673  1.3534  1.2328 -0.1145
18119TIP3    H275773   0.463   2.895  13.560  1.7521  1.7352 -0.0741
18120TIP3   OH275774   1.062   5.352  11.176 -0.3694 -0.2538 -0.0833
18120TIP3    H175775   1.046   5.314  11.263 -0.6069  0.0631  0.0129
18120TIP3    H275776   1.045   5.280  11.115 -2.0895  0.0261  0.0221
18121TIP3   OH275777   5.118   0.056  15.239  0.0424 -0.3824 -0.5321
18121TIP3    H175778   5.212   0.046  15.254 -0.2612 -0.5520  1.4543
18121TIP3    H275779   5.083   0.080  15.325 -2.0082 -2.4959 -0.7244
18122TIP3   OH275780   6.701   3.552   2.787  0.2361 -0.1419  0.2807
18122TIP3    H175781   6.671   3.469   2.750  0.2117 -0.2747  0.6012
18122TIP3    H275782   6.730   3.603   2.711 -0.0116 -0.3357  0.0581
18123TIP3   OH275783   0.073   5.369  11.378  0.3299  0.3035 -0.2294
18123TIP3    H175784   0.086   5.368  11.284 -0.5156 -0.2782 -0.3435
18123TIP3    H275785   0.042   5.281  11.400 -1.9224  1.1613  0.2186
18124TIP3   OH275786   1.399   2.483   3.075 -0.3238 -0.5066  0.0291
18124TIP3    H175787   1.311   2.462   3.105 -0.3590  0.6513  0.7792
18124TIP3    H275788   1.442   2.520   3.152  0.2943  0.4447 -0.7654
18125TIP3   OH275789   4.739   5.481  17.170  0.3341 -0.1858 -0.1564
18125TIP3    H175790   4.741   5.397  17.216  0.7764  0.7223  1.5168
18125TIP3    H275791   4.795   5.467  17.093 -0.5420 -1.7624 -0.5284
18126TIP3   OH275792   0.919   1.054   0.520 -0.2967  1.0178 -0.3715
18126TIP3    H175793   0.852   0.986   0.527  0.7215 -0.1225 -1.4245
18126TIP3    H275794   0.981   1.035   0.590 -0.3319  1.2373 -0.2790
18127TIP3   OH275795   1.587   5.187  11.422 -0.1217  0.4251  1.7515
18127TIP3    H175796   1.524   5.169  11.492 -0.3316 -0.0418  1.4465
18127TIP3    H275797   1.598   5.103  11.378 -0.0740  0.7408  1.1545
18128TIP3   OH275798   3.549   5.726   4.522  0.0668  0.1761  0.0854
18128TIP3    H175799   3.598   5.805   4.502  1.1651 -0.4457  0.3066
18128TIP3    H275800   3.457   5.751   4.508  0.5398  0.8246 -2.0584
18129TIP3   OH275801   0.912   3.032  10.254 -0.0015 -0.0253  0.0836
18129TIP3    H175802   0.995   3.053  10.297 -0.6666  1.2545  0.7877
18129TIP3    H275803   0.860   2.990  10.322  0.6791 -2.4284 -0.8400
18130TIP3   OH275804   1.422   0.113   2.125  0.4903 -0.4882 -0.5928
18130TIP3    H175805   1.342   0.165   2.114  0.3973 -0.3631  0.6240
18130TIP3    H275806   1.493   0.174   2.108  0.4445  0.5681  2.6502
18131TIP3   OH275807   6.059   4.810  11.839 -0.6535  0.0468 -0.3734
18131TIP3    H175808   5.979   4.862  11.836 -0.8290 -0.2679 -1.1354
18131TIP3    H275809   6.047   4.752  11.914 -1.1310  0.0128 -0.4765
18132TIP3   OH275810   5.711   4.746   5.113  0.1749  0.1335 -0.1144
18132TIP3    H175811   5.688   4.726   5.022  1.3245 -1.6657 -0.0377
18132TIP3    H275812   5.804   4.768   5.110  0.0575  0.7407  0.5330
18133TIP3   OH275813   4.329   1.497   0.744 -0.9900  0.2089 -0.4370
18133TIP3    H175814   4.339   1.567   0.679 -0.6357 -1.6030 -2.3850
18133TIP3    H275815   4.418   1.483   0.778 -0.5893 -1.0030 -1.9121
18134TIP3   OH275816   4.073   2.094   6.646  0.4568  0.3977 -0.0850
18134TIP3    H175817   4.021   2.175   6.642 -0.3268 -0.1403 -1.5349
18134TIP3    H275818   4.140   2.105   6.578 -0.5828 -0.7615 -1.3396
18135TIP3   OH275819   2.808   4.772   5.290  0.4251 -0.0082 -0.4446
18135TIP3    H175820   2.769   4.690   5.322 -2.0951  1.6543  0.9738
18135TIP3    H275821   2.748   4.840   5.321  0.7818  2.1551 -4.2660
18136TIP3   OH275822   2.235   0.101   0.699  0.1227 -0.1956  0.3190
18136TIP3    H175823   2.228   0.019   0.748  0.4353  0.9881  2.4165
18136TIP3    H275824   2.184   0.086   0.619 -1.1022 -1.8928  1.3935
18137TIP3   OH275825   5.152   5.097   2.205 -0.2554 -0.4475  0.1575
18137TIP3    H175826   5.203   5.154   2.148 -0.2570 -1.6862 -1.1064
18137TIP3    H275827   5.085   5.154   2.243  0.6241  0.6867  0.0274
18138TIP3   OH275828   2.434   1.035  12.815 -0.5813  0.3133  0.3910
18138TIP3    H175829   2.402   0.961  12.866 -1.1892 -0.2938 -0.8573
18138TIP3    H275830   2.397   1.112  12.859  0.1015 -0.0913  1.7255
18139TIP3   OH275831   2.822   1.762   2.784  0.1679 -0.1811  0.9174
18139TIP3    H175832   2.753   1.819   2.749  0.7312  1.2221  2.0658
18139TIP3    H275833   2.845   1.801   2.868  2.1267 -0.8470  0.7117
18140TIP3   OH275834   2.138   4.843  11.202  0.7640  0.0226 -0.1139
18140TIP3    H175835   2.143   4.844  11.298  0.3386  2.4482 -0.1062
18140TIP3    H275836   2.047   4.867  11.183  0.8636 -0.3999 -1.1494
18141TIP3   OH275837   4.397   5.238  11.598  0.5890  0.4156  0.0815
18141TIP3    H175838   4.462   5.307  11.584 -0.1872  1.0105 -0.5950
18141TIP3    H275839   4.328   5.256  11.535 -0.2958 -0.1512  0.8702
18142TIP3   OH275840   3.366   3.616  10.869 -0.2058 -0.3941  0.0806
18142TIP3    H175841   3.338   3.673  10.797 -1.1994 -2.4042 -1.1758
18142TIP3    H275842   3.309   3.540  10.863  0.7119 -1.2799  2.0843
18143TIP3   OH275843   2.608   0.011   5.409 -0.4321 -0.0778  0.3254
18143TIP3    H175844   2.665  -0.042   5.354 -0.4653  1.1946 -0.9694
18143TIP3    H275845   2.653   0.016   5.494  1.1808  0.5444 -0.5447
18144TIP3   OH275846   4.041   6.049  17.093  0.5428 -0.1631 -0.6018
18144TIP3    H175847   4.116   6.096  17.058  1.1578  0.2766  1.2945
18144TIP3    H275848   3.972   6.115  17.100  0.5175 -0.1820 -0.6713
18145TIP3   OH275849   2.637   2.235  12.763  0.6652 -0.0245  0.4895
18145TIP3    H175850   2.606   2.197  12.845 -0.1629 -0.5872 -0.0827
18145TIP3    H275851   2.654   2.160  12.706  0.5884  0.3906 -0.0865
18146TIP3   OH275852   0.324   1.914   4.703 -0.0572 -0.5428 -0.0769
18146TIP3    H175853   0.246   1.964   4.676  0.7848  0.3070 -0.9924
18146TIP3    H275854   0.319   1.834   4.650  0.6569  0.3393 -1.5197
18147TIP3   OH275855   6.183   0.186   1.264  0.1376 -0.8235  0.1882
18147TIP3    H175856   6.088   0.187   1.281  0.3336 -0.9900  1.3649
18147TIP3    H275857   6.194   0.118   1.198 -0.7897  0.5727 -1.4533
18148TIP3   OH275858   6.222   5.640   4.165 -0.1177 -0.5326  0.1660
18148TIP3    H175859   6.248   5.639   4.073  0.5599 -0.3040  0.3504
18148TIP3    H275860   6.134   5.603   4.165  0.2384 -1.4000 -0.4612
18149TIP3   OH275861   0.894   2.393   2.616 -0.4561 -0.4415  0.1404
18149TIP3    H175862   0.971   2.344   2.645  0.4473  1.5561  1.2320
18149TIP3    H275863   0.822   2.357   2.666  0.3283 -0.1489  1.4973
18150TIP3   OH275864   0.822   6.075   3.393  0.1656 -0.3389  0.0084
18150TIP3    H175865   0.854   5.984   3.393 -0.6471 -0.6318 -0.1915
18150TIP3    H275866   0.811   6.097   3.485 -0.3411 -0.6966  0.0327
18151TIP3   OH275867   5.682   1.550  15.350  0.2575 -0.0887 -0.8517
18151TIP3    H175868   5.684   1.500  15.432 -0.4806 -0.9440 -1.3455
18151TIP3    H275869   5.714   1.636  15.374 -1.5708  0.1889  0.7130
18152TIP3   OH275870   1.672   6.646   1.753  0.3356 -0.2314  0.1758
18152TIP3    H175871   1.604   6.604   1.806  0.4912 -1.4374 -0.5551
18152TIP3    H275872   1.751   6.639   1.807 -0.5178  3.1126  1.9670
18153TIP3   OH275873   3.828   4.079  10.878  0.6696 -0.6428  0.0362
18153TIP3    H175874   3.744   4.049  10.843  0.6828  1.2503 -1.7356
18153TIP3    H275875   3.807   4.159  10.927  1.7196  1.3390 -2.6246
18154TIP3   OH275876   4.720   3.135   2.611 -0.0061 -0.3475  0.0871
18154TIP3    H175877   4.625   3.140   2.616 -0.0553  1.1822 -1.6051
18154TIP3    H275878   4.743   3.054   2.656 -1.9230  0.3420  2.4180
18155TIP3   OH275879   6.560   2.945  15.336  0.1748  0.4274  0.1753
18155TIP3    H175880   6.617   2.869  15.329 -1.4093 -0.8208  0.6874
18155TIP3    H275881   6.522   2.956  15.249  0.6631  0.8593  0.0109
18156TIP3   OH275882   0.001   1.805  16.608 -0.0032 -0.2758 -0.2580
18156TIP3    H175883   0.049   1.726  16.633  1.0003  0.2623 -0.4726
18156TIP3    H275884   0.056   1.877  16.639 -1.5700  0.3412  1.1745
18157TIP3   OH275885   1.658   2.226   3.792 -0.1614 -0.3851 -0.2773
18157TIP3    H175886   1.748   2.195   3.790  0.1356  0.4118  0.2642
18157TIP3    H275887   1.637   2.234   3.885  0.0960  1.8839 -0.3764
18158TIP3   OH275888   0.213   1.223  11.169  0.3353 -0.0838 -0.1608
18158TIP3    H175889   0.278   1.250  11.104 -0.0576 -0.2252 -0.6094
18158TIP3    H275890   0.260   1.162  11.226  0.1036 -1.5702 -1.5437
18159TIP3   OH275891   0.425   4.137   0.023  0.2671 -0.1257 -0.3834
18159TIP3    H175892   0.503   4.155  -0.030  1.5888 -0.7021  1.3514
18159TIP3    H275893   0.391   4.055  -0.012  0.9645 -0.3557 -0.5253
18160TIP3   OH275894   1.162   4.906   5.240  0.1676  0.2714  0.1053
18160TIP3    H175895   1.139   4.894   5.332 -0.4151  2.3813  0.2619
18160TIP3    H275896   1.082   4.883   5.192 -0.1159  0.9522  0.2454
18161TIP3   OH275897   3.763   5.471   2.012 -0.6604 -0.4909  0.4544
18161TIP3    H175898   3.781   5.564   1.996 -1.0662 -0.4978 -0.0688
18161TIP3    H275899   3.752   5.434   1.925 -2.0395 -0.7157  0.7152
18162TIP3   OH275900   1.409   4.888   5.784 -0.1947 -0.3663 -0.4072
18162TIP3    H175901   1.456   4.813   5.820 -0.8906 -1.4623 -1.7375
18162TIP3    H275902   1.322   4.882   5.822 -0.1131  0.0374 -0.1551
18163TIP3   OH275903   0.165   1.989   2.024 -1.1380 -0.5927  0.3463
18163TIP3    H175904   0.260   2.001   2.033 -1.2586  1.2975 -0.7679
18163TIP3    H275905   0.156   1.920   1.959 -0.5269 -0.4606  0.1147
18164TIP3   OH275906   0.532   1.437  12.004  0.2514  0.3080  0.0870
18164TIP3    H175907   0.483   1.355  11.992 -0.8027  0.7349  1.4142
18164TIP3    H275908   0.543   1.471  11.915 -0.9446 -0.3330 -0.3180
18165TIP3   OH275909   3.177   1.928   4.646  0.0234 -0.5071 -0.1630
18165TIP3    H175910   3.178   1.968   4.734 -3.0004 -0.9890  0.1490
18165TIP3    H275911   3.251   1.867   4.647  2.2077  2.0343  0.7915
18166TIP3   OH275912   4.364   0.660   4.748 -0.1593  0.1104 -0.3249
18166TIP3    H175913   4.430   0.724   4.722 -0.1573 -0.2988 -1.3467
18166TIP3    H275914   4.294   0.670   4.684 -1.2338  0.7511  0.9246
18167TIP3   OH275915   4.933   5.357   5.858 -0.4986  0.0947 -0.1215
18167TIP3    H175916   5.017   5.344   5.815 -0.5687 -0.1897 -0.1738
18167TIP3    H275917   4.912   5.272   5.897  0.0786  0.6204  1.4063
18168TIP3   OH275918   0.124   1.594   1.052  0.5228  0.6596  0.2337
18168TIP3    H175919   0.054   1.621   0.992  0.1655 -1.5995 -0.3842
18168TIP3    H275920   0.093   1.512   1.090  2.5681 -0.0331  0.4330
18169TIP3   OH275921   3.141   2.980   4.767  0.5391  0.0757  0.1836
18169TIP3    H175922   3.233   2.999   4.752  0.4931  1.1289  1.2429
18169TIP3    H275923   3.095   3.030   4.700  0.5850  1.6469  1.2977
18170TIP3   OH275924   6.549   0.303   2.486 -0.0721 -0.1839 -0.2155
18170TIP3    H175925   6.502   0.386   2.482 -1.1967 -0.7186  1.3365
18170TIP3    H275926   6.540   0.265   2.399 -1.7307  0.1697 -0.2104
18171TIP3   OH275927   5.545   5.636  11.559 -0.0016  0.1600  0.1495
18171TIP3    H175928   5.468   5.692  11.544 -0.4498 -0.6661 -0.7258
18171TIP3    H275929   5.599   5.648  11.481  0.2004 -0.1432  0.2437
18172TIP3   OH275930   4.784   0.589  10.967  0.0759  0.1812  0.0775
18172TIP3    H175931   4.731   0.586  10.887  1.0117 -1.0079 -0.5264
18172TIP3    H275932   4.871   0.614  10.937  0.4416 -0.2930  0.7128
18173TIP3   OH275933   5.592   2.205  12.663  0.0499 -0.0625 -0.1202
18173TIP3    H175934   5.563   2.199  12.573  2.6834  1.8882 -1.1534
18173TIP3    H275935   5.529   2.264  12.705 -0.0572  0.6027 -1.1928
18174TIP3   OH275936   1.948   4.530   3.795 -0.2564  0.1165  0.2169
18174TIP3    H175937   2.035   4.562   3.822  0.2230  0.0734 -1.2031
18174TIP3    H275938   1.962   4.496   3.707 -1.4939 -0.9315  0.4080
18175TIP3   OH275939   1.428   0.101  12.568 -0.3188 -0.1371 -0.2053
18175TIP3    H175940   1.393   0.132  12.652  0.1389 -0.7975  0.2405
18175TIP3    H275941   1.498   0.162  12.547 -0.3469 -0.0468 -0.0386
18176TIP3   OH275942   4.662   1.356   2.433 -0.3482  1.0784 -0.1032
18176TIP3    H175943   4.620   1.357   2.519 -0.9739  1.0705 -0.4029
18176TIP3    H275944   4.607   1.412   2.379 -0.0431  0.9620 -0.5380
18177TIP3   OH275945   0.084   1.197  12.771  0.4007 -0.6940  0.1666
18177TIP3    H175946   0.095   1.289  12.797  1.3500 -0.5811 -0.6086
18177TIP3    H275947   0.027   1.160  12.839  0.3531  0.3575  0.7179
18178TIP3   OH275948   5.537   6.141  13.630 -0.3733 -0.2248  0.1482
18178TIP3    H175949   5.536   6.086  13.708  0.7952 -0.7685 -0.2139
18178TIP3    H275950   5.451   6.126  13.590 -0.6930 -0.5207  0.9233
18179TIP3   OH275951   2.197   4.359  12.420 -0.5746 -0.4410 -0.3882
18179TIP3    H175952   2.242   4.356  12.335 -0.4582  0.4939 -0.3666
18179TIP3    H275953   2.264   4.334  12.484 -0.3291  0.0416 -0.4525
18180TIP3   OH275954   0.748   0.306  12.912  0.5615  0.3434 -0.0686
18180TIP3    H175955   0.680   0.241  12.895 -0.1679  1.2291 -0.6090
18180TIP3    H275956   0.747   0.318  13.007  1.2694 -1.0280  0.1195
18181TIP3   OH275957   4.823   3.891   3.916  0.7276  0.4301 -0.3715
18181TIP3    H175958   4.845   3.802   3.943  0.2586  0.5676  0.4746
18181TIP3    H275959   4.739   3.883   3.871  0.2392  0.5708  0.5068
18182TIP3   OH275960   0.669   4.440  16.883  0.0364  0.4331  0.0381
18182TIP3    H175961   0.652   4.347  16.872  1.4255  0.0897  0.6975
18182TIP3    H275962   0.750   4.456  16.834 -0.9188  1.5918 -1.2420
18183TIP3   OH275963   5.987   6.558   0.994 -0.3045 -0.5345 -0.5965
18183TIP3    H175964   5.923   6.534   1.060 -0.0038 -1.6829 -0.7061
18183TIP3    H275965   5.935   6.582   0.917 -0.6666  1.1750  0.1469
18184TIP3   OH275966   2.568   0.962   5.337 -0.0905 -0.5701  0.3065
18184TIP3    H175967   2.615   1.019   5.399 -0.5736 -0.7878  0.8825
18184TIP3    H275968   2.477   0.965   5.366 -0.2854 -0.8292 -0.2815
18185TIP3   OH275969   3.532   1.529   1.948 -0.5309  0.0443 -0.0938
18185TIP3    H175970   3.461   1.575   1.902  0.2666  0.9132 -0.4724
18185TIP3    H275971   3.487   1.466   2.005 -1.5715 -0.0530 -1.0100
18186TIP3   OH275972   2.799   0.188   5.202 -0.5572  0.2178  0.2721
18186TIP3    H175973   2.857   0.113   5.188 -1.1795  0.0846 -1.6871
18186TIP3    H275974   2.801   0.202   5.297 -0.1293 -2.0208  0.6216
18187TIP3   OH275975   4.950   2.604   5.943 -0.3735  0.2059  0.4106
18187TIP3    H175976   5.041   2.590   5.970 -0.3323  0.0671  0.1986
18187TIP3    H275977   4.915   2.516   5.930  0.0608  0.3184 -1.5239
18188TIP3   OH275978   2.343   2.986  16.772 -0.4523  0.2547  0.2925
18188TIP3    H175979   2.400   2.986  16.849 -0.4053  1.0948  0.2626
18188TIP3    H275980   2.374   2.913  16.719  1.3793  1.4344 -0.2969
18189TIP3   OH275981   5.734   3.582  10.842  0.0148 -0.0090  0.1038
18189TIP3    H175982   5.703   3.612  10.927 -1.8364  1.5354 -1.0782
18189TIP3    H275983   5.763   3.661  10.797  1.7793 -0.9082 -0.4369
18190TIP3   OH275984   4.249   5.037   1.068 -0.2920  0.1512  0.3478
18190TIP3    H175985   4.205   4.959   1.101 -0.5394  0.5076  0.8759
18190TIP3    H275986   4.324   5.049   1.126  1.0247 -0.9510 -1.0776
18191TIP3   OH275987   5.495   3.828  15.761  0.8520 -0.2374  0.0473
18191TIP3    H175988   5.493   3.923  15.771  1.4532 -0.0407 -1.5116
18191TIP3    H275989   5.510   3.814  15.668 -0.0903 -1.8768  0.1137
18192TIP3   OH275990   0.080   1.876   0.282 -0.1986  0.6362 -0.1153
18192TIP3    H175991   0.125   1.866   0.198  2.0423 -0.8162  1.2158
18192TIP3    H275992   0.116   1.958   0.318 -0.2155  0.5982 -0.0134
18193TIP3   OH275993   1.825   3.523  15.882  0.3469 -0.3742 -0.3623
18193TIP3    H175994   1.848   3.576  15.958 -1.3278 -0.7438  0.4264
18193TIP3    H275995   1.757   3.464  15.914  0.8734 -1.7342 -1.7052
18194TIP3   OH275996   4.645   3.577   1.181  0.0720 -0.2607 -0.5883
18194TIP3    H175997   4.642   3.665   1.145  1.0453 -0.7188 -1.8809
18194TIP3    H275998   4.707   3.530   1.124  1.3874 -1.1373  1.4752
18195TIP3   OH275999   5.291   3.377  17.194 -0.2948 -0.1029 -0.3439
18195TIP3    H176000   5.220   3.403  17.135 -0.8128  1.1173  0.7915
18195TIP3    H276001   5.252   3.311  17.251 -0.0539 -0.6139 -0.7698
18196TIP3   OH276002   5.924   4.315   1.176 -0.5872  0.2466  0.1043
18196TIP3    H176003   5.965   4.388   1.222 -0.8818  1.1508 -1.0525
18196TIP3    H276004   5.991   4.283   1.116 -1.4086  1.4384 -1.4674
18197TIP3   OH276005   1.247   6.037   1.151 -0.1287  0.1942  0.1808
18197TIP3    H176006   1.274   6.104   1.088 -0.5229 -0.2169 -0.4389
18197TIP3    H276007   1.224   6.085   1.230 -2.3592  0.9911 -0.9061
18198TIP3   OH276008   5.264   6.762  13.291 -0.0466  0.3262 -0.4682
18198TIP3    H176009   5.340   6.784  13.345  0.7489 -0.4328 -1.2474
18198TIP3    H276010   5.215   6.698  13.343  0.7919 -0.5098 -0.6876
18199TIP3   OH276011   3.152   0.649   5.357  0.2329 -0.4667 -0.0149
18199TIP3    H176012   3.078   0.646   5.296  0.6811  0.8719 -0.6374
18199TIP3    H276013   3.224   0.685   5.305  1.2095 -1.3513  0.7125
18200TIP3   OH276014   5.845   2.250   6.161  0.0430 -0.4026  0.4047
18200TIP3    H176015   5.874   2.163   6.185  2.6957  0.3780  0.1760
18200TIP3    H276016   5.806   2.285   6.241 -0.4119 -1.5330  0.6848
18201TIP3   OH276017   1.925   3.095   0.366 -0.0500  0.0697  0.3372
18201TIP3    H176018   1.839   3.135   0.360 -0.0027  0.2810  1.0260
18201TIP3    H276019   1.919   3.016   0.313 -0.8554 -0.2513  0.9027
18202TIP3   OH276020   3.322   4.917   3.564  0.4460  0.0158  0.5196
18202TIP3    H176021   3.418   4.922   3.561  0.3986  0.5070 -0.2858
18202TIP3    H276022   3.294   5.005   3.586  0.1404  0.1377 -0.3357
18203TIP3   OH276023   5.179   1.976   4.560  0.5394  0.4089  0.2401
18203TIP3    H176024   5.123   1.911   4.516 -1.4334  1.4313  1.1811
18203TIP3    H276025   5.118   2.043   4.590  2.0738  0.6500  2.9281
18204TIP3   OH276026   6.157   6.378  11.803  0.2795 -0.4349  0.2125
18204TIP3    H176027   6.091   6.447  11.801  0.3164 -0.3839  0.7423
18204TIP3    H276028   6.161   6.347  11.712 -1.3416 -1.2537  0.3932
18205TIP3   OH276029   3.366   4.656  10.519 -0.1554  0.0926  0.1894
18205TIP3    H176030   3.459   4.634  10.513 -0.4233 -0.6922 -1.0971
18205TIP3    H276031   3.321   4.585  10.474 -1.4224  0.2593  1.1466
18206TIP3   OH276032   2.529   0.916  15.358 -0.8095  0.5606 -0.3334
18206TIP3    H176033   2.434   0.929  15.353 -0.6626  1.1907 -1.9159
18206TIP3    H276034   2.547   0.848  15.293 -0.0435  1.2760 -0.8849
18207TIP3   OH276035   5.404   2.143   2.380  0.4731 -0.1314  0.2323
18207TIP3    H176036   5.403   2.100   2.466 -0.5212 -0.5742  0.0045
18207TIP3    H276037   5.496   2.166   2.366  0.9363 -1.6513  0.6233
18208TIP3   OH276038   0.175   1.000   0.256 -0.2313  0.0136  0.1376
18208TIP3    H176039   0.184   0.920   0.203  0.8363  0.0170  0.2927
18208TIP3    H276040   0.239   1.061   0.217 -0.3311  0.4407  0.6477
18209TIP3   OH276041   3.541   5.374   1.143 -0.1170  0.2059 -0.0719
18209TIP3    H176042   3.472   5.310   1.162 -0.6010  0.9432  0.6977
18209TIP3    H276043   3.567   5.407   1.229 -0.1703  1.3446 -0.4882
18210TIP3   OH276044   4.454   4.055  16.744 -0.1892 -0.1117  0.8070
18210TIP3    H176045   4.458   3.973  16.694  0.0478  0.5508 -0.2922
18210TIP3    H276046   4.412   4.031  16.826 -1.6336 -1.0195 -0.1771
18211TIP3   OH276047   2.495   6.657   5.685  0.4057 -0.1504 -0.1888
18211TIP3    H176048   2.498   6.709   5.765  0.4569  0.4944 -0.6048
18211TIP3    H276049   2.510   6.568   5.714  2.5012  0.3428  0.2810
18212TIP3   OH276050   1.594   3.911   2.386  0.0500  0.0332  0.1909
18212TIP3    H176051   1.574   3.979   2.322 -2.7471 -1.4262 -0.5942
18212TIP3    H276052   1.531   3.926   2.457 -1.4652 -2.3961 -0.5594
18213TIP3   OH276053   0.216   5.117  16.713  0.6362  0.2580 -0.1569
18213TIP3    H176054   0.233   5.112  16.619 -1.0022  1.9489 -0.5776
18213TIP3    H276055   0.272   5.189  16.743 -0.9118  1.5967 -0.3870
18214TIP3   OH276056   5.536   3.624   0.835  0.0273  0.9322  0.5358
18214TIP3    H176057   5.529   3.691   0.767  1.7734  1.7069  1.0872
18214TIP3    H276058   5.548   3.543   0.787 -1.8226  1.0216 -0.1330
18215TIP3   OH276059   0.972   3.419   3.546  0.0418 -0.3772 -0.6012
18215TIP3    H176060   1.048   3.372   3.581  1.2484  0.8981 -1.4466
18215TIP3    H276061   0.961   3.384   3.458 -0.2216 -0.4012 -0.5602
18216TIP3   OH276062   6.209   4.525  10.556  0.4279  0.1085 -0.7122
18216TIP3    H176063   6.143   4.584  10.593  0.9160  0.3052 -0.1405
18216TIP3    H276064   6.240   4.474  10.631  0.6580 -0.2417 -1.0440
18217TIP3   OH276065   2.123   6.743   4.116 -0.4942 -0.0853  0.1506
18217TIP3    H176066   2.200   6.688   4.099 -0.4379 -0.0039  0.1376
18217TIP3    H276067   2.053   6.681   4.136 -1.0526 -0.2975 -2.3060
18218TIP3   OH276068   3.679   0.886  11.257 -0.5074  0.2497 -0.1945
18218TIP3    H176069   3.612   0.954  11.256  0.3696  1.1370 -2.2457
18218TIP3    H276070   3.660   0.832  11.181  0.7113  0.1256 -0.4231
18219TIP3   OH276071   1.367   0.995   5.477  0.2943  0.3117  0.3064
18219TIP3    H176072   1.374   1.074   5.529 -0.1281 -0.2902  1.3042
18219TIP3    H276073   1.374   0.923   5.541 -2.6203 -0.4199 -0.0824
18220TIP3   OH276074   2.424   6.648  12.999  0.2591  0.3099 -0.2690
18220TIP3    H176075   2.424   6.711  12.927 -1.0560 -0.1240 -0.6572
18220TIP3    H276076   2.453   6.698  13.075  0.7731  0.9932 -0.9091
18221TIP3   OH276077   1.817   3.831  15.506  0.0267  0.1057  0.4511
18221TIP3    H176078   1.789   3.760  15.563 -0.2988  2.2283  3.0760
18221TIP3    H276079   1.912   3.819  15.496 -0.2675 -1.5629 -0.4461
18222TIP3   OH276080   6.650   0.886  13.190 -0.6523  0.6525  0.4357
18222TIP3    H176081   6.560   0.872  13.221 -0.5303  1.1060  1.0032
18222TIP3    H276082   6.655   0.836  13.109 -1.4554  0.7177  0.3380
18223TIP3   OH276083   1.187   4.446   5.854 -0.0960  0.1193  0.2628
18223TIP3    H176084   1.249   4.411   5.790 -0.5138 -0.7916  0.3553
18223TIP3    H276085   1.234   4.446   5.937 -0.1091 -0.2799  0.2717
18224TIP3   OH276086   5.074   1.204   0.626 -0.0640  0.1024  0.2716
18224TIP3    H176087   5.165   1.231   0.620 -0.3795  1.4239  1.1004
18224TIP3    H276088   5.075   1.110   0.608  1.4697  0.0771  0.4196
18225TIP3   OH276089   1.494   2.015  15.209 -0.1302  0.2289  0.0416
18225TIP3    H176090   1.580   2.029  15.169 -0.4801  0.5200 -0.6190
18225TIP3    H276091   1.474   2.098  15.252 -0.8991  0.7914 -1.3765
18226TIP3   OH276092   6.405   6.036  14.299 -0.6146 -0.2239 -0.6326
18226TIP3    H176093   6.446   6.082  14.372 -0.6979  1.1250 -1.4280
18226TIP3    H276094   6.472   5.976  14.267 -0.6081 -0.8934  0.5993
18227TIP3   OH276095   1.966   5.154   3.970  0.6846  0.1738 -0.2101
18227TIP3    H176096   1.909   5.224   3.999 -0.1100 -0.1575 -0.9408
18227TIP3    H276097   1.911   5.076   3.970  0.7405  0.0978 -2.2126
18228TIP3   OH276098   0.421   1.221  11.551 -0.3553 -0.1617 -0.0745
18228TIP3    H176099   0.511   1.192  11.531 -0.4909 -0.2539 -0.5473
18228TIP3    H276100   0.397   1.277  11.477 -0.7878 -0.3559 -0.0796
18229TIP3   OH276101   4.988   0.721  14.721 -0.2518  0.0682 -0.0261
18229TIP3    H176102   5.078   0.742  14.746  0.3312 -1.1917 -0.9987
18229TIP3    H276103   4.950   0.804  14.695  0.1593  0.8640  1.8248
18230TIP3   OH276104   2.981   4.880  12.111  0.4094  0.2025  0.2501
18230TIP3    H176105   2.904   4.891  12.167  0.0497  0.7922 -0.3526
18230TIP3    H276106   3.042   4.828  12.164 -0.4771 -0.4375  0.6583
18231TIP3   OH276107   2.216   1.040   2.302 -0.4807 -0.7611 -0.0096
18231TIP3    H176108   2.176   0.998   2.378  0.9079 -1.4503  0.3546
18231TIP3    H276109   2.305   1.005   2.299  0.1030  0.7581 -0.8015
18232TIP3   OH276110   1.743   0.589  14.817  0.0079  0.6383  0.2260
18232TIP3    H176111   1.687   0.564  14.890  0.9129 -0.0092  0.7023
18232TIP3    H276112   1.773   0.678  14.839 -1.2409  1.2008 -0.2862
18233TIP3   OH276113   1.290   1.044  11.746  0.5975  0.1121 -0.3843
18233TIP3    H176114   1.366   1.074  11.796  1.0539 -1.4935 -0.0757
18233TIP3    H276115   1.318   0.961  11.708 -1.4695 -1.2495  0.9306
18234TIP3   OH276116   0.223   0.873  17.211 -0.2262 -0.2937  0.0667
18234TIP3    H176117   0.148   0.813  17.210 -0.5686  0.1395 -0.7361
18234TIP3    H276118   0.206   0.934  17.139 -0.4169  1.4201  1.5204
18235TIP3   OH276119   5.385   2.522  14.466 -0.5119 -0.6776  0.3649
18235TIP3    H176120   5.336   2.442  14.486  1.6832 -1.9151  1.0943
18235TIP3    H276121   5.395   2.565  14.551  0.1658 -0.7551  0.3288
18236TIP3   OH276122   6.369   3.980   5.112  0.6380  0.5600 -0.0896
18236TIP3    H176123   6.323   3.995   5.195 -0.1967 -1.9612 -0.0553
18236TIP3    H276124   6.301   3.951   5.052  1.4177  1.4327 -1.4106
18237TIP3   OH276125   3.407   3.395   1.509  0.8020  0.6264  0.2918
18237TIP3    H176126   3.463   3.324   1.540 -1.3034 -1.4235 -0.4237
18237TIP3    H276127   3.377   3.366   1.423 -1.4853  1.5833  0.7283
18238TIP3   OH276128   6.644   1.663   3.710  0.4009 -0.1617  0.0148
18238TIP3    H176129   6.676   1.703   3.629  1.4699  1.1292  1.0688
18238TIP3    H276130   6.723   1.633   3.755 -0.2166 -1.1964  0.4285
18239TIP3   OH276131   5.097   3.407   2.091  0.5690  0.4766 -0.0491
18239TIP3    H176132   5.018   3.414   2.038  0.2680 -0.0770  0.3318
18239TIP3    H276133   5.136   3.495   2.087 -1.3409  1.4512  1.7816
18240TIP3   OH276134   3.589   1.205   1.609  0.6439 -0.2264 -0.1258
18240TIP3    H176135   3.595   1.136   1.676  1.8236  0.4356  0.4682
18240TIP3    H276136   3.637   1.170   1.535 -0.1791 -0.7280 -0.4245
18241TIP3   OH276137   0.031   4.666  12.922  0.5637 -0.0974 -0.5810
18241TIP3    H176138  -0.053   4.631  12.894 -0.2531  1.0144  0.4372
18241TIP3    H276139   0.045   4.630  13.009  1.1026 -0.2114 -0.7091
18242TIP3   OH276140   3.759   0.879  11.682  0.5653 -0.4460  0.2788
18242TIP3    H176141   3.746   0.964  11.725  0.1263  0.1791 -1.0737
18242TIP3    H276142   3.699   0.820  11.728 -0.0959  0.2775  0.3661
18243TIP3   OH276143   5.393   1.943   4.263 -0.2569 -0.1013  0.6702
18243TIP3    H176144   5.393   1.884   4.188  0.6668 -0.3435  0.8512
18243TIP3    H276145   5.460   1.908   4.321 -0.2237  0.6939  1.1223
18244TIP3   OH276146   5.832   0.919   1.553  0.2170  0.0238 -0.0570
18244TIP3    H176147   5.868   1.004   1.526 -1.1113  0.4612 -0.5058
18244TIP3    H276148   5.824   0.870   1.471 -1.3072  0.3771 -0.1467
18245TIP3   OH276149   4.947   2.050   0.754  0.3318  0.1054  0.4235
18245TIP3    H176150   4.944   2.079   0.845  1.5941  0.9561  0.2085
18245TIP3    H276151   4.911   2.123   0.704 -1.3713 -0.7879  0.3271
18246TIP3   OH276152   0.021   0.396  13.235 -0.5549  0.0657  0.0731
18246TIP3    H176153   0.043   0.486  13.259  2.3394 -0.2712 -1.0381
18246TIP3    H276154   0.017   0.397  13.139  1.2442 -1.3144 -0.0478
18247TIP3   OH276155   5.066   5.485  13.551 -0.5921  0.2268 -0.2227
18247TIP3    H176156   5.078   5.524  13.638 -0.7956  0.4021 -0.2715
18247TIP3    H276157   4.985   5.525  13.519 -0.7063 -0.1041 -0.3462
18248TIP3   OH276158   4.220   6.258   4.880  0.2687 -0.4204  0.2289
18248TIP3    H176159   4.191   6.340   4.839  1.4400 -1.3752 -2.6156
18248TIP3    H276160   4.302   6.282   4.924  1.5544 -0.4059 -2.1014
18249TIP3   OH276161   6.503   1.409  11.481 -0.5486 -0.0456 -0.4265
18249TIP3    H176162   6.439   1.413  11.411 -0.8962  0.4154 -0.0847
18249TIP3    H276163   6.514   1.499  11.509 -0.5234 -0.2433  0.2115
18250TIP3   OH276164   3.588   3.504  12.104  0.0643  0.2820  0.6766
18250TIP3    H176165   3.497   3.495  12.132  0.1036 -0.2544  0.6249
18250TIP3    H276166   3.618   3.415  12.090  1.2253  0.3148  2.6869
18251TIP3   OH276167   6.231   3.219   4.093 -0.1708 -0.4409  0.1455
18251TIP3    H176168   6.232   3.232   4.188 -1.4072 -0.6317  0.1883
18251TIP3    H276169   6.148   3.256   4.065  0.6001  0.4548 -0.9922
18252TIP3   OH276170   4.169   0.304  15.388 -0.4670 -0.4974  0.1361
18252TIP3    H176171   4.224   0.373  15.351  0.5590 -1.2029  0.3271
18252TIP3    H276172   4.217   0.223  15.370 -0.5099 -0.9510  1.9979
18253TIP3   OH276173   0.121   0.723  16.407 -0.3373 -0.2261  0.6241
18253TIP3    H176174   0.207   0.714  16.447  0.2617  2.0033 -0.0756
18253TIP3    H276175   0.128   0.677  16.323 -0.2355 -1.1323  1.1233
18254TIP3   OH276176   0.495   0.179   4.723  0.0669 -0.0659  0.6134
18254TIP3    H176177   0.563   0.222   4.671  1.0118 -0.7812  1.2189
18254TIP3    H276178   0.517   0.202   4.814  0.3217 -1.4485  0.9098
18255TIP3   OH276179   4.670   3.009  11.602  0.3582  0.4934  0.4383
18255TIP3    H176180   4.668   3.066  11.525  2.6560  1.0723  0.7779
18255TIP3    H276181   4.761   3.009  11.630  0.5215 -3.7093  0.2013
18256TIP3   OH276182   5.537   3.401   3.390 -0.1071 -0.2231 -0.0697
18256TIP3    H176183   5.542   3.381   3.297 -1.1483 -1.6062  0.1397
18256TIP3    H276184   5.456   3.452   3.400  0.5057  0.7425 -0.0622
18257TIP3   OH276185   0.725   3.152   4.154 -0.0120  1.0011 -0.0379
18257TIP3    H176186   0.743   3.245   4.147  0.7990  1.0089  1.7732
18257TIP3    H276187   0.783   3.121   4.224 -0.8760 -0.6918 -0.0252
18258TIP3   OH276188   0.330   3.665  16.985 -0.1304  0.4616 -0.0009
18258TIP3    H176189   0.310   3.715  16.906  0.7577  0.1782 -0.4100
18258TIP3    H276190   0.424   3.646  16.979  0.1996  1.3963  1.6593
18259TIP3   OH276191   6.453   6.435   1.369 -0.3142 -0.4989 -0.4739
18259TIP3    H176192   6.431   6.512   1.316  2.1314  0.3099 -0.4025
18259TIP3    H276193   6.476   6.471   1.455 -2.7235 -1.6657  0.7128
18260TIP3   OH276194   6.733   6.336   3.069  0.0014  0.1674  0.5846
18260TIP3    H176195   6.788   6.272   3.114 -0.2070  0.3423  1.0882
18260TIP3    H276196   6.788   6.369   2.998 -0.0482 -0.9165  0.0235
18261TIP3   OH276197   4.058   3.635  13.464 -0.3259 -0.5589  0.3947
18261TIP3    H176198   4.143   3.646  13.421 -0.1865 -2.4215  0.1596
18261TIP3    H276199   4.075   3.656  13.556  0.3130 -0.5624  0.2799
18262TIP3   OH276200   1.440   6.331   3.840 -0.8524  0.3939 -0.1658
18262TIP3    H176201   1.508   6.310   3.775 -2.4844 -1.4301 -1.3509
18262TIP3    H276202   1.469   6.413   3.879  1.6167  0.0761 -1.2187
18263TIP3   OH276203   0.703   0.417   2.850  0.4576 -0.1007 -0.1440
18263TIP3    H176204   0.729   0.329   2.823 -1.9131 -1.0538  0.6058
18263TIP3    H276205   0.763   0.438   2.921 -0.9788 -2.4119  1.8054
18264TIP3   OH276206   2.802   6.615   4.138 -0.1448  0.1567  0.1099
18264TIP3    H176207   2.784   6.566   4.058  2.0308 -3.2379  1.6026
18264TIP3    H276208   2.863   6.683   4.111 -1.9186  1.1320 -1.6667
18265TIP3   OH276209   4.723   4.896  14.896 -0.1377 -0.5029  0.0524
18265TIP3    H176210   4.722   4.945  14.813  0.0013 -0.5394  0.0289
18265TIP3    H276211   4.813   4.907  14.929 -0.0956 -0.7715  0.0289
18266TIP3   OH276212   2.952   3.501  14.290  0.0910  0.3688 -0.1636
18266TIP3    H176213   3.032   3.548  14.311 -0.8032  1.0558  1.7836
18266TIP3    H276214   2.904   3.559  14.231  0.9513  0.0009 -1.2463
18267TIP3   OH276215   6.761   0.739   2.903  0.2284 -0.2848 -0.2896
18267TIP3    H176216   6.844   0.777   2.875 -0.9891 -0.4338 -4.3446
18267TIP3    H276217   6.765   0.647   2.877 -1.3880 -0.1826 -0.9668
18268TIP3   OH276218   2.181   4.233   3.526  0.4804 -0.7035 -0.1866
18268TIP3    H176219   2.098   4.280   3.534 -0.7416 -2.7607 -0.4407
18268TIP3    H276220   2.242   4.298   3.492 -1.4875  0.3445 -1.8167
18269TIP3   OH276221   2.878   0.332   3.142  0.1611 -0.5701 -0.2272
18269TIP3    H176222   2.930   0.279   3.204 -0.3726  0.5165  1.1836
18269TIP3    H276223   2.791   0.335   3.181 -0.7015 -1.4615 -2.0349
18270TIP3   OH276224   0.143   0.713  12.542 -0.1814  0.1160 -0.6368
18270TIP3    H176225   0.109   0.799  12.566 -0.6708 -0.3509  0.3568
18270TIP3    H276226   0.085   0.683  12.472 -0.5830  0.1891 -0.3385
18271TIP3   OH276227   4.594   3.600   5.325 -0.0226  0.1864  0.4164
18271TIP3    H176228   4.544   3.603   5.406  0.2962 -0.5439  0.6473
18271TIP3    H276229   4.674   3.553   5.348  0.1737  0.1854 -0.2591
18272TIP3   OH276230   5.841   5.406  13.705 -0.1186  0.2654 -0.2210
18272TIP3    H176231   5.797   5.465  13.644 -2.5570  0.7356  1.8933
18272TIP3    H276232   5.880   5.464  13.770 -2.5410 -0.3740  1.8860
18273TIP3   OH276233   6.593   4.220  12.616  0.5123  0.3344 -0.0441
18273TIP3    H176234   6.621   4.222  12.707  0.3230  1.4448 -0.0004
18273TIP3    H276235   6.499   4.199  12.620  1.0653 -2.2530 -0.1327
18274TIP3   OH276236   5.049   5.453   4.361  0.2755  0.1674 -0.6311
18274TIP3    H176237   5.098   5.405   4.294 -1.3643 -0.8771 -1.1119
18274TIP3    H276238   4.957   5.431   4.343 -0.3979  2.4208 -0.0068
18275TIP3   OH276239   0.629   2.460  16.232  0.9601 -0.2373  0.1571
18275TIP3    H176240   0.693   2.523  16.198 -1.1697  1.0043 -1.6354
18275TIP3    H276241   0.614   2.488  16.323  2.1757  0.0924  0.2594
18276TIP3   OH276242   4.564   3.738   2.436  0.6499 -0.6858 -0.3060
18276TIP3    H176243   4.577   3.668   2.372 -0.6777 -2.0519  0.8824
18276TIP3    H276244   4.586   3.697   2.520 -0.3710  0.2450  0.4209
18277TIP3   OH276245   3.828   3.584  15.411  0.4064 -0.7041  0.2024
18277TIP3    H176246   3.790   3.501  15.438 -2.2190  0.1201 -0.8505
18277TIP3    H276247   3.848   3.629  15.493 -0.1342 -1.4932  0.7745
18278TIP3   OH276248   4.425   0.035  12.307 -0.1229 -0.9296 -0.2915
18278TIP3    H176249   4.515   0.065  12.294 -0.6890  0.6812 -0.5668
18278TIP3    H276250   4.383   0.106  12.356 -0.8078 -2.3882  1.3185
18279TIP3   OH276251   5.316   0.505  12.909 -0.7547 -0.4199  0.0948
18279TIP3    H176252   5.409   0.484  12.913 -0.0596  1.9694 -1.9127
18279TIP3    H276253   5.293   0.533  12.998  1.4895  2.8771 -0.2649
18280TIP3   OH276254   4.481   3.160   4.292 -0.2105 -0.0741 -0.3702
18280TIP3    H176255   4.461   3.205   4.374  1.7078 -0.6303  0.4388
18280TIP3    H276256   4.477   3.228   4.225 -1.1495  0.5122  0.2654
18281TIP3   OH276257   2.715   2.473   4.120 -0.4248 -0.1014  0.1441
18281TIP3    H176258   2.797   2.425   4.112  0.1888  0.5185  2.3755
18281TIP3    H276259   2.709   2.524   4.039  1.9478  0.6555  0.4065
18282TIP3   OH276260   1.615   0.807   1.888  0.1489  0.5470  0.6270
18282TIP3    H176261   1.522   0.807   1.864  0.2663  0.4733  0.1561
18282TIP3    H276262   1.618   0.849   1.973 -0.1587  1.8733 -0.0061
18283TIP3   OH276263   4.051   0.950  10.353 -0.1687 -0.1665  0.3660
18283TIP3    H176264   4.033   0.867  10.398  0.1115  0.0179  0.8251
18283TIP3    H276265   3.970   1.000  10.363  0.0995  0.1118  1.2012
18284TIP3   OH276266   3.083   1.101  16.066  0.3732 -0.3036 -0.2039
18284TIP3    H176267   3.079   1.096  16.161  3.3461  1.3518  0.0920
18284TIP3    H276268   3.097   1.010  16.038  0.2714 -0.7011  1.0103
18285TIP3   OH276269   6.373   4.256  11.424  0.4399 -0.1404  0.0362
18285TIP3    H176270   6.444   4.194  11.443  2.1962  2.4553  2.5166
18285TIP3    H276271   6.304   4.233  11.486  0.3777 -0.7460 -0.2577
18286TIP3   OH276272   0.450   2.435   5.891 -0.0300  0.4234  0.0495
18286TIP3    H176273   0.485   2.435   5.980  1.1334  0.2196 -0.3974
18286TIP3    H276274   0.475   2.521   5.856 -0.9101  0.6948  0.0785
18287TIP3   OH276275   4.453   4.615  14.971 -0.1489 -0.4312  0.1393
18287TIP3    H176276   4.425   4.538  15.020  0.7034  0.2019  1.6596
18287TIP3    H276277   4.523   4.654  15.024  0.5750  0.4619 -1.4192
18288TIP3   OH276278   5.061   4.505  17.171  0.2886  0.4289 -0.1065
18288TIP3    H176279   5.022   4.498  17.083 -0.2511 -1.3973  0.2616
18288TIP3    H276280   5.147   4.465  17.162  0.2414  0.2614  0.1994
18289TIP3   OH276281   6.388   2.521  12.709 -0.3958 -0.1377  0.4102
18289TIP3    H176282   6.443   2.588  12.749 -0.4303  0.7071 -0.9518
18289TIP3    H276283   6.298   2.548  12.728 -0.4089  0.1808 -0.1041
18290TIP3   OH276284   4.512   0.071   2.046  0.3600 -0.2083  0.5053
18290TIP3    H176285   4.607   0.077   2.042  0.3978 -1.0582 -0.0801
18290TIP3    H276286   4.481   0.118   1.969  0.4179 -2.1643 -0.7360
18291TIP3   OH276287   6.509   0.823   0.588 -0.4990  0.0772 -0.0050
18291TIP3    H176288   6.541   0.750   0.641  1.5780  1.0619  0.1249
18291TIP3    H276289   6.558   0.816   0.506 -0.4575  1.1863 -0.0788
18292TIP3   OH276290   2.369   3.242   5.694  0.2317  0.1054 -0.7933
18292TIP3    H176291   2.380   3.281   5.781  1.7184  0.5423 -1.1665
18292TIP3    H276292   2.432   3.170   5.692 -0.3694 -0.4163 -1.2241
18293TIP3   OH276293   2.231   5.600   1.604 -0.0729 -0.3581  0.0886
18293TIP3    H176294   2.259   5.638   1.520 -1.1520 -0.8984 -0.5302
18293TIP3    H276295   2.167   5.663   1.638 -0.6020 -0.7727 -0.1272
18294TIP3   OH276296   2.794   0.512   0.993  0.5100 -0.0320  0.0645
18294TIP3    H176297   2.738   0.435   0.994  1.9858 -1.1357 -0.5597
18294TIP3    H276298   2.883   0.478   1.002  1.5333  1.2122 -4.0245
18295TIP3   OH276299   0.968   5.220  13.952 -0.2087  0.1951 -0.3972
18295TIP3    H176300   0.888   5.253  13.910  0.2393  0.4712 -1.0318
18295TIP3    H276301   0.982   5.279  14.025 -1.6085 -0.9328  0.8319
18296TIP3   OH276302   4.413   5.003   3.903  0.1273  0.0142  0.8221
18296TIP3    H176303   4.398   4.945   3.977 -1.8559 -0.5021  0.0510
18296TIP3    H276304   4.458   4.947   3.839  1.4278  0.3347  1.4418
18297TIP3   OH276305   1.375   1.808  13.641 -0.0121 -0.0800 -0.2917
18297TIP3    H176306   1.289   1.790  13.679 -0.5497 -0.7273 -1.7950
18297TIP3    H276307   1.437   1.780  13.708 -0.9714  1.9608  1.5137
18298TIP3   OH276308   1.169   1.811  15.824  0.0516  0.6672 -0.0973
18298TIP3    H176309   1.262   1.821  15.804  0.2127 -2.0969 -0.8524
18298TIP3    H276310   1.166   1.802  15.919  0.5129  1.2375 -0.0290
18299TIP3   OH276311   3.545   3.293  16.459 -0.0689 -0.0538 -0.1391
18299TIP3    H176312   3.639   3.306  16.445 -0.2615  0.6438 -0.8159
18299TIP3    H276313   3.512   3.260  16.376 -0.1217 -2.0699  0.6637
18300TIP3   OH276314   1.655   2.659  17.077  0.3098 -0.5935  0.2589
18300TIP3    H176315   1.664   2.566  17.097 -1.2072 -0.7714  0.1538
18300TIP3    H276316   1.564   2.670  17.050  0.3663  0.9868  0.6219
18301TIP3   OH276317   5.790   1.864  11.942  0.3074  0.2532  0.4609
18301TIP3    H176318   5.712   1.840  11.991  0.3783 -0.0628  0.4169
18301TIP3    H276319   5.772   1.837  11.852 -0.7805  2.9130 -0.1865
18302TIP3   OH276320   0.475   3.145  13.337  0.3535 -0.1708 -0.0007
18302TIP3    H176321   0.437   3.075  13.284 -1.0863  0.4356  0.2214
18302TIP3    H276322   0.426   3.142  13.419 -0.0448  1.4079 -0.1685
18303TIP3   OH276323   6.708   6.468  11.529 -0.3069  0.1832  0.3590
18303TIP3    H176324   6.722   6.538  11.594 -0.0075  0.9364 -0.5094
18303TIP3    H276325   6.795   6.427  11.520  0.0746  1.2474 -0.8954
18304TIP3   OH276326   0.936   4.135  13.386 -0.4195  0.6291 -0.1178
18304TIP3    H176327   0.897   4.206  13.438 -2.3783  0.0054 -0.7062
18304TIP3    H276328   0.912   4.155  13.296 -1.3194 -1.0044 -0.2466
18305TIP3   OH276329   1.802   2.528  12.131 -0.1236  0.1366  0.7271
18305TIP3    H176330   1.822   2.621  12.134 -3.1354  0.8722 -0.0414
18305TIP3    H276331   1.729   2.521  12.068  0.4110 -2.7939  0.3449
18306TIP3   OH276332   5.258   4.753  15.615  0.0468 -0.2459 -0.0004
18306TIP3    H176333   5.293   4.731  15.528 -0.8500 -2.7935  0.2573
18306TIP3    H276334   5.180   4.805  15.597 -0.0602 -0.6438 -0.6972
18307TIP3   OH276335   4.131   0.492  13.664  0.0131 -0.4182 -0.0785
18307TIP3    H176336   4.111   0.403  13.633 -1.3105  0.4090 -1.6195
18307TIP3    H276337   4.117   0.487  13.759 -2.8962 -1.1331 -0.5061
18308TIP3   OH276338   2.132   4.460  14.346 -0.3367  0.2695  0.1191
18308TIP3    H176339   2.109   4.370  14.368 -0.3355 -0.0653 -1.2121
18308TIP3    H276340   2.060   4.490  14.291  0.7926  0.2911 -1.3779
18309TIP3   OH276341   0.335   4.776   1.453 -0.0128 -0.8905  0.1882
18309TIP3    H176342   0.354   4.694   1.407 -0.7323 -1.4043  0.7860
18309TIP3    H276343   0.389   4.841   1.409  0.5228 -1.6749 -0.3387
18310TIP3   OH276344   2.680   3.921  11.508 -0.2963 -0.0782  0.4269
18310TIP3    H176345   2.596   3.909  11.465 -0.0510 -2.3304  0.5157
18310TIP3    H276346   2.732   3.973  11.446 -0.9338 -0.7672 -0.6954
18311TIP3   OH276347   1.279   0.439   4.584  0.2343  0.0379 -0.3610
18311TIP3    H176348   1.341   0.386   4.533 -0.7313 -0.0336 -1.4725
18311TIP3    H276349   1.331   0.514   4.613  0.8633 -0.0464 -1.2362
18312TIP3   OH276350   2.499   3.156  13.268 -0.2072 -0.1001 -0.0365
18312TIP3    H176351   2.408   3.143  13.292 -0.4840  1.2012 -0.3497
18312TIP3    H276352   2.496   3.213  13.191  0.9122  1.7181  1.2107
18313TIP3   OH276353   1.752   4.574   0.849  0.0778 -0.0855  0.0236
18313TIP3    H176354   1.799   4.508   0.799  0.2820 -0.2300  0.3987
18313TIP3    H276355   1.819   4.615   0.904 -0.0482  0.4297 -0.1978
18314TIP3   OH276356   2.235   1.414  14.028 -0.1177 -0.0596 -0.6025
18314TIP3    H176357   2.187   1.399  13.947 -2.2991  1.0057  0.4592
18314TIP3    H276358   2.181   1.374  14.096  1.5293 -0.6533  0.3785
18315TIP3   OH276359   5.736   1.706  11.701  0.3097 -0.3076 -0.0578
18315TIP3    H176360   5.649   1.733  11.670 -0.1384 -4.2182 -2.5803
18315TIP3    H276361   5.718   1.633  11.760  1.8246 -0.5110  0.1573
18316TIP3   OH276362   5.680   4.278  16.815  0.0818 -0.0665 -0.1703
18316TIP3    H176363   5.645   4.189  16.829  0.3018 -0.0805  0.2677
18316TIP3    H276364   5.726   4.272  16.731  0.6391 -0.5291  0.1639
18317TIP3   OH276365   2.171   2.787  14.305 -0.3405  0.7344 -0.5781
18317TIP3    H176366   2.241   2.842  14.340  1.2532 -1.7803  0.3079
18317TIP3    H276367   2.206   2.755  14.221 -0.7133  0.0242 -0.4662
18318TIP3   OH276368   1.226   4.051   0.509  0.8413  0.5379 -0.0450
18318TIP3    H176369   1.306   4.085   0.551  0.9451  0.1366  0.0834
18318TIP3    H276370   1.163   4.044   0.581  1.3955 -1.3136  0.2760
18319TIP3   OH276371   1.912   5.504  16.485  0.5033 -0.4142  0.1226
18319TIP3    H176372   1.975   5.526  16.553 -0.4540  0.2551  0.8215
18319TIP3    H276373   1.883   5.415  16.505 -0.6793  0.2243  1.3264
18320TIP3   OH276374   1.022   0.202   0.085  0.2093 -0.5139 -0.2167
18320TIP3    H176375   1.009   0.280   0.138  0.6300  0.1129 -1.0264
18320TIP3    H276376   1.095   0.225   0.026  0.7507 -1.7273 -0.0348
18321TIP3   OH276377   1.402   0.138  13.917 -0.3345 -0.2116 -0.8573
18321TIP3    H176378   1.313   0.135  13.880 -0.3709 -0.3824 -0.7564
18321TIP3    H276379   1.416   0.050  13.952  0.1075 -0.3676 -1.4171
18322TIP3   OH276380   6.451   5.397  10.778 -0.2653  0.2430 -0.2668
18322TIP3    H176381   6.467   5.490  10.761  2.1175 -0.3526 -1.4891
18322TIP3    H276382   6.434   5.359  10.692  0.0049 -0.6741  0.0758
18323TIP3   OH276383   1.132   5.834   1.390  0.0826 -0.1862  0.0175
18323TIP3    H176384   1.214   5.879   1.366  0.7579 -1.1065  0.5656
18323TIP3    H276385   1.120   5.768   1.322 -0.3580  0.1223 -0.2090
18324TIP3   OH276386   0.233   1.416  14.566  0.3575  0.4160 -0.3887
18324TIP3    H176387   0.146   1.382  14.544  0.2952  1.0217 -1.0734
18324TIP3    H276388   0.294   1.353  14.527  0.2327  0.4682 -0.6682
18325TIP3   OH276389   6.383   2.330  16.313  0.0238 -0.2769 -0.0560
18325TIP3    H176390   6.452   2.264  16.313 -0.4436 -0.8041  2.4280
18325TIP3    H276391   6.303   2.281  16.334 -0.4964  0.9146  0.7788
18326TIP3   OH276392   1.194   5.733  13.187 -0.1510 -0.1107  0.0184
18326TIP3    H176393   1.164   5.683  13.111  2.9043 -0.6682 -0.8851
18326TIP3    H276394   1.245   5.805  13.150  0.6477  0.1162  1.5230
18327TIP3   OH276395   0.206   0.045   0.280 -0.3481 -0.6447 -0.3166
18327TIP3    H176396   0.189  -0.038   0.326 -0.8379 -1.9459 -2.7926
18327TIP3    H276397   0.204   0.022   0.187  0.7214  1.9370 -1.0097
18328TIP3   OH276398   0.404   6.590  15.236 -0.0466  0.4546 -0.5403
18328TIP3    H176399   0.460   6.524  15.278 -0.0955  0.6117 -0.2258
18328TIP3    H276400   0.461   6.666  15.225  0.5230 -0.2371 -2.5492
18329TIP3   OH276401   4.682   0.391  16.057  0.8794 -0.5392 -0.1082
18329TIP3    H176402   4.701   0.299  16.035 -0.4870 -1.1779  1.2707
18329TIP3    H276403   4.729   0.406  16.139 -0.4807 -0.6383  0.7157
18330TIP3   OH276404   6.168   4.801   0.052  0.5204  0.3508 -0.1588
18330TIP3    H176405   6.263   4.810   0.056  0.5225  0.1875  0.1815
18330TIP3    H276406   6.154   4.706   0.047  0.4247  0.4317 -1.5711
18331TIP3   OH276407   5.317   4.797  14.346 -0.3475 -0.2731  0.2980
18331TIP3    H176408   5.228   4.763  14.348 -0.2679 -0.6039 -1.5047
18331TIP3    H276409   5.352   4.777  14.433 -1.4909 -1.5564  0.4737
18332TIP3   OH276410   2.176   3.226  16.812  0.4497 -0.3019 -0.6195
18332TIP3    H176411   2.106   3.160  16.812  1.2861 -1.3013  2.4803
18332TIP3    H276412   2.252   3.180  16.776 -0.1000  0.3842 -2.7275
18333TIP3   OH276413   6.505   2.558  16.470 -0.0555  0.4292 -0.5704
18333TIP3    H176414   6.532   2.638  16.424 -0.3203 -0.0693 -1.6024
18333TIP3    H276415   6.443   2.516  16.410 -0.0145 -0.4895  0.0316
18334TIP3   OH276416   4.219   2.323   4.772 -0.2608 -0.1603 -0.2029
18334TIP3    H176417   4.262   2.309   4.856  0.1707 -2.1489 -0.7264
18334TIP3    H276418   4.258   2.258   4.714 -1.8131  0.0093 -1.4726
18335TIP3   OH276419   0.529   3.187   4.653 -0.0002 -0.6583  0.0608
18335TIP3    H176420   0.621   3.194   4.677 -0.0159 -0.3246  0.0287
18335TIP3    H276421   0.526   3.214   4.561 -0.3422  0.7659  0.4718
18336TIP3   OH276422   2.602   3.452  12.294  0.3296  0.3373  0.3171
18336TIP3    H176423   2.604   3.446  12.389  2.9260 -1.0644  0.2061
18336TIP3    H276424   2.549   3.530  12.276 -1.0723  0.0190  2.8477
18337TIP3   OH276425   2.025   1.769   2.302 -0.2253  0.1985  0.2300
18337TIP3    H176426   1.970   1.746   2.227 -0.4256 -0.0596  0.4566
18337TIP3    H276427   2.081   1.839   2.269 -0.2004 -0.0244 -0.2107
18338TIP3   OH276428   6.211   1.157  17.161 -0.6658 -0.1969 -0.7297
18338TIP3    H176429   6.233   1.251  17.166 -1.7267  0.0473 -0.5062
18338TIP3    H276430   6.214   1.127  17.252  1.8316 -0.9031 -1.0146
18339TIP3   OH276431   1.092   3.098  14.181 -0.2973 -0.6398  0.0689
18339TIP3    H176432   1.188   3.091  14.178 -0.2676  0.5101 -3.8897
18339TIP3    H276433   1.074   3.191  14.186 -1.2050 -0.6630 -2.1916
18340TIP3   OH276434   2.100   0.814   3.760 -0.1509  0.0871 -0.1817
18340TIP3    H176435   2.045   0.827   3.683 -1.4829 -2.4196  0.2869
18340TIP3    H276436   2.062   0.872   3.827 -0.8104  0.0694 -0.5386
18341TIP3   OH276437   6.025   3.798  13.819  0.5850  0.6483 -0.0120
18341TIP3    H176438   6.079   3.766  13.892  1.7841  1.8323 -0.3451
18341TIP3    H276439   5.960   3.855  13.860 -0.7343 -1.1550  0.4410
18342TIP3   OH276440   4.910   4.136   1.173 -0.1099  0.0411  0.0365
18342TIP3    H176441   4.940   4.216   1.216  2.6345 -0.9713  0.0912
18342TIP3    H276442   4.830   4.112   1.220  0.4379  1.3677  1.6918
18343TIP3   OH276443   0.226   5.079  15.127 -0.5285  0.3357 -0.4903
18343TIP3    H176444   0.294   5.019  15.156 -0.8543  0.3740  0.3655
18343TIP3    H276445   0.251   5.164  15.163 -1.2680  0.2572  0.2519
18344TIP3   OH276446   5.251   6.276  13.895  0.4438 -0.1703  0.0721
18344TIP3    H176447   5.347   6.275  13.888  0.4947 -0.4281  0.7647
18344TIP3    H276448   5.223   6.333  13.823  1.2085  1.2319  0.8617
18345TIP3   OH276449   4.777   4.538  12.012  0.3678 -0.2375  0.2093
18345TIP3    H176450   4.853   4.490  11.981 -0.8707 -1.3058 -1.2779
18345TIP3    H276451   4.792   4.629  11.984  1.0889 -0.4396 -0.0471
18346TIP3   OH276452   5.938   1.369  15.023  0.1531  0.0501  0.7375
18346TIP3    H176453   5.957   1.281  14.990 -0.5425  0.4218 -0.7361
18346TIP3    H276454   6.012   1.391  15.079  0.1634 -1.6108  1.4042
18347TIP3   OH276455   6.487   6.695   3.725  0.6455  0.0594 -0.3999
18347TIP3    H176456   6.534   6.774   3.698  2.8493 -0.4543  1.7217
18347TIP3    H276457   6.555   6.628   3.729 -0.4679 -1.0004  1.6503
18348TIP3   OH276458   1.790   4.598   1.639  0.3584  0.1617 -0.2829
18348TIP3    H176459   1.790   4.692   1.621 -1.6922  0.0410 -1.0132
18348TIP3    H276460   1.719   4.563   1.585  0.2740 -1.6187  0.9405
18349TIP3   OH276461   5.431   0.406  12.646  0.2449 -0.2150  0.5750
18349TIP3    H176462   5.488   0.417  12.722  0.5427  2.1442  0.0583
18349TIP3    H276463   5.405   0.495  12.623 -0.6947 -0.9853 -1.4414
18350TIP3   OH276464   4.196   1.371  14.454  0.2332 -0.4363  0.7487
18350TIP3    H176465   4.105   1.345  14.439  0.0583  0.6391 -0.0941
18350TIP3    H276466   4.247   1.291  14.439 -0.3243 -0.4024 -1.4784
18351TIP3   OH276467   6.233   3.569  15.571  0.6947 -1.0163 -0.0702
18351TIP3    H176468   6.301   3.507  15.546 -0.1328 -1.6321 -0.8216
18351TIP3    H276469   6.215   3.619  15.492  0.0286 -1.0951  0.0225
18352TIP3   OH276470   1.807   5.610   2.954 -0.5245 -0.2553  0.3813
18352TIP3    H176471   1.850   5.675   3.009  0.1166  0.4488 -0.9276
18352TIP3    H276472   1.879   5.557   2.920 -0.7776  0.2602 -0.9700
18353TIP3   OH276473   1.377   2.297   3.700  0.5755 -0.6373  0.0683
18353TIP3    H176474   1.333   2.379   3.679  0.1003 -0.4364  1.7566
18353TIP3    H276475   1.470   2.318   3.698  0.5324 -0.5775 -1.5583
18354TIP3   OH276476   6.717   2.241   6.750 -0.1649 -0.5316  0.0291
18354TIP3    H176477   6.652   2.187   6.797  0.9296 -2.4050 -0.5616
18354TIP3    H276478   6.800   2.195   6.763  0.7396  0.8295 -0.8298
18355TIP3   OH276479   4.792   6.615   2.876  0.3321  0.6793  0.1606
18355TIP3    H176480   4.856   6.618   2.947  0.9224 -0.2143 -0.3374
18355TIP3    H276481   4.843   6.629   2.797 -0.3629  1.9338 -0.0841
18356TIP3   OH276482   4.576   4.204  12.794 -0.8064  0.4326  0.0811
18356TIP3    H176483   4.576   4.282  12.738  0.6702  0.2915 -0.1290
18356TIP3    H276484   4.516   4.144  12.751 -1.1154  1.0438 -0.3478
18357TIP3   OH276485   5.467   0.835  13.953  0.3912  0.3455  0.2885
18357TIP3    H176486   5.458   0.911  14.010  1.4404  0.4974  0.2534
18357TIP3    H276487   5.401   0.848  13.885  0.9575  1.5130 -0.0431
18358TIP3   OH276488   0.456   4.086   2.163  0.0284 -0.1262  0.2516
18358TIP3    H176489   0.453   4.106   2.070 -0.5949 -0.9868  0.0823
18358TIP3    H276490   0.502   4.160   2.202 -1.6127  1.2874 -0.4446
18359TIP3   OH276491   0.414   5.266  16.192 -0.0688 -0.0577  0.3782
18359TIP3    H176492   0.379   5.347  16.228  0.5214 -0.0795  1.0085
18359TIP3    H276493   0.493   5.248  16.244  1.2953  0.3768 -1.4966
18360TIP3   OH276494   6.768   2.492   2.027  0.0541 -0.5373 -0.3602
18360TIP3    H176495   6.763   2.419   1.965 -1.8935 -1.0165  0.3277
18360TIP3    H276496   6.737   2.455   2.110  0.7796  0.6066  0.4394
18361TIP3   OH276497   6.269   3.758  12.337 -0.2744  0.7470  0.2834
18361TIP3    H176498   6.187   3.752  12.288 -0.3011 -0.7347  0.4954
18361TIP3    H276499   6.242   3.786  12.425 -0.4767  1.0674  0.1189
18362TIP3   OH276500   1.811   2.456   2.211  0.5220  0.2468 -0.4774
18362TIP3    H176501   1.860   2.457   2.293  1.3340  1.4675 -0.9551
18362TIP3    H276502   1.725   2.420   2.234  1.4452 -1.3866  0.4743
18363TIP3   OH276503   2.188   1.121   3.364 -0.9396  0.3308  0.4677
18363TIP3    H176504   2.244   1.192   3.395  1.2699 -0.9832 -0.4177
18363TIP3    H276505   2.102   1.141   3.401 -0.2832  3.2671  0.5014
18364TIP3   OH276506   5.208   5.315  15.225  0.0196 -0.1667 -0.0526
18364TIP3    H176507   5.236   5.224  15.236 -0.0319  0.0756  2.1624
18364TIP3    H276508   5.186   5.321  15.132 -1.5090 -2.8485  0.0868
18365TIP3   OH276509   1.738   3.821  11.143  0.1799 -0.2405 -0.9646
18365TIP3    H176510   1.728   3.829  11.238  0.3000  1.1059 -1.0565
18365TIP3    H276511   1.684   3.891  11.107 -1.8330 -2.2245 -2.0132
18366TIP3   OH276512   0.481   0.089   3.605 -0.2988  0.5898  0.0644
18366TIP3    H176513   0.430   0.041   3.540  0.3339  1.1734 -0.8772
18366TIP3    H276514   0.432   0.079   3.687 -0.7289 -0.7555 -0.3437
18367TIP3   OH276515   5.361   1.384   5.688 -0.7694  0.3962 -0.2958
18367TIP3    H176516   5.403   1.298   5.689  0.3860  0.9342 -0.6741
18367TIP3    H276517   5.274   1.368   5.651 -0.6438 -0.6388 -0.1648
18368TIP3   OH276518   0.491   1.212   4.574 -0.2758 -0.1700 -0.5709
18368TIP3    H176519   0.427   1.142   4.587  2.0970 -2.0345  1.2472
18368TIP3    H276520   0.524   1.231   4.662  1.0147  1.4275 -1.3776
18369TIP3   OH276521   5.510   0.471   2.292  0.3706 -0.3632 -0.0358
18369TIP3    H176522   5.472   0.386   2.272 -0.9182  0.5834 -1.6873
18369TIP3    H276523   5.541   0.505   2.208  0.7519  0.8684  0.5835
18370TIP3   OH276524   5.494   0.431  13.561 -0.1300  0.0979  0.4457
18370TIP3    H176525   5.463   0.449  13.650 -0.7215  0.6490  0.1252
18370TIP3    H276526   5.470   0.508  13.510  2.5051  0.9272  0.3599
18371TIP3   OH276527   3.039   4.204   4.476 -0.1880 -0.7815  0.1484
18371TIP3    H176528   3.056   4.294   4.448 -1.1931  0.0276  2.0427
18371TIP3    H276529   3.071   4.200   4.566  0.2898 -2.4648 -0.0790
18372TIP3   OH276530   1.370   5.980  15.612 -0.6896  0.0986 -0.4691
18372TIP3    H176531   1.383   5.887  15.594  2.9301  0.4072  0.3065
18372TIP3    H276532   1.352   5.983  15.706  3.4296  0.4677  0.3961
18373TIP3   OH276533   2.721   5.264   4.466 -0.0218  0.0714 -0.8624
18373TIP3    H176534   2.708   5.231   4.555 -0.8805  1.1933 -0.5625
18373TIP3    H276535   2.701   5.189   4.409  0.5015 -0.6374 -0.1222
18374TIP3   OH276536   4.028   6.439   1.621 -0.1843  0.5921 -0.1816
18374TIP3    H176537   4.103   6.411   1.674  0.1655 -0.1206 -1.0388
18374TIP3    H276538   4.036   6.534   1.617  1.1599  0.4730 -0.9372
18375TIP3   OH276539   1.917   0.229   0.289 -0.3170  0.4615  0.0091
18375TIP3    H176540   1.868   0.308   0.268 -0.0759  1.0375  1.5246
18375TIP3    H276541   2.009   0.255   0.281 -0.2373 -0.4581 -2.2695
18376TIP3   OH276542   2.147   3.650   5.278  0.1292  0.3987 -0.2161
18376TIP3    H176543   2.121   3.730   5.233  1.4625  0.5197 -0.8041
18376TIP3    H276544   2.164   3.587   5.208  1.7721  0.4517  0.1064
18377TIP3   OH276545   0.851   0.459  15.881  0.2266  0.3795 -0.0941
18377TIP3    H176546   0.807   0.374  15.880  0.0482  0.4627  0.5370
18377TIP3    H276547   0.943   0.438  15.863 -0.1576  0.2661 -2.0469
18378TIP3   OH276548   4.105   5.661   1.050  0.3461  0.3381  0.5295
18378TIP3    H176549   4.112   5.756   1.044  1.5445  0.3592  2.1075
18378TIP3    H276550   4.108   5.642   1.143  1.2082 -1.3185  0.1941
18379TIP3   OH276551   6.603   1.768   4.659 -0.1996 -0.2689 -0.3480
18379TIP3    H176552   6.660   1.741   4.587  0.6286 -0.4906  0.3776
18379TIP3    H276553   6.639   1.852   4.688  0.4776 -0.9616  0.8640
18380TIP3   OH276554   2.722   1.831  15.547 -0.2289 -0.3393  0.0270
18380TIP3    H176555   2.668   1.814  15.470 -3.5931  0.3560  2.1147
18380TIP3    H276556   2.799   1.775  15.536  0.3313  1.1554 -4.7057
18381TIP3   OH276557   1.989   2.447   0.534 -0.3175  0.1948 -0.1577
18381TIP3    H176558   1.920   2.383   0.548 -1.7823  1.7057 -0.3652
18381TIP3    H276559   2.003   2.487   0.620  2.8169 -2.5403  0.7088
18382TIP3   OH276560   5.877   2.267   3.749  0.3686  0.5123 -0.4139
18382TIP3    H176561   5.809   2.295   3.688  0.9213  1.6123 -0.5309
18382TIP3    H276562   5.848   2.181   3.779 -1.9973  1.7341  0.9487
18383TIP3   OH276563   0.073   4.111  11.979 -0.3670  0.7661 -0.3068
18383TIP3    H176564  -0.003   4.130  11.924 -0.3902 -2.3292 -1.3991
18383TIP3    H276565   0.035   4.086  12.063 -0.4803  1.2310 -0.2171
18384TIP3   OH276566   5.989   0.676   4.162 -0.3421  0.0664 -0.1353
18384TIP3    H176567   5.946   0.606   4.113  0.5537 -0.5288 -0.0895
18384TIP3    H276568   5.937   0.686   4.241  1.7302 -3.3306  1.7796
18385TIP3   OH276569   2.827   1.057   1.768  0.2741 -0.3319 -0.3642
18385TIP3    H176570   2.914   1.046   1.729 -0.0890 -1.0078 -0.9979
18385TIP3    H276571   2.813   1.152   1.769  0.1347 -0.3076 -2.2574
18386TIP3   OH276572   2.415   4.662   0.919  0.6053  0.0861 -0.3607
18386TIP3    H176573   2.346   4.609   0.880  0.7062  1.1424 -2.0268
18386TIP3    H276574   2.496   4.629   0.881  0.7449  0.8464 -0.7317
18387TIP3   OH276575   5.761   3.750   2.192  0.0935  0.1673 -0.5942
18387TIP3    H176576   5.711   3.728   2.270  0.0191  0.0118 -0.6874
18387TIP3    H276577   5.852   3.727   2.214  0.1064  0.3380 -0.4697
18388TIP3   OH276578   3.464   1.949  16.956  0.1035 -0.7648 -0.7673
18388TIP3    H176579   3.378   1.928  16.918 -0.0120 -0.0799 -0.8971
18388TIP3    H276580   3.491   1.869  17.001 -1.7832 -0.1748  1.4953
18389TIP3   OH276581   4.528   0.433  16.533 -0.1705  0.6169  0.1225
18389TIP3    H176582   4.613   0.478  16.534  1.0317 -1.5989  0.7894
18389TIP3    H276583   4.533   0.375  16.457 -1.4398  1.0914 -0.3324
18390TIP3   OH276584   2.460   2.820  17.015 -0.0246  0.2388 -0.3974
18390TIP3    H176585   2.375   2.780  16.996 -0.5862  1.1101  0.2495
18390TIP3    H276586   2.461   2.831  17.110  0.8381  0.1762 -0.3964
18391TIP3   OH276587   2.199   5.296  12.144  0.1428  0.6444  0.4252
18391TIP3    H176588   2.262   5.289  12.215  0.5707 -1.4040 -0.1301
18391TIP3    H276589   2.234   5.364  12.086  1.4129  0.0896  0.5439
18392TIP3   OH276590   2.704   5.788   1.976 -0.2340 -0.1261 -0.0839
18392TIP3    H176591   2.651   5.857   1.936 -1.4876 -1.3613 -0.5635
18392TIP3    H276592   2.778   5.835   2.014 -0.1593  1.3112 -1.9129
18393TIP3   OH276593   4.433   6.326  11.682  0.9357  1.2092 -0.7709
18393TIP3    H176594   4.451   6.404  11.630  0.4842  2.5416  0.9852
18393TIP3    H276595   4.486   6.337  11.761  0.3387  0.0816 -0.1954
18394TIP3   OH276596   6.470   3.905  10.483  0.1165 -0.1205  0.0307
18394TIP3    H176597   6.397   3.925  10.542  0.2525  1.7225 -0.3966
18394TIP3    H276598   6.542   3.958  10.515  0.1542  1.0106 -1.8571
18395TIP3   OH276599   0.861   5.565   0.173  0.0612 -0.3304 -0.6289
18395TIP3    H176600   0.913   5.502   0.125  1.0368 -0.3060  0.3720
18395TIP3    H276601   0.854   5.529   0.261 -0.1944  0.4717 -0.3103
18396TIP3   OH276602   2.962   6.124   4.361  0.2584 -0.1363 -0.1732
18396TIP3    H176603   2.922   6.210   4.348 -0.1594 -0.4646 -1.1644
18396TIP3    H276604   2.951   6.105   4.454 -1.7518 -0.1439 -0.3966
18397TIP3   OH276605   5.397   3.499   6.604 -0.0157  0.8431 -0.1380
18397TIP3    H176606   5.346   3.580   6.599  1.1382  1.5725 -0.1864
18397TIP3    H276607   5.478   3.524   6.649 -0.5761 -0.7500  1.8079
18398TIP3   OH276608   4.083   0.231  11.430  0.7336  0.1130  0.2128
18398TIP3    H176609   4.071   0.265  11.341  3.1384  2.5491  0.7532
18398TIP3    H276610   3.995   0.227  11.466  0.0992  3.6614 -0.7021
18399TIP3   OH276611   6.567   5.420   5.533 -0.3778  0.4627  0.3203
18399TIP3    H176612   6.658   5.433   5.508 -0.1117  2.4552  2.1443
18399TIP3    H276613   6.529   5.370   5.462  2.5634 -1.8828  0.3121
18400TIP3   OH276614   3.794   6.203  11.858 -0.4134 -0.4264 -0.5537
18400TIP3    H176615   3.771   6.264  11.788 -0.7859 -1.3530 -1.2618
18400TIP3    H276616   3.713   6.155  11.874 -0.0715 -0.8707 -0.1531
18401TIP3   OH276617   2.616   2.580  12.299  0.2432 -0.0330  0.4755
18401TIP3    H176618   2.551   2.555  12.233 -1.2584  1.2182  1.4123
18401TIP3    H276619   2.687   2.518  12.288 -0.1578 -0.1260 -2.0263
18402TIP3   OH276620   4.280   1.759   2.460  0.4989  0.4846  0.5338
18402TIP3    H176621   4.202   1.709   2.437  0.2261  0.9683  0.3966
18402TIP3    H276622   4.248   1.830   2.516  1.0642 -0.2691  1.8096
18403TIP3   OH276623   4.620   3.846   6.302 -0.1723  0.4026  0.2801
18403TIP3    H176624   4.710   3.878   6.312 -0.1755  0.2275  0.9099
18403TIP3    H276625   4.626   3.752   6.318 -0.0627 -0.0379 -2.1832
18404TIP3   OH276626   6.398   2.202   3.543  0.5469 -0.3431 -0.1941
18404TIP3    H176627   6.336   2.256   3.592 -0.8006  1.1978 -3.4401
18404TIP3    H276628   6.391   2.115   3.584 -1.2828  0.6159  1.6321
18405TIP3   OH276629   0.030   5.560   0.750  0.5543 -0.0408  0.0258
18405TIP3    H176630   0.099   5.593   0.693 -2.1887  1.6235 -2.4133
18405TIP3    H276631  -0.017   5.496   0.697 -2.7774  2.3982 -0.1678
18406TIP3   OH276632   5.232   4.283  15.300 -0.3022  0.0973  0.1880
18406TIP3    H176633   5.316   4.284  15.345 -0.2580 -2.4836  0.2510
18406TIP3    H276634   5.201   4.373  15.305  2.4300  1.0821  0.1898
18407TIP3   OH276635   4.734   0.091   4.190  0.4957  0.6044 -0.1245
18407TIP3    H176636   4.813   0.088   4.135 -0.6060  1.3774 -1.8002
18407TIP3    H276637   4.675   0.026   4.151  0.2766  0.0598  1.0979
18408TIP3   OH276638   3.441   3.331  13.969 -0.1393 -0.1507  0.6348
18408TIP3    H176639   3.373   3.296  13.910 -0.2055  0.3808  0.3948
18408TIP3    H276640   3.399   3.405  14.012  0.5222  0.6317 -0.0578
18409TIP3   OH276641   5.409   2.940  12.400  0.5776 -0.1712 -0.0674
18409TIP3    H176642   5.357   2.890  12.338 -1.1671  0.1910  1.0555
18409TIP3    H276643   5.462   2.875  12.446  1.4478 -0.4998 -1.5078
18410TIP3   OH276644   2.691   0.175  15.547 -0.3792  0.0700  0.3008
18410TIP3    H176645   2.777   0.134  15.552 -0.7689 -0.6216  1.8448
18410TIP3    H276646   2.633   0.107  15.513 -0.1639  0.8027 -1.5546
18411TIP3   OH276647   0.768   0.031  12.222 -0.0846 -0.4381 -0.6492
18411TIP3    H176648   0.752  -0.062  12.205  1.2471 -0.8009 -0.0176
18411TIP3    H276649   0.861   0.035  12.246 -0.5882  0.7627  1.2507
18412TIP3   OH276650   6.442   6.748   1.870  0.2820 -0.1826  0.1608
18412TIP3    H176651   6.372   6.804   1.836  0.4363 -0.7266 -1.0634
18412TIP3    H276652   6.498   6.808   1.920  0.1931  0.6683 -0.7482
18413TIP3   OH276653   2.928   3.682  16.493  0.3613  0.1346  0.4574
18413TIP3    H176654   2.989   3.649  16.427 -1.3614 -0.5282 -0.8587
18413TIP3    H276655   2.921   3.776  16.475 -1.3066 -0.2984 -1.3925
18414TIP3   OH276656   3.662   1.176  12.819 -0.0290 -0.0245 -0.3191
18414TIP3    H176657   3.692   1.153  12.906  0.6933  0.2740 -0.4835
18414TIP3    H276658   3.668   1.094  12.769 -1.0367 -0.3456  0.0583
18415TIP3   OH276659   1.232   3.755  16.503  0.0042 -0.4170 -0.3200
18415TIP3    H176660   1.266   3.825  16.559  2.5817 -1.0602 -0.9943
18415TIP3    H276661   1.243   3.788  16.414 -0.7136 -0.8508 -0.5760
18416TIP3   OH276662   3.116   3.378   1.803  0.5161 -0.3347 -0.2937
18416TIP3    H176663   3.053   3.436   1.847 -0.3310 -1.2155 -0.3254
18416TIP3    H276664   3.168   3.340   1.874  1.6785  1.1361 -0.3313
18417TIP3   OH276665   5.949   6.652   0.475  0.9077 -0.0127 -0.6718
18417TIP3    H176666   5.899   6.699   0.408  4.6892  2.9466 -1.6239
18417TIP3    H276667   6.000   6.588   0.426  3.4683  1.9680 -0.7556
18418TIP3   OH276668   2.110   4.027  16.501  0.3951 -0.2650 -0.0655
18418TIP3    H176669   2.195   3.987  16.514  0.0763 -1.4192 -1.3501
18418TIP3    H276670   2.127   4.121  16.498  1.4374 -0.4191  0.9322
18419TIP3   OH276671   0.432   0.411   1.850  0.4171  0.8687  0.0432
18419TIP3    H176672   0.471   0.354   1.917  0.4071  0.1488 -0.5597
18419TIP3    H276673   0.416   0.353   1.775 -0.4407  1.4705 -0.2482
18420TIP3   OH276674   0.357   3.175  15.589 -0.0987 -0.6340 -0.0963
18420TIP3    H176675   0.440   3.129  15.575  0.0175 -0.2217 -0.7928
18420TIP3    H276676   0.383   3.260  15.625 -0.1489 -0.0950 -1.3119
18421TIP3   OH276677   4.564   3.442   4.898  0.5598 -0.2370  0.0765
18421TIP3    H176678   4.537   3.525   4.937  0.0308 -0.3728  0.0084
18421TIP3    H276679   4.482   3.394   4.885  0.5915  0.2709 -2.2693
18422TIP3   OH276680   5.332   3.115  17.093  0.6099  0.4665  0.3329
18422TIP3    H176681   5.272   3.045  17.119  0.2147  0.4231 -0.6794
18422TIP3    H276682   5.406   3.106  17.152 -0.0427  0.0446  1.0965
18423TIP3   OH276683   0.452   4.784   4.741  0.3235 -0.0663  0.4743
18423TIP3    H176684   0.512   4.826   4.679  0.5829 -0.1668  0.6589
18423TIP3    H276685   0.366   4.820   4.718  0.2645 -0.8935 -0.6279
18424TIP3   OH276686   6.707   6.337   1.659 -0.1486 -0.2305 -0.2698
18424TIP3    H176687   6.737   6.408   1.716  0.4771 -0.5799 -0.1544
18424TIP3    H276688   6.752   6.352   1.576 -1.8267  0.8520 -1.0113
18425TIP3   OH276689   6.414   1.982  13.694  0.4235  0.1264 -0.4073
18425TIP3    H176690   6.463   2.051  13.649  1.5346  0.2410  0.9277
18425TIP3    H276691   6.350   2.029  13.746  2.2818  0.2920  1.8116
18426TIP3   OH276692   2.879   1.901  15.965 -0.0261 -0.1288 -0.0419
18426TIP3    H176693   2.857   1.974  15.907 -0.5808  1.3217  1.9048
18426TIP3    H276694   2.973   1.890  15.956  0.4929  2.5170  1.4386
18427TIP3   OH276695   5.498   2.810   2.061  0.3978  0.2107 -0.4333
18427TIP3    H176696   5.403   2.806   2.058  0.5116 -3.1676 -2.9559
18427TIP3    H276697   5.522   2.870   1.990  0.1831 -1.1939 -1.7219
18428TIP3   OH276698   3.218   4.522  13.113 -0.4803  0.0622  0.4335
18428TIP3    H176699   3.283   4.580  13.154  0.1042  0.2141 -0.6832
18428TIP3    H276700   3.196   4.458  13.181 -1.5404  1.9043  1.8801
18429TIP3   OH276701   4.981   1.791  15.409 -0.7616 -0.0373 -0.5110
18429TIP3    H176702   4.902   1.741  15.391  0.1726 -1.2653 -1.2836
18429TIP3    H276703   5.053   1.734  15.382  0.4625  0.3546  1.7498
18430TIP3   OH276704   3.287   1.810  14.107 -0.4714 -0.3979  0.0472
18430TIP3    H176705   3.275   1.741  14.042  1.5555 -0.6701 -0.0836
18430TIP3    H276706   3.215   1.870  14.093  0.6507  0.2439 -3.3687
18431TIP3   OH276707   6.345   1.754  17.064 -0.0968 -0.3037  0.1030
18431TIP3    H176708   6.421   1.793  17.020 -1.0704 -0.5574 -1.9070
18431TIP3    H276709   6.372   1.744  17.155  2.1838 -0.1807 -0.5221
18432TIP3   OH276710   0.703   4.349   5.467  0.1281 -0.7707  0.6150
18432TIP3    H176711   0.628   4.370   5.412  0.2980 -1.1192  0.2473
18432TIP3    H276712   0.724   4.431   5.512 -0.5060 -0.6874  0.7651
18433TIP3   OH276713   5.346   5.299   2.792  0.3378 -0.0956  0.0995
18433TIP3    H176714   5.256   5.329   2.779  0.5327  0.4173 -0.0913
18433TIP3    H276715   5.371   5.336   2.876 -0.5112 -2.4111  1.3998
18434TIP3   OH276716   5.466   4.116   4.867 -0.3490 -0.2467 -0.3327
18434TIP3    H176717   5.389   4.112   4.925 -1.4269  0.4822 -1.6834
18434TIP3    H276718   5.484   4.025   4.844  0.3618 -0.5826  1.4873
18435TIP3   OH276719   0.563   4.352  14.161  0.0202 -0.2905  0.2434
18435TIP3    H176720   0.489   4.363  14.101  0.0789  1.6518  0.5091
18435TIP3    H276721   0.527   4.298  14.232 -0.9979  0.1945  0.1128
18436TIP3   OH276722   3.476   0.985  13.975 -0.5575  0.9322  0.5011
18436TIP3    H176723   3.441   0.910  14.023 -0.4190  0.5605  0.0305
18436TIP3    H276724   3.453   0.968  13.884  0.3986  0.9368  0.2552
18437TIP3   OH276725   6.172   2.704  12.777 -0.0007  0.5270  0.0116
18437TIP3    H176726   6.155   2.787  12.822  0.0048 -0.5646  2.0850
18437TIP3    H276727   6.101   2.697  12.712 -1.1060  1.2383  1.1268
18438TIP3   OH276728   3.068   2.744  13.120  0.6061 -0.1734  0.1919
18438TIP3    H176729   3.084   2.675  13.057  0.1093 -1.3154  1.2968
18438TIP3    H276730   2.981   2.777  13.098  0.3136 -0.7637  0.4479
18439TIP3   OH276731   1.348   5.029  15.099 -0.2160  0.1394  0.2765
18439TIP3    H176732   1.384   5.105  15.053  0.3994 -0.2150  0.1701
18439TIP3    H276733   1.357   4.957  15.037  0.7990 -0.3845  1.0258
18440TIP3   OH276734   1.663   0.321   5.443  0.3353  0.2874  0.3605
18440TIP3    H176735   1.691   0.249   5.386  5.3054  2.1517  0.2016
18440TIP3    H276736   1.710   0.306   5.525 -2.8183  0.4601  2.3018
18441TIP3   OH276737   1.698   6.184  15.152 -0.0164  0.8539 -0.7575
18441TIP3    H176738   1.742   6.269  15.152  1.6901  0.0103 -0.6798
18441TIP3    H276739   1.755   6.128  15.206 -1.0582 -0.3559 -0.8895
18442TIP3   OH276740   6.178   3.183  14.651  0.0973  0.0874  0.2381
18442TIP3    H176741   6.131   3.232  14.719  1.4508  2.5320 -0.5209
18442TIP3    H276742   6.109   3.149  14.594 -0.8628  2.0866  0.1510
18443TIP3   OH276743   1.589   6.248   0.449  0.4770 -0.2479  0.0648
18443TIP3    H176744   1.518   6.304   0.417  1.9926  1.1320 -0.9504
18443TIP3    H276745   1.637   6.224   0.370  2.2573  0.4012  0.9321
18444TIP3   OH276746   5.001   1.185   1.046  0.5707  0.0790  0.5285
18444TIP3    H176747   4.968   1.230   0.969 -1.2358 -1.7962  0.1829
18444TIP3    H276748   5.024   1.256   1.107 -1.8813  1.4779 -0.1347
18445TIP3   OH276749   6.466   5.565   1.774 -0.2435  0.2771 -0.2059
18445TIP3    H176750   6.419   5.637   1.733  0.9078  1.1703  0.0291
18445TIP3    H276751   6.514   5.524   1.702 -1.1433 -0.4774 -0.3983
18446TIP3   OH276752   1.380   0.292  16.752 -0.2137 -0.4004  0.6048
18446TIP3    H176753   1.463   0.282  16.800 -0.7643  1.2402  1.9920
18446TIP3    H276754   1.340   0.206  16.754  1.5009 -1.2409 -0.1697
18447TIP3   OH276755   5.039   5.638   2.866 -0.3740 -0.4120  0.4552
18447TIP3    H176756   4.954   5.612   2.901 -0.7902  0.7156  0.2817
18447TIP3    H276757   5.060   5.720   2.911  0.2244 -0.2363 -0.1277
18448TIP3   OH276758   0.326   1.034  16.549  0.3011  0.1473  0.5162
18448TIP3    H176759   0.342   0.953  16.597 -2.7166 -0.7121  0.1534
18448TIP3    H276760   0.281   1.090  16.612  0.3828  0.7099  0.0739
18449TIP3   OH276761   4.802   0.848  13.262  0.4801 -0.1131  0.1116
18449TIP3    H176762   4.801   0.830  13.356  0.9235  1.3069  0.4045
18449TIP3    H276763   4.882   0.807  13.230  0.0051 -1.1467  0.2305
18450TIP3   OH276764   1.187   3.057   5.142  0.5209  0.2771  0.4311
18450TIP3    H176765   1.166   3.116   5.069 -0.8635 -0.4707  0.2062
18450TIP3    H276766   1.282   3.049   5.140  0.6220  1.4941 -0.3220
18451TIP3   OH276767   0.762   4.302   4.434  0.2019 -0.0512  0.3592
18451TIP3    H176768   0.756   4.396   4.451 -0.5482 -0.1520  0.6670
18451TIP3    H276769   0.728   4.262   4.514 -0.5879 -0.5679 -0.2269
18452TIP3   OH276770   6.411   0.864   6.043 -0.3569  0.6616  0.0083
18452TIP3    H176771   6.401   0.837   6.134 -1.2874  1.6240  0.1927
18452TIP3    H276772   6.352   0.806   5.995  1.9617 -1.5247 -0.3069
18453TIP3   OH276773   0.174   0.592  12.883  0.0894  0.0285 -0.7487
18453TIP3    H176774   0.235   0.520  12.870  0.1816 -0.6980  3.2472
18453TIP3    H276775   0.223   0.670  12.856  2.6432 -0.6113  1.8109
18454TIP3   OH276776   6.400   2.574   3.154  0.1247 -0.2915  0.1428
18454TIP3    H176777   6.481   2.565   3.204 -0.4274  0.8375  1.2520
18454TIP3    H276778   6.357   2.489   3.161 -0.2805  0.0733  2.1588
18455TIP3   OH276779   5.308   5.955   4.498 -0.5748  0.4701  0.8199
18455TIP3    H176780   5.310   5.938   4.404 -1.1540 -1.6548  1.1576
18455TIP3    H276781   5.218   5.983   4.516 -1.4233 -2.3434  1.2134
18456TIP3   OH276782   0.684   6.172  14.994  0.0374 -0.1208  0.0526
18456TIP3    H176783   0.601   6.156  15.040  0.2626 -0.8442  0.2167
18456TIP3    H276784   0.749   6.176  15.064  0.0270  1.2315 -0.0194
18457TIP3   OH276785   5.826   5.785  14.031 -1.1361  0.0879 -0.1780
18457TIP3    H176786   5.762   5.807  13.964 -1.2595  1.3323  0.3224
18457TIP3    H276787   5.803   5.841  14.106  0.3395  0.3399  0.1110
18458TIP3   OH276788   1.446   1.239   5.615  0.4206 -0.0982  0.5622
18458TIP3    H176789   1.478   1.289   5.690  0.9190  0.7592 -0.1992
18458TIP3    H276790   1.485   1.284   5.539 -0.4455 -0.6694 -0.2243
18459TIP3   OH276791   3.331   0.618  16.099  0.5152  0.1944 -0.0120
18459TIP3    H176792   3.313   0.526  16.081  1.1655  0.2981 -1.2790
18459TIP3    H276793   3.342   0.623  16.193  1.1128 -1.1429 -0.0093
18460TIP3   OH276794   2.248   5.499  14.799 -0.1747 -0.1921  0.1590
18460TIP3    H176795   2.258   5.594  14.787 -0.7492 -0.1371  0.1229
18460TIP3    H276796   2.241   5.488  14.894  0.3701 -0.2485  0.1965
18461TIP3   OH276797   1.994   2.675  12.740  0.2670 -0.2348 -0.0449
18461TIP3    H176798   2.009   2.635  12.654 -1.0388 -2.0578  0.5414
18461TIP3    H276799   1.987   2.768  12.722 -0.4279 -0.6403 -1.9931
18462TIP3   OH276800   3.656   2.926  16.330  0.3505 -0.0189  0.2694
18462TIP3    H176801   3.668   2.831  16.338 -0.5457  0.1547  5.1166
18462TIP3    H276802   3.716   2.964  16.393 -2.1386  2.3999  1.2920
18463TIP3   OH276803   2.330   2.669  12.901  0.0886 -0.1468  0.3264
18463TIP3    H176804   2.285   2.630  12.826  1.3635 -0.1147 -0.4835
18463TIP3    H276805   2.267   2.664  12.973 -0.5909 -1.5947 -0.3548
18464TIP3   OH276806   1.638   2.640  14.359 -0.1912 -0.0962  0.1482
18464TIP3    H176807   1.588   2.640  14.277 -1.3091 -0.9640  0.8032
18464TIP3    H276808   1.699   2.567  14.349  0.9034  0.9060 -0.6164
18465TIP3   OH276809   5.115   1.004   0.273 -0.2017 -0.1739  0.2070
18465TIP3    H176810   5.096   1.090   0.310  2.1391 -0.3298  1.9296
18465TIP3    H276811   5.195   1.018   0.221 -0.2887 -1.1305 -0.1898
18466TIP3   OH276812   3.115   4.834   5.206  0.1024 -0.4495  0.4534
18466TIP3    H176813   3.149   4.782   5.134  0.9780 -0.9835  1.2373
18466TIP3    H276814   3.172   4.911   5.210  1.1958 -1.2856  1.6886
18467TIP3   OH276815   5.036   1.890  17.031  0.3428  0.4799 -0.0512
18467TIP3    H176816   5.099   1.876  17.101 -0.9107  0.4776  1.1010
18467TIP3    H276817   5.046   1.983  17.009  0.7596  0.4749  0.1028
18468TIP3   OH276818   3.217   1.522   3.423 -0.3857 -0.2070  0.0964
18468TIP3    H176819   3.206   1.427   3.425  1.7118 -0.4688  0.9349
18468TIP3    H276820   3.198   1.550   3.513  0.4626 -0.0277  0.2239
18469TIP3   OH276821   0.977   5.395   5.498 -0.6340  0.3983  0.2252
18469TIP3    H176822   1.004   5.339   5.425  0.1988 -0.1198  0.9152
18469TIP3    H276823   1.015   5.480   5.480  0.7643 -0.1079  0.7686
18470TIP3   OH276824   4.132   5.424  15.060  0.1753  0.2139  0.1814
18470TIP3    H176825   4.044   5.407  15.092  0.1025 -0.2575 -0.2585
18470TIP3    H276826   4.134   5.384  14.973  0.6763  0.6212 -0.0005
18471TIP3   OH276827   3.755   5.179   5.821  0.0726 -0.1174  0.6934
18471TIP3    H176828   3.692   5.227   5.876 -0.8639 -0.0447 -0.4113
18471TIP3    H276829   3.804   5.247   5.776  0.1505 -0.1854  0.6748
18472TIP3   OH276830   4.376   6.697   4.302  0.1742 -0.7803  0.4654
18472TIP3    H176831   4.457   6.665   4.264  0.7890 -0.0072  1.1233
18472TIP3    H276832   4.394   6.707   4.395 -0.5000 -0.0910  0.5337
18473TIP3   OH276833   6.184   3.430   5.624  0.1990 -0.6660  0.3024
18473TIP3    H176834   6.223   3.515   5.602 -3.1521  0.6994 -0.7449
18473TIP3    H276835   6.215   3.412   5.713  1.8437  1.1285  0.1213
18474TIP3   OH276836   3.657   4.881  14.345 -0.1746  0.1948  0.6787
18474TIP3    H176837   3.729   4.940  14.366  0.0434 -0.0854  0.7381
18474TIP3    H276838   3.685   4.838  14.264 -0.8110  0.9514  0.0622
18475TIP3   OH276839   5.238   2.588   4.336  0.1145  0.4591  0.2884
18475TIP3    H176840   5.275   2.662   4.288  0.8950  0.0990  0.3293
18475TIP3    H276841   5.156   2.622   4.374  1.0116  1.6179  1.2173
18476TIP3   OH276842   5.285   4.505  13.708  0.1065  0.4552  0.0160
18476TIP3    H176843   5.337   4.468  13.779 -0.3776  0.3035  0.2931
18476TIP3    H276844   5.294   4.599  13.717  0.8486  0.4182 -0.3211
18477TIP3   OH276845   4.262   0.240  13.605  0.1167 -0.2439 -0.7367
18477TIP3    H176846   4.274   0.297  13.529 -0.5079  0.4226 -0.3427
18477TIP3    H276847   4.316   0.279  13.673 -2.1736  1.2791  0.2574
18478TIP3   OH276848   6.002   3.949  12.109 -0.4973 -0.5794  0.0332
18478TIP3    H176849   6.061   3.911  12.044 -0.1815 -1.8102  1.0259
18478TIP3    H276850   5.994   3.882  12.176  0.0368  1.0872  1.8015
18479TIP3   OH276851   4.758   3.702   0.713 -0.3979  0.4071 -0.7765
18479TIP3    H176852   4.711   3.655   0.643  1.7296  0.3439 -2.2208
18479TIP3    H276853   4.753   3.794   0.687  2.0081  0.2198 -2.0924
18480TIP3   OH276854   5.226   3.246   3.166  0.3949  0.2525  0.2458
18480TIP3    H176855   5.171   3.229   3.089  0.9611 -2.0696  0.2943
18480TIP3    H276856   5.314   3.253   3.131  0.4080  1.2765  0.4691
18481TIP3   OH276857   3.763   5.106   4.640  0.1971 -0.6057  0.1893
18481TIP3    H176858   3.790   5.132   4.728  0.1007  0.2616 -0.0335
18481TIP3    H276859   3.739   5.188   4.596  1.0551 -0.9262 -0.9193
18482TIP3   OH276860   3.908   0.997   5.258  0.8179  0.4977 -0.1236
18482TIP3    H176861   3.950   0.951   5.331  2.2085 -0.0933 -1.2849
18482TIP3    H276862   3.977   1.050   5.219 -0.0469  1.2348 -0.6757
18483TIP3   OH276863   5.207   2.670  15.895 -1.0831 -0.1708 -0.7025
18483TIP3    H176864   5.236   2.757  15.926 -1.2428 -0.0335 -0.9392
18483TIP3    H276865   5.198   2.681  15.801 -1.8457 -0.2385 -0.6365
18484TIP3   OH276866   5.622   3.648  11.095  0.2097 -0.7427  0.5369
18484TIP3    H176867   5.673   3.684  11.168  1.8361 -2.6129  0.3731
18484TIP3    H276868   5.568   3.580  11.135 -1.1754  0.2890  0.4716
18485TIP3   OH276869   1.062   0.891  14.449 -0.0948 -0.1877 -0.0137
18485TIP3    H176870   1.046   0.982  14.424 -1.4321 -0.0803  1.1690
18485TIP3    H276871   0.976   0.857  14.473  0.7092 -1.1131  1.6578
18486TIP3   OH276872   1.750   5.721   1.750 -0.1460 -0.2316  0.0556
18486TIP3    H176873   1.738   5.670   1.831  1.0703 -1.5010 -0.5299
18486TIP3    H276874   1.674   5.700   1.697 -1.5411  1.5212  1.3219
18487TIP3   OH276875   4.965   1.878  14.816 -0.5100  0.5841  0.2705
18487TIP3    H176876   4.873   1.885  14.793 -0.9177  1.5657  2.1548
18487TIP3    H276877   5.011   1.915  14.740 -1.5460 -1.6038 -1.4818
18488TIP3   OH276878   0.315   3.592  13.383  0.3832 -0.3711  0.4501
18488TIP3    H176879   0.314   3.504  13.345  0.5081 -0.2633  0.1951
18488TIP3    H276880   0.262   3.585  13.462  0.2055 -0.6232  0.3089
18489TIP3   OH276881   5.066   1.066   2.120 -0.0010 -0.3245  0.0817
18489TIP3    H176882   5.144   1.078   2.066  1.7651 -1.2337  2.3525
18489TIP3    H276883   5.046   0.972   2.114 -1.2731 -0.0005 -0.9411
18490TIP3   OH276884   2.669   5.349  16.341  0.3898 -0.0311  0.1270
18490TIP3    H176885   2.711   5.289  16.403  0.4579  0.1544  0.2589
18490TIP3    H276886   2.595   5.385  16.389 -0.6872 -1.3130 -0.5236
18491TIP3   OH276887   1.024   6.139  11.145  0.0990 -0.2756  0.6704
18491TIP3    H176888   1.070   6.222  11.156  1.4102 -0.8235 -0.5487
18491TIP3    H276889   1.049   6.087  11.222  0.9842 -0.3223  0.3524
18492TIP3   OH276890   6.633   6.062   4.790  0.2204  0.6823 -0.3548
18492TIP3    H176891   6.623   5.979   4.836 -0.6485  0.9694 -0.0185
18492TIP3    H276892   6.548   6.106   4.800  0.4301  1.2913 -1.1573
18493TIP3   OH276893   0.308   2.234   4.552 -0.3112 -0.1196 -0.0211
18493TIP3    H176894   0.250   2.165   4.582 -0.8310  0.9302  1.4391
18493TIP3    H276895   0.354   2.264   4.631  1.4594 -0.2257 -0.9667
18494TIP3   OH276896   2.941   2.799  16.370 -0.2326  0.6160 -0.4500
18494TIP3    H176897   2.984   2.767  16.449  0.7265 -2.5728 -2.1815
18494TIP3    H276898   2.859   2.837  16.401  0.6406  0.4391  2.1723
18495TIP3   OH276899   0.393   0.956   5.895  0.2634 -0.4373 -0.1948
18495TIP3    H176900   0.351   0.870   5.885  0.0050 -0.4881  1.2031
18495TIP3    H276901   0.323   1.013   5.926  0.2186  0.5139 -1.9718
18496TIP3   OH276902   3.839   6.426   5.975 -0.4564 -0.2867 -0.0748
18496TIP3    H176903   3.872   6.429   5.885  1.3808 -1.9972  0.5107
18496TIP3    H276904   3.847   6.517   6.006 -1.1453  0.3317 -1.6257
18497TIP3   OH276905   3.835   3.464  11.753  0.3507 -0.4464  0.2292
18497TIP3    H176906   3.822   3.507  11.668 -0.2745 -0.7815  0.1512
18497TIP3    H276907   3.923   3.427  11.747  1.2168  1.5332  0.6217
18498TIP3   OH276908   2.427   4.352   4.376 -0.8045 -0.2638 -0.2093
18498TIP3    H176909   2.368   4.393   4.439 -0.0075 -0.0486  0.4176
18498TIP3    H276910   2.486   4.299   4.430  0.0977  0.1790 -0.7447
18499TIP3   OH276911   4.585   1.609  13.958 -0.0313  0.4959  0.0118
18499TIP3    H176912   4.645   1.620  13.884 -0.0199  1.4591  0.1569
18499TIP3    H276913   4.523   1.681  13.949  0.2554  0.9001  1.2077
18500TIP3   OH276914   4.642   1.196   4.646 -0.2647 -0.1268 -0.3551
18500TIP3    H176915   4.649   1.250   4.567 -2.3189  1.6360  0.6121
18500TIP3    H276916   4.669   1.108   4.617  1.8448  1.0835 -2.2885
18501TIP3   OH276917   1.278   3.198  16.775 -0.4155 -0.2231  0.2606
18501TIP3    H176918   1.203   3.154  16.735  1.6793 -0.9498 -3.0955
18501TIP3    H276919   1.266   3.291  16.753 -0.5882 -0.2712  0.1513
18502TIP3   OH276920   4.871   5.147  16.559 -0.6267 -0.2081 -0.3264
18502TIP3    H176921   4.781   5.131  16.530 -0.5835 -1.4115  0.1893
18502TIP3    H276922   4.906   5.060  16.577  0.4668  0.2987  0.0018
18503TIP3   OH276923   0.345   2.940  11.200  0.1212  0.1344  0.0031
18503TIP3    H176924   0.352   2.934  11.104  0.3579  0.9053 -0.0339
18503TIP3    H276925   0.372   2.854  11.232  0.2870 -0.0458 -0.6107
18504TIP3   OH276926   2.992   6.552   0.031 -0.4405 -0.4604  0.0465
18504TIP3    H176927   3.059   6.616   0.006  1.1571 -1.1561  2.3714
18504TIP3    H276928   2.930   6.602   0.084  0.1279 -0.5472  0.8032
18505TIP3   OH276929   5.876   6.480   4.784  0.2243 -0.6861  0.2321
18505TIP3    H176930   5.807   6.434   4.832  0.8155  0.5220  2.3031
18505TIP3    H276931   5.890   6.561   4.834  3.1332 -0.9152 -0.1316
18506TIP3   OH276932   0.542   3.644  16.093  0.2057  0.1097  0.1308
18506TIP3    H176933   0.522   3.610  16.180 -2.6246 -2.1891 -1.3449
18506TIP3    H276934   0.616   3.591  16.063 -0.7812 -1.1723 -0.0543
18507TIP3   OH276935   5.160   4.138   5.310 -0.3559 -0.2661  0.5216
18507TIP3    H176936   5.079   4.141   5.362  0.1768 -1.6115  1.4405
18507TIP3    H276937   5.156   4.055   5.264  0.1201  0.0445 -0.0868
18508TIP3   OH276938   2.832   0.340  16.551  0.0634  0.1066  0.0934
18508TIP3    H176939   2.899   0.311  16.489  0.4693  0.7704  0.2142
18508TIP3    H276940   2.835   0.436  16.546  0.2647  0.1762  1.3177
18509TIP3   OH276941   1.404   0.228   0.524  0.1034 -0.6977  0.4643
18509TIP3    H176942   1.443   0.189   0.602  1.4123 -0.6976 -0.1693
18509TIP3    H276943   1.451   0.187   0.451 -0.0086  0.4627 -0.2698
18510TIP3   OH276944   0.176   5.501   5.789  0.1906  0.0077  0.0108
18510TIP3    H176945   0.263   5.505   5.750 -0.9626 -0.1885 -2.7129
18510TIP3    H276946   0.139   5.418   5.757 -2.1396  1.5499 -1.4510
18511TIP3   OH276947   4.692   3.079  15.237  0.3025  0.0086 -0.2705
18511TIP3    H176948   4.707   3.161  15.189  1.5670  0.0861  0.2326
18511TIP3    H276949   4.637   3.105  15.312 -0.5877  0.1122 -0.9450
18512TIP3   OH276950   3.782   4.082   1.755  0.5886  0.1702  0.1059
18512TIP3    H176951   3.809   4.161   1.709  2.9060 -0.0882  0.9724
18512TIP3    H276952   3.688   4.095   1.771  0.6911  2.2041 -0.7723
18513TIP3   OH276953   4.564   0.552  10.565  0.9892 -0.2308  0.6603
18513TIP3    H176954   4.612   0.603  10.631  2.5612 -0.0361 -0.5990
18513TIP3    H276955   4.632   0.505  10.517 -0.2952 -1.9441  0.4870
18514TIP3   OH276956   2.760   6.696   4.871  0.0167  0.1047  0.2915
18514TIP3    H176957   2.836   6.640   4.887 -0.9928 -1.5700 -0.6086
18514TIP3    H276958   2.733   6.674   4.781 -2.5004 -0.5279  1.1789
18515TIP3   OH276959   5.775   2.031  15.858 -0.1172 -0.1885  0.1484
18515TIP3    H176960   5.812   2.035  15.770 -0.8174 -1.0876 -0.2023
18515TIP3    H276961   5.845   1.994  15.912  0.4067  0.6205  0.0276
18516TIP3   OH276962   6.244   4.687  13.403 -0.4478  0.1013  0.1867
18516TIP3    H176963   6.170   4.705  13.345  0.2697 -2.1580 -1.4963
18516TIP3    H276964   6.307   4.756  13.382 -0.2905 -0.5608 -1.5980
18517TIP3   OH276965   3.095   4.178   1.923 -0.0547  0.2688 -0.5177
18517TIP3    H176966   3.077   4.228   2.002 -2.1999 -0.7585 -0.3198
18517TIP3    H276967   3.164   4.116   1.949  0.1858  0.8185  0.1709
18518TIP3   OH276968   0.212   5.433   1.354  0.2840  0.2003 -0.0194
18518TIP3    H176969   0.265   5.510   1.332  0.8681 -0.1643  0.1114
18518TIP3    H276970   0.274   5.371   1.393  0.6325 -1.9847 -3.7989
18519TIP3   OH276971   3.110   0.185   4.253 -0.1756 -0.3284 -0.0233
18519TIP3    H176972   3.195   0.230   4.251  0.5202 -1.6368 -0.0155
18519TIP3    H276973   3.049   0.249   4.216  0.8061  0.6285 -0.0181
18520TIP3   OH276974   4.338   2.764   5.023 -0.3197  0.2727 -0.4249
18520TIP3    H176975   4.420   2.741   5.067  0.1640  0.1272 -1.3987
18520TIP3    H276976   4.275   2.701   5.056 -0.5688  1.7009  1.9729
18521TIP3   OH276977   6.696   1.502   5.291  0.0853  0.0126  0.1385
18521TIP3    H176978   6.772   1.523   5.345  1.0922 -0.5601 -1.0228
18521TIP3    H276979   6.677   1.584   5.244 -1.2029  0.7082  1.8026
18522TIP3   OH276980   5.857   2.005   3.869  0.2787 -0.5566 -0.3415
18522TIP3    H176981   5.773   1.971   3.899  0.0703 -1.1918 -1.6002
18522TIP3    H276982   5.910   2.014   3.949 -0.7840 -0.6911  0.3825
18523TIP3   OH276983   4.763   6.234   0.627  0.0255  0.1437  0.3962
18523TIP3    H176984   4.775   6.274   0.713 -1.3172  1.8613 -0.1821
18523TIP3    H276985   4.845   6.188   0.610  0.2378 -0.3622  2.6590
18524TIP3   OH276986   0.292   3.513   1.537  0.4747  0.3061  0.2005
18524TIP3    H176987   0.301   3.426   1.499 -1.4533  0.8654 -1.6544
18524TIP3    H276988   0.370   3.560   1.509  0.5076 -0.2082 -0.5861
18525TIP3   OH276989   3.182   6.706   2.925  0.4092  0.3298 -0.6025
18525TIP3    H176990   3.213   6.787   2.965 -1.6189  0.8791 -0.0771
18525TIP3    H276991   3.258   6.670   2.880  1.9009  1.3893  1.0308
18526TIP3   OH276992   2.972   1.620   5.564 -0.0512 -0.1669 -0.3431
18526TIP3    H176993   2.945   1.711   5.578 -2.0434 -0.7775 -0.0043
18526TIP3    H276994   2.942   1.575   5.643 -0.2705 -1.3600 -1.1077
18527TIP3   OH276995   4.423   1.617   4.710  0.1545  0.5255 -0.1020
18527TIP3    H176996   4.411   1.699   4.760 -0.7597  0.6444 -0.5001
18527TIP3    H276997   4.513   1.592   4.727  0.2960  1.3572  0.4345
18528TIP3   OH276998   1.942   2.037   3.153  0.0166  0.1500  0.0887
18528TIP3    H176999   1.852   2.007   3.170  0.4421 -0.7110  0.8672
18528TIP3    H277000   1.931   2.113   3.096 -1.2619  0.5618  0.8471
18529TIP3   OH277001   4.833   0.448  12.866  0.2331  0.1009 -0.5322
18529TIP3    H177002   4.819   0.490  12.951 -0.9954  1.1319 -1.2153
18529TIP3    H277003   4.922   0.414  12.869 -0.4093 -1.5118  1.8588
18530TIP3   OH277004   3.990   3.040   2.286  0.2137  0.0278  0.1419
18530TIP3    H177005   3.964   2.987   2.211 -0.0634  0.0877  0.1939
18530TIP3    H277006   3.925   3.019   2.354  0.9948 -0.7013  0.6575
18531TIP3   OH277007   5.129   5.467  11.509  0.4757 -0.4396  0.3050
18531TIP3    H177008   5.035   5.460  11.497  0.1566  1.2590  1.6736
18531TIP3    H277009   5.155   5.543  11.458  1.0662 -0.7354  0.1496
18532TIP3   OH277010   4.382   4.135   2.627 -0.2214  0.1378  0.8159
18532TIP3    H177011   4.320   4.157   2.558  1.3121 -1.7215 -1.2705
18532TIP3    H277012   4.370   4.041   2.640  0.7614  0.1420  1.7970
18533TIP3   OH277013   1.698   4.886  12.579  0.6914  0.0596 -0.1956
18533TIP3    H177014   1.696   4.790  12.584 -0.1656  0.0233 -1.0664
18533TIP3    H277015   1.719   4.904  12.488 -0.1004  0.7057 -0.2468
18534TIP3   OH277016   1.982   1.608  16.218  0.3953  0.0433 -0.2227
18534TIP3    H177017   2.054   1.669  16.205  0.9294 -0.7230 -0.8340
18534TIP3    H277018   1.924   1.623  16.143  0.8633 -0.6733 -0.7307
18535TIP3   OH277019   4.885   0.366  12.590 -0.4881  0.2904 -0.1277
18535TIP3    H177020   4.860   0.398  12.677  0.4799  1.0879 -0.1379
18535TIP3    H277021   4.969   0.407  12.572  1.1260 -2.7794  0.1141
18536TIP3   OH277022   4.956   5.775   1.666 -0.0785 -0.1518 -0.1695
18536TIP3    H177023   4.874   5.734   1.639 -0.5408  0.1153  0.7920
18536TIP3    H277024   4.950   5.865   1.633  0.2452 -0.4059 -0.9198
18537TIP3   OH277025   5.612   1.242   5.199  0.2831  0.4911  0.5257
18537TIP3    H177026   5.674   1.175   5.171 -1.4827 -1.7004  1.7000
18537TIP3    H277027   5.617   1.309   5.131  1.7951 -0.9988 -0.8853
18538TIP3   OH277028   2.411   4.876   5.259  0.0570 -0.0000  0.3615
18538TIP3    H177029   2.425   4.970   5.267  0.5020 -0.1167  1.0481
18538TIP3    H277030   2.323   4.867   5.223 -0.1005  0.6690  0.5799
18539TIP3   OH277031   1.239   5.569  14.955 -0.0496  0.3772  0.1407
18539TIP3    H177032   1.262   5.483  14.921  1.8653  0.1626  1.8723
18539TIP3    H277033   1.154   5.557  14.996 -0.6072 -0.2558 -1.1863
18540TIP3   OH277034   0.238   5.107  13.101 -0.7009  0.3157  0.5754
18540TIP3    H177035   0.186   5.099  13.181  0.5372 -0.3690  1.3170
18540TIP3    H277036   0.321   5.144  13.129 -0.9076  1.7642 -0.6681
18541TIP3   OH277037   1.826   6.277  12.216  0.1872 -0.1120  0.3293
18541TIP3    H177038   1.870   6.208  12.264  0.1600  0.1447  0.7270
18541TIP3    H277039   1.775   6.232  12.149 -0.2267 -0.5064  0.9084
18542TIP3   OH277040   0.077   1.396   4.497  0.3629 -0.8521  0.1302
18542TIP3    H177041   0.081   1.378   4.591  0.8426 -0.3325  0.2087
18542TIP3    H277042   0.152   1.348   4.461 -1.2046 -3.0461 -0.3176
18543TIP3   OH277043   1.864   5.373   2.150  0.5234 -0.7173 -0.3568
18543TIP3    H177044   1.810   5.427   2.207  0.6326  0.4663 -1.3363
18543TIP3    H277045   1.808   5.300   2.125 -0.5228  0.2924 -1.0533
18544TIP3   OH277046   6.256   1.034   0.174 -0.3918 -0.1462  0.4956
18544TIP3    H177047   6.293   0.967   0.231  0.2387 -0.6297 -0.4702
18544TIP3    H277048   6.170   1.054   0.213 -0.5806 -1.5027  0.7890
18545TIP3   OH277049   0.680   0.986  16.744  0.1985  0.2133  0.1399
18545TIP3    H177050   0.688   0.999  16.838  2.8781 -0.4888  0.0559
18545TIP3    H277051   0.722   1.064  16.706 -0.7402  0.4238 -0.4690
18546TIP3   OH277052   1.709   3.379  16.502  0.0809  0.3796 -0.4905
18546TIP3    H177053   1.750   3.364  16.587 -0.3920  2.8703  0.1942
18546TIP3    H277054   1.741   3.306  16.447  1.3024 -0.5954  1.4559
18547TIP3   OH277055   3.744   3.758  14.603  0.2846  0.0783 -0.0686
18547TIP3    H177056   3.663   3.728  14.644  0.6155 -1.7134 -0.6995
18547TIP3    H277057   3.715   3.825  14.541 -0.9821 -1.9507 -1.7632
18548TIP3   OH277058   6.699   3.119  15.138 -0.3224  0.2295 -0.2694
18548TIP3    H177059   6.638   3.192  15.128 -0.7807 -0.3487 -1.8362
18548TIP3    H277060   6.761   3.149  15.205 -0.6113  1.9727 -0.7497
18549TIP3   OH277061   5.839   6.023  16.867 -0.5706 -0.8373  0.1262
18549TIP3    H177062   5.772   6.078  16.826 -0.0239 -0.3964 -0.1759
18549TIP3    H277063   5.920   6.045  16.821  0.5051  1.3201  2.9104
18550TIP3   OH277064   1.391   0.025   5.969  0.0634 -0.0163  0.1780
18550TIP3    H177065   1.418  -0.060   6.004  1.1662 -0.5670 -1.8866
18550TIP3    H277066   1.402   0.086   6.042  0.7598 -1.3840  1.2333
18551TIP3   OH277067   6.578   6.411  15.795  0.2010  0.6841  0.7734
18551TIP3    H177068   6.516   6.451  15.857  0.8910  1.5936  0.8866
18551TIP3    H277069   6.612   6.485  15.745  1.6505  0.2590  1.1260
18552TIP3   OH277070   0.671   3.829   2.793  0.2961 -0.0440 -0.3110
18552TIP3    H177071   0.579   3.828   2.820  0.2898 -0.2194 -0.3414
18552TIP3    H277072   0.669   3.812   2.699  0.5024 -2.2519  0.0690
18553TIP3   OH277073   4.731   5.344  14.021 -0.4372  0.1185  0.1457
18553TIP3    H177074   4.666   5.284  14.058  0.0500  0.2455  1.2158
18553TIP3    H277075   4.815   5.303  14.040 -0.1488  0.6259 -0.0405
18554TIP3   OH277076   0.912   6.364  16.692 -0.1672 -0.0916 -0.2119
18554TIP3    H177077   0.980   6.374  16.626  0.0626 -1.4329 -0.2083
18554TIP3    H277078   0.884   6.272  16.684  0.1029 -0.3851  1.7781
18555TIP3   OH277079   2.029   5.747   5.830  0.8825  0.6924 -0.1580
18555TIP3    H177080   2.051   5.669   5.881 -0.2874 -0.6318 -1.6294
18555TIP3    H277081   2.025   5.817   5.895  0.6169 -0.7173  1.3952
18556TIP3   OH277082   5.302   4.436  14.138  0.5213 -0.3277 -0.3558
18556TIP3    H177083   5.368   4.409  14.201  0.4361  0.4329  0.0650
18556TIP3    H277084   5.325   4.527  14.116 -0.1343 -0.1935 -0.5201
18557TIP3   OH277085   0.664   3.567  15.687  0.0566  0.0085 -0.3730
18557TIP3    H177086   0.690   3.612  15.607  2.1541 -0.9160 -0.2540
18557TIP3    H277087   0.632   3.482  15.657 -0.2511  0.0982 -0.3029
18558TIP3   OH277088   1.963   0.268   3.190 -0.0843 -0.6669  0.3827
18558TIP3    H177089   1.879   0.280   3.147  0.6264 -0.4762 -0.9843
18558TIP3    H277090   1.966   0.175   3.212 -0.8886 -0.5609  0.9764
18559TIP3   OH277091   4.666   6.616  16.421  0.0588  0.9400 -0.0473
18559TIP3    H177092   4.728   6.610  16.348  1.8737 -0.4872  1.5761
18559TIP3    H277093   4.589   6.657  16.382  1.5646  1.6899 -2.3914
18560TIP3   OH277094   0.073   3.784  13.781 -0.2048  0.3577  0.4873
18560TIP3    H177095   0.163   3.753  13.786  0.3885  1.7372 -1.0532
18560TIP3    H277096   0.023   3.710  13.747  0.8154  0.4017 -1.1415
18561TIP3   OH277097   2.577   4.578   0.249 -0.3425 -0.7447 -0.5858
18561TIP3    H177098   2.524   4.524   0.190 -0.0566 -0.9883 -0.6152
18561TIP3    H277099   2.566   4.667   0.215 -0.5388 -0.8260 -0.7369
18562TIP3   OH277100   0.979   0.830  12.338 -0.6499  0.2288  0.6004
18562TIP3    H177101   0.972   0.837  12.243 -1.2245 -1.0156  0.5438
18562TIP3    H277102   0.888   0.824  12.368 -0.4366 -0.2868  1.1517
18563TIP3   OH277103   1.266   1.449  14.060 -0.0317  0.1903 -0.8126
18563TIP3    H177104   1.324   1.488  14.126  0.1393 -1.5231  0.0580
18563TIP3    H277105   1.316   1.455  13.978  0.8961 -0.2184 -0.2779
18564TIP3   OH277106   2.307   2.364   4.398  0.0237  0.6731  0.9133
18564TIP3    H177107   2.216   2.365   4.428 -0.8680 -1.4719 -1.5340
18564TIP3    H277108   2.349   2.435   4.446 -3.3724  2.9108  0.7528
18565TIP3   OH277109   0.619   1.770  11.453  0.2772 -0.0259  0.5908
18565TIP3    H177110   0.661   1.841  11.502  1.1200  0.4815 -0.8427
18565TIP3    H277111   0.542   1.809  11.413  0.2881 -0.1268  0.4695
18566TIP3   OH277112   0.923   5.386  17.227 -0.2986  0.1787  0.6246
18566TIP3    H177113   1.009   5.360  17.194 -0.1565  1.1877  0.1567
18566TIP3    H277114   0.884   5.306  17.261  0.6792 -0.3534  0.4911
18567TIP3   OH277115   0.982   5.923  10.978 -0.1073 -0.3814  0.3982
18567TIP3    H177116   0.975   5.857  11.047  0.8561 -0.6838  0.2174
18567TIP3    H277117   0.986   6.007  11.025  2.3444 -0.6956  0.8241
18568TIP3   OH277118   1.588   2.282   3.064  0.2848 -0.3113  0.1278
18568TIP3    H177119   1.525   2.353   3.061 -0.1433 -0.6280  1.2807
18568TIP3    H277120   1.549   2.212   3.012  0.1182 -0.1653  0.0590
18569TIP3   OH277121   0.532   6.199   0.984  0.1242  0.0380 -0.0730
18569TIP3    H177122   0.510   6.245   1.065  1.3818  0.4785  0.0328
18569TIP3    H277123   0.489   6.250   0.915 -0.0067  0.3124  0.2111
18570TIP3   OH277124   0.601   4.297  16.133 -0.3552 -0.3514 -0.1164
18570TIP3    H177125   0.520   4.263  16.169 -1.1652  0.8109 -0.8011
18570TIP3    H277126   0.609   4.256  16.047 -0.3988 -0.1915 -0.1962
18571TIP3   OH277127   4.918   0.201  14.758  0.1034 -0.3085  0.4412
18571TIP3    H177128   5.006   0.238  14.765  0.1631  0.1393 -2.3414
18571TIP3    H277129   4.931   0.107  14.771  0.8746 -0.1662  0.7502
18572TIP3   OH277130   0.211   2.107  15.634 -0.5533  0.0925  0.1045
18572TIP3    H177131   0.243   2.151  15.712  2.1852 -0.0017 -0.9078
18572TIP3    H277132   0.288   2.098  15.578 -2.0685 -1.5183 -1.8153
18573TIP3   OH277133   0.986   2.470   0.610 -0.2036  0.4555 -0.5920
18573TIP3    H177134   0.981   2.410   0.535 -0.1427  0.8135 -0.8849
18573TIP3    H277135   0.903   2.458   0.656 -0.1921  0.1461 -0.6496
18574TIP3   OH277136   2.215   3.930   3.193 -0.4135  0.1417 -0.2618
18574TIP3    H177137   2.282   3.967   3.251  0.5783  0.2397 -1.4449
18574TIP3    H277138   2.177   4.005   3.148  0.3897 -0.0913 -1.3740
18575TIP3   OH277139   2.387   6.697   0.468 -0.0446 -0.0712  0.1048
18575TIP3    H177140   2.330   6.741   0.405 -0.1609 -0.5339 -0.1078
18575TIP3    H277141   2.328   6.641   0.519 -0.5151  2.6526  2.7443
18576TIP3   OH277142   0.050   0.216   5.308 -0.6399 -0.8403  0.4571
18576TIP3    H177143   0.129   0.210   5.361 -1.6611 -1.1206  1.9747
18576TIP3    H277144   0.068   0.162   5.231  0.6082 -0.9646  0.8384
18577TIP3   OH277145   0.368   4.546  15.186  0.2412  0.3241 -0.4123
18577TIP3    H177146   0.313   4.619  15.216 -3.8504 -3.1074  1.0458
18577TIP3    H277147   0.310   4.495  15.128  2.9600 -1.8033 -1.3719
18578TIP3   OH277148   4.164   0.811  11.703  0.0438 -0.1609  0.1573
18578TIP3    H177149   4.099   0.754  11.662 -1.3338  0.4897  1.3770
18578TIP3    H277150   4.220   0.840  11.631 -0.9004 -0.9050 -0.8795
18579TIP3   OH277151   0.829   2.300  11.732  0.2951 -0.1009  0.5258
18579TIP3    H177152   0.842   2.262  11.645 -0.0661  0.9770 -0.0062
18579TIP3    H277153   0.815   2.393  11.716  3.2473  0.6570  1.9296
18580TIP3   OH277154   1.585   0.535  15.048  0.0061  0.0833  0.4622
18580TIP3    H177155   1.526   0.598  15.089 -1.6012 -1.3207  0.3660
18580TIP3    H277156   1.584   0.459  15.106 -0.7825 -1.1779 -1.1295
18581TIP3   OH277157   3.013   0.183   4.731 -0.0564 -0.5799 -0.4952
18581TIP3    H177158   2.976   0.251   4.675  2.3279 -0.3886 -1.9021
18581TIP3    H277159   3.026   0.108   4.673  1.3299 -0.7765  0.0355
18582TIP3   OH277160   0.935   1.847  14.337  0.3309  0.2249  0.1528
18582TIP3    H177161   0.940   1.794  14.416 -1.5167  0.6060  0.5535
18582TIP3    H277162   1.021   1.889  14.330  1.4385 -1.9401  0.4317
18583TIP3   OH277163   0.748   6.710   1.461 -0.1853  0.1346  0.3251
18583TIP3    H177164   0.825   6.659   1.483  0.7593  1.1912 -0.4845
18583TIP3    H277165   0.740   6.704   1.366  2.2556  4.6348 -0.3195
18584TIP3   OH277166   1.505   3.942   2.701  0.0223  0.3652 -0.2580
18584TIP3    H177167   1.457   3.871   2.743 -1.4971  0.8475 -1.1324
18584TIP3    H277168   1.531   4.000   2.773 -0.6226  0.0563  0.2253
18585TIP3   OH277169   5.540   4.348   1.248 -0.6802 -0.4504  0.7657
18585TIP3    H177170   5.535   4.257   1.275  0.8562 -0.4913  0.9315
18585TIP3    H277171   5.629   4.376   1.271 -1.2703  1.2106  1.1418
18586TIP3   OH277172   1.641   4.342   2.533 -0.2980 -0.2033 -0.0507
18586TIP3    H177173   1.595   4.264   2.501 -1.0445  0.3906 -0.4630
18586TIP3    H277174   1.639   4.403   2.459 -1.3840  0.9096  0.8721
18587TIP3   OH277175   3.309   0.649  14.417 -0.2408  0.6134 -0.2826
18587TIP3    H177176   3.384   0.642  14.476 -1.0758 -0.3565  0.6923
18587TIP3    H277177   3.347   0.661  14.330  1.0000  2.1361  0.4573
18588TIP3   OH277178   1.368   5.369  13.085  0.1491  0.0258  0.3656
18588TIP3    H177179   1.338   5.318  13.160 -1.0516  1.5580  0.9629
18588TIP3    H277180   1.460   5.388  13.103 -0.0076 -0.0162  1.2160
18589TIP3   OH277181   2.661   6.711  17.083 -0.3042  0.0746  0.7030
18589TIP3    H177182   2.724   6.663  17.029  0.7271  0.9664  1.0912
18589TIP3    H277183   2.715   6.764  17.142 -1.4072 -0.3017  2.1015
18590TIP3   OH277184   3.834   6.264   2.900  0.1071  0.1395 -0.2204
18590TIP3    H177185   3.843   6.353   2.935  0.8370  0.5427 -1.3745
18590TIP3    H277186   3.763   6.271   2.836 -2.1662 -0.9059  2.1153
18591TIP3   OH277187   4.758   3.598  16.484 -0.3362 -0.0052  0.0049
18591TIP3    H177188   4.831   3.658  16.469 -1.6026  1.7220  0.7473
18591TIP3    H277189   4.781   3.551  16.564  0.8510 -0.8343 -0.8039
18592TIP3   OH277190   6.357   4.693   3.987  0.3216  0.1380 -0.6498
18592TIP3    H177191   6.332   4.695   4.079  2.1268  0.8501 -0.1520
18592TIP3    H277192   6.290   4.745   3.943 -1.1517 -1.0957  0.0906
18593TIP3   OH277193   1.676   1.536   0.635  0.0309 -0.2935 -0.2052
18593TIP3    H177194   1.754   1.524   0.582 -0.1052 -0.3061 -0.4035
18593TIP3    H277195   1.673   1.631   0.652  0.9979 -0.4973  1.2000
18594TIP3   OH277196   2.727   6.159   1.959  0.1249 -0.4944  0.0439
18594TIP3    H177197   2.723   6.121   1.871  0.2575  0.3045 -0.3144
18594TIP3    H277198   2.766   6.090   2.013  3.2798  0.2144 -1.2151
18595TIP3   OH277199   5.524   6.621   6.147 -0.1915 -0.2566  0.3434
18595TIP3    H177200   5.457   6.553   6.154 -1.5754  0.9343 -0.9944
18595TIP3    H277201   5.590   6.596   6.212 -2.2651 -1.0641  2.2181
18596TIP3   OH277202   4.265   0.395   4.254 -0.0736 -0.1644  0.0917
18596TIP3    H177203   4.285   0.401   4.348  0.9403 -0.5360 -0.0946
18596TIP3    H277204   4.215   0.475   4.235  1.4835  0.9252  0.5141
18597TIP3   OH277205   2.631   3.316   1.617  0.0643  0.6031 -0.4691
18597TIP3    H177206   2.656   3.242   1.672  0.3698  1.5713  0.7069
18597TIP3    H277207   2.555   3.285   1.568  0.0495 -0.4093  0.1766
18598TIP3   OH277208   0.589   6.524   3.578 -0.1086  0.7103 -0.3159
18598TIP3    H177209   0.522   6.504   3.513  1.1554 -0.9034 -1.1844
18598TIP3    H277210   0.585   6.452   3.640  2.4579 -0.7698 -1.7722
18599TIP3   OH277211   5.369   3.844   3.992 -0.4884  0.0520  0.2457
18599TIP3    H177212   5.449   3.882   3.955 -0.4575 -1.1840 -1.0023
18599TIP3    H277213   5.316   3.820   3.916 -0.3682 -2.6733  0.9698
18600TIP3   OH277214   1.243   3.782  16.937 -0.3469 -0.2249 -0.2889
18600TIP3    H177215   1.156   3.790  16.899 -0.5266 -1.3268 -0.1323
18600TIP3    H277216   1.242   3.697  16.981  0.9705 -0.4802 -0.7235
18601TIP3   OH277217   2.597   0.224   1.359  0.1309  0.5561 -0.1054
18601TIP3    H177218   2.656   0.300   1.360  0.6757  0.1360  0.1303
18601TIP3    H277219   2.534   0.243   1.290  0.4417  1.0928 -0.2440
18602TIP3   OH277220   4.134   4.124  11.009 -0.5431 -0.5023  0.1529
18602TIP3    H177221   4.092   4.103  11.092  1.4655  0.1140  1.3596
18602TIP3    H277222   4.079   4.192  10.971 -1.5058 -0.8255  0.9489
18603TIP3   OH277223   1.722   4.855   0.461  0.4025 -0.5097 -0.8645
18603TIP3    H177224   1.769   4.809   0.391  0.7590  0.4962 -1.3104
18603TIP3    H277225   1.709   4.943   0.426 -2.2613 -0.9014 -0.9433
18604TIP3   OH277226   6.649   5.551   4.379  0.2984 -0.1540  0.2211
18604TIP3    H177227   6.680   5.520   4.294  1.4438 -1.2652  1.0353
18604TIP3    H277228   6.608   5.474   4.419 -0.5346  0.4512  0.5517
18605TIP3   OH277229   6.108   3.984  15.297  0.3465  0.1263  0.1867
18605TIP3    H177230   6.042   3.932  15.251 -0.9727 -0.5121  2.7009
18605TIP3    H277231   6.126   3.934  15.377  2.6693  1.1229  0.3271
18606TIP3   OH277232   0.616   4.813   3.751 -0.4895  0.0968 -0.2140
18606TIP3    H177233   0.675   4.761   3.805 -1.2172 -0.3942  0.1240
18606TIP3    H277234   0.607   4.763   3.670 -3.0033 -1.5398  0.9829
18607TIP3   OH277235   2.091   5.770  16.594  0.6917 -0.1832 -0.1392
18607TIP3    H177236   2.016   5.769  16.654 -0.5419 -0.3402 -1.6593
18607TIP3    H277237   2.167   5.774  16.651 -0.3366 -3.2133  1.5328
18608TIP3   OH277238   6.538   6.480   2.034  0.0118 -0.1282 -0.0071
18608TIP3    H177239   6.561   6.538   1.962 -1.7286 -0.3763 -0.7938
18608TIP3    H277240   6.442   6.478   2.034 -0.0349  0.1833  2.5600
18609TIP3   OH277241   2.175   1.418   0.388 -0.5575 -0.1410  0.5115
18609TIP3    H177242   2.264   1.450   0.377 -0.5007  0.2241  1.8663
18609TIP3    H277243   2.160   1.360   0.314  0.1453  1.2373 -0.7241
18610TIP3   OH277244   1.954   0.133   0.937 -0.4505  0.7035 -0.1942
18610TIP3    H177245   1.908   0.168   0.860 -3.2922  0.1443  1.1808
18610TIP3    H277246   1.955   0.207   0.999 -0.2773  0.4506  0.1030
18611TIP3   OH277247   0.727   3.476  15.988  0.7350 -0.3769 -0.5534
18611TIP3    H177248   0.814   3.437  15.979  0.8989 -0.1570  0.1026
18611TIP3    H277249   0.713   3.520  15.904  2.8428  2.7994  0.6477
18612TIP3   OH277250   4.723   6.454   4.605 -0.2506 -0.0706  0.1254
18612TIP3    H177251   4.709   6.544   4.634 -2.7115 -0.1939 -0.5910
18612TIP3    H277252   4.718   6.458   4.509 -2.0281 -1.2115  0.1522
18613TIP3   OH277253   5.533   0.416   5.459  0.5121 -0.1237 -0.1599
18613TIP3    H177254   5.460   0.430   5.399 -1.2467 -1.7360  1.5316
18613TIP3    H277255   5.563   0.504   5.482  0.0990  0.5228 -2.0612
18614TIP3   OH277256   2.860   2.868   0.896  0.1642 -0.0240  0.0515
18614TIP3    H177257   2.807   2.819   0.833  1.1610 -1.7218  0.5104
18614TIP3    H277258   2.796   2.916   0.949 -0.7926 -0.4011 -0.7517
18615TIP3   OH277259   3.647   5.393   0.417 -0.2277 -0.2932  0.3747
18615TIP3    H177260   3.568   5.410   0.366 -0.0201 -2.8406 -0.9044
18615TIP3    H277261   3.692   5.478   0.421 -0.1532 -0.0004 -3.9235
18616TIP3   OH277262   5.371   6.301   2.718  0.1182 -0.1598 -0.1292
18616TIP3    H177263   5.298   6.326   2.661  0.3917  2.6556  0.6981
18616TIP3    H277264   5.435   6.262   2.659  0.1125  2.1097 -1.6737
18617TIP3   OH277265   5.037   5.551   5.632  0.2012  0.7622  0.3100
18617TIP3    H177266   5.048   5.455   5.632 -1.6351  0.5387 -0.1411
18617TIP3    H277267   5.054   5.576   5.541 -0.6374  0.7044  0.1374
18618TIP3   OH277268   4.925   4.793  10.589  0.0012 -0.1528  0.1787
18618TIP3    H177269   4.913   4.858  10.658  0.9133 -1.8923  2.0212
18618TIP3    H277270   4.840   4.752  10.579  0.0616 -0.4171  0.7920
18619TIP3   OH277271   3.871   5.844   5.548  0.0717 -0.1915 -0.4244
18619TIP3    H177272   3.849   5.836   5.455  0.0265 -1.3854 -0.3174
18619TIP3    H277273   3.787   5.860   5.591  0.3224  2.4605 -0.7842
18620TIP3   OH277274   2.128   0.941  16.858  0.2981  0.5644  0.1425
18620TIP3    H177275   2.187   1.016  16.868  1.4527 -0.1635 -1.0138
18620TIP3    H277276   2.060   0.972  16.798  0.7057  0.7216 -0.2420
18621TIP3   OH277277   5.157   6.044  13.991 -0.0226 -0.3281  0.4821
18621TIP3    H177278   5.194   6.130  13.969 -0.3128 -0.6283 -1.2134
18621TIP3    H277279   5.110   6.059  14.073  1.0096  0.8302  0.8930
18622TIP3   OH277280   6.167   6.079  14.948  0.4769  0.8352  0.5456
18622TIP3    H177281   6.134   5.989  14.954 -0.4586  1.3883  5.7370
18622TIP3    H277282   6.257   6.069  14.917 -0.5525 -1.6349 -1.8455
18623TIP3   OH277283   0.150   0.348  10.789 -0.1023  0.3438  0.4963
18623TIP3    H177284   0.147   0.416  10.856 -1.1916  0.4859  0.3150
18623TIP3    H277285   0.105   0.387  10.714  0.9786  0.1319 -0.2662
18624TIP3   OH277286   2.621   5.818   4.376  0.5830 -0.9027 -0.2114
18624TIP3    H177287   2.571   5.795   4.298  0.7269 -1.8610 -0.0306
18624TIP3    H277288   2.655   5.734   4.408  0.0033 -0.6023  1.2203
18625TIP3   OH277289   4.883   2.576  15.343  0.3485  0.1846 -0.0606
18625TIP3    H177290   4.896   2.529  15.261  1.8439 -0.5140  0.5587
18625TIP3    H277291   4.803   2.627  15.329 -1.2300 -2.3535 -0.8375
18626TIP3   OH277292   2.218   0.946  14.129 -0.0763 -0.4336  0.2173
18626TIP3    H177293   2.276   0.976  14.059  1.0070  1.1629  1.7370
18626TIP3    H277294   2.256   0.862  14.156  1.2546  0.3421  0.8367
18627TIP3   OH277295   6.173   2.881  13.257 -0.0646 -0.4824  0.6950
18627TIP3    H177296   6.195   2.851  13.345 -1.9013  0.2471  1.4320
18627TIP3    H277297   6.090   2.837  13.237 -0.0172 -0.0919 -0.3911
18628TIP3   OH277298   4.577   5.842  16.680  0.1817 -0.7018 -0.0342
18628TIP3    H177299   4.491   5.868  16.713 -0.2963 -1.9752 -0.2717
18628TIP3    H277300   4.569   5.851  16.585  0.3103 -0.8459 -0.0582
18629TIP3   OH277301   5.484   0.727   5.955  0.0957 -0.0517  0.1250
18629TIP3    H177302   5.579   0.717   5.964  0.2603  1.2118  0.0248
18629TIP3    H277303   5.456   0.764   6.038 -0.4155 -1.0430  0.3969
18630TIP3   OH277304   6.508   1.906  10.874  0.2330 -0.2356 -0.0003
18630TIP3    H177305   6.480   1.970  10.809  0.0726 -0.2170  0.0864
18630TIP3    H277306   6.596   1.880  10.846  0.7857  0.9207  0.6413
18631TIP3   OH277307   4.216   2.929   0.885 -0.1923 -0.0425  0.0341
18631TIP3    H177308   4.239   2.919   0.793 -4.0149 -0.6892 -0.9523
18631TIP3    H277309   4.255   3.013   0.911  1.8246 -0.3778 -1.8603
18632TIP3   OH277310   2.615   6.082  12.481 -0.6460  0.4917 -0.9733
18632TIP3    H177311   2.688   6.053  12.426 -1.1381  0.6535 -1.7204
18632TIP3    H277312   2.538   6.043  12.441 -0.7798 -1.3018  0.9432
18633TIP3   OH277313   0.864   6.572  14.385  0.7339 -0.4032  0.1885
18633TIP3    H177314   0.852   6.520  14.305 -2.2466 -0.9773  0.9419
18633TIP3    H277315   0.883   6.506  14.453  1.5234 -0.0691  0.3002
18634TIP3   OH277316   1.109   5.737   5.072  0.1111  0.6625 -0.1452
18634TIP3    H177317   1.203   5.751   5.066  0.6612 -1.5696  2.5337
18634TIP3    H277318   1.078   5.808   5.129  0.3103  0.8512 -0.2731
18635TIP3   OH277319   0.834   5.806   2.017  0.2869 -0.2906 -0.4886
18635TIP3    H177320   0.791   5.721   2.012 -1.4062  0.6646 -3.0981
18635TIP3    H277321   0.781   5.856   2.080 -0.8411 -0.0103 -1.6482
18636TIP3   OH277322   5.302   0.993  14.520  0.1174  0.2738 -0.4313
18636TIP3    H177323   5.294   1.088  14.528  0.5990  0.1956  1.0576
18636TIP3    H277324   5.375   0.980  14.460  1.4976  0.8459  1.0944
18637TIP3   OH277325   2.471   6.659   1.195  0.1868 -0.4436  0.1311
18637TIP3    H177326   2.538   6.669   1.262  1.3051 -0.6995 -0.9196
18637TIP3    H277327   2.428   6.576   1.214  0.5370 -0.5396  0.4957
18638TIP3   OH277328   4.681   3.088  10.681  0.1514 -0.4941 -0.2130
18638TIP3    H177329   4.715   3.178  10.681  1.1077 -0.8474  0.6862
18638TIP3    H277330   4.586   3.098  10.684  0.2345  0.4914 -0.7156
18639TIP3   OH277331   2.951   2.809  15.330  0.6610 -0.4652 -0.5040
18639TIP3    H177332   2.875   2.788  15.276 -0.2460  0.8481  0.2084
18639TIP3    H277333   2.920   2.880  15.386  2.2122 -0.4082  0.2900
18640TIP3   OH277334   4.472   6.765   0.192 -0.4407  0.3119  0.1796
18640TIP3    H177335   4.449   6.673   0.207 -0.6697  0.1355 -1.2151
18640TIP3    H277336   4.558   6.761   0.151  0.0153  0.7759  1.0772
18641TIP3   OH277337   2.905   0.123  11.929  0.3458 -0.0698 -0.1852
18641TIP3    H177338   2.898   0.105  12.023  0.0807  0.1701 -0.1619
18641TIP3    H277339   2.970   0.060  11.898  1.5410  0.8471  0.4356
18642TIP3   OH277340   4.937   4.633   0.164 -0.3339 -0.5375 -0.3593
18642TIP3    H177341   4.968   4.576   0.094 -1.0890 -1.1036 -0.2449
18642TIP3    H277342   5.016   4.669   0.203  0.1084 -0.6597 -1.1351
18643TIP3   OH277343   4.949   0.930  16.198  0.4742  0.0328 -0.0141
18643TIP3    H177344   5.012   0.973  16.256 -0.5413 -0.6586  1.6399
18643TIP3    H277345   4.878   0.993  16.188 -0.5154 -0.7873  1.5506
18644TIP3   OH277346   1.861   4.865   1.991  0.2899  0.8597 -0.4215
18644TIP3    H177347   1.792   4.812   1.952  2.5413 -0.9351 -2.1452
18644TIP3    H277348   1.823   4.952   2.000 -2.0639 -0.0153 -1.5960
18645TIP3   OH277349   0.886   4.148   0.319 -0.3829 -0.2297  0.0412
18645TIP3    H177350   0.810   4.154   0.261  0.9270  0.2601 -1.6731
18645TIP3    H277351   0.939   4.225   0.297 -0.4282  0.6120  2.7530
18646TIP3   OH277352   5.315   2.902  15.475  0.2721 -0.9142 -0.2070
18646TIP3    H177353   5.271   2.856  15.547 -0.1631  1.4979  1.1319
18646TIP3    H277354   5.257   2.975  15.454  2.3842  0.8460 -0.1303
18647TIP3   OH277355   1.817   3.001   2.733  0.1731 -0.0513  0.0994
18647TIP3    H177356   1.861   2.971   2.813  0.3672 -0.9531 -0.3470
18647TIP3    H277357   1.783   2.921   2.693 -0.0169  0.4160 -0.6735
18648TIP3   OH277358   2.147   6.516   2.574 -0.5795  0.1487 -0.0515
18648TIP3    H177359   2.170   6.443   2.632 -0.6849  1.0813  1.1799
18648TIP3    H277360   2.053   6.509   2.563 -0.6791  0.4580  0.5718
18649TIP3   OH277361   5.867   4.931  12.821  0.5169  0.8578  0.3769
18649TIP3    H177362   5.776   4.944  12.797  0.6847  2.4140  0.4948
18649TIP3    H277363   5.867   4.857  12.882 -0.6134  0.6483  0.1174
18650TIP3   OH277364   2.947   3.244   3.439 -0.0060 -0.2019  0.3315
18650TIP3    H177365   2.910   3.158   3.456 -0.7277  0.2707  1.2012
18650TIP3    H277366   3.034   3.242   3.479  0.6382 -1.0775 -1.0977
18651TIP3   OH277367   5.516   4.194   6.039 -0.1444 -0.0934 -0.4198
18651TIP3    H177368   5.603   4.169   6.069  0.2904  2.9265  0.9260
18651TIP3    H277369   5.461   4.190   6.117 -0.2431  2.2408 -0.3323
18652TIP3   OH277370   5.011   0.467   3.961 -0.0394 -0.0839 -0.1938
18652TIP3    H177371   5.069   0.404   3.917 -1.6771 -1.5344 -0.3146
18652TIP3    H277372   5.005   0.540   3.900  1.4715 -0.0069 -0.2838
18653TIP3   OH277373   1.450   1.304   1.219  0.5746 -0.2109 -0.8377
18653TIP3    H177374   1.458   1.211   1.240  1.6131  0.1007  0.1510
18653TIP3    H277375   1.438   1.306   1.124  2.8672 -1.2081 -1.1615
18654TIP3   OH277376   6.753   4.636   0.761  0.6321 -0.8381  0.3636
18654TIP3    H177377   6.735   4.600   0.674 -2.1194 -1.7127  1.2394
18654TIP3    H277378   6.672   4.679   0.787  2.3496  1.9424  1.3576
18655TIP3   OH277379   5.824   3.623   0.568 -0.4658  0.7142  0.3026
18655TIP3    H177380   5.895   3.614   0.632  0.7908  0.9185 -1.0180
18655TIP3    H277381   5.861   3.587   0.487 -2.8681 -1.7559  0.2501
18656TIP3   OH277382   3.301   5.372  12.620 -0.2876 -0.0836  0.2302
18656TIP3    H177383   3.252   5.418  12.552 -1.7525  0.4712  1.6014
18656TIP3    H277384   3.256   5.288  12.629  1.3321 -1.1293 -1.0708
18657TIP3   OH277385   5.851   2.515  11.504  0.1728  0.0458 -0.2924
18657TIP3    H177386   5.774   2.572  11.500 -0.8502 -1.0732  2.2381
18657TIP3    H277387   5.815   2.427  11.498  1.3213 -0.4649  0.3205
18658TIP3   OH277388   2.074   4.559   1.973 -0.3857 -0.1649 -0.2261
18658TIP3    H177389   2.067   4.635   2.031 -0.0807 -1.0306  0.9443
18658TIP3    H277390   2.133   4.587   1.903  0.2115  0.4603  0.5320
18659TIP3   OH277391   5.466   1.510   2.898 -0.0558  0.3186 -0.2366
18659TIP3    H177392   5.541   1.453   2.883  0.8638  1.4112  0.1495
18659TIP3    H277393   5.393   1.466   2.854  1.4709  0.8838 -3.4804
18660TIP3   OH277394   6.287   1.043  10.994 -0.0134 -0.0755 -0.1665
18660TIP3    H177395   6.272   1.130  10.956  2.1269  0.1327 -0.5955
18660TIP3    H277396   6.306   0.987  10.919  1.3837 -0.2944  0.3407
18661TIP3   OH277397   5.763   5.885   0.605  0.1169 -0.0825  0.4048
18661TIP3    H177398   5.702   5.847   0.543  0.5796 -1.4271  0.7552
18661TIP3    H277399   5.730   5.857   0.691  0.9962 -0.5001  0.6132
18662TIP3   OH277400   1.038   1.263   3.472 -0.2769  0.7302 -0.4518
18662TIP3    H177401   0.982   1.324   3.520  0.4528  0.9028  0.2033
18662TIP3    H277402   0.993   1.178   3.479  0.2710  0.5674  1.3377
18663TIP3   OH277403   3.198   6.516  15.904  0.0333 -0.1367 -0.3080
18663TIP3    H177404   3.229   6.589  15.850  0.4182 -0.2921 -0.3003
18663TIP3    H277405   3.128   6.553  15.957  0.9427  0.4906  0.4650
18664TIP3   OH277406   2.129   3.877   0.732 -0.3961 -0.4402  0.1936
18664TIP3    H177407   2.085   3.939   0.674  0.7692  1.0550  0.8552
18664TIP3    H277408   2.217   3.912   0.742 -0.1710 -1.3912  1.7989
18665TIP3   OH277409   0.997   0.974   2.116  0.0947 -0.0841 -0.7120
18665TIP3    H177410   1.052   0.902   2.087  0.0929  0.0225 -0.9774
18665TIP3    H277411   1.035   1.052   2.076  1.0090  0.2696  0.7999
18666TIP3   OH277412   4.445   0.430  12.821 -0.3512 -0.4829 -0.2109
18666TIP3    H177413   4.488   0.344  12.818 -1.3077 -1.0242  1.2355
18666TIP3    H277414   4.477   0.470  12.902 -0.2813  0.3461 -0.6380
18667TIP3   OH277415   0.714   0.860   0.532 -0.3634 -0.0560  0.5373
18667TIP3    H177416   0.698   0.859   0.438  0.1548  1.4957  0.4245
18667TIP3    H277417   0.629   0.878   0.571 -0.2218  1.2677  0.2611
18668TIP3   OH277418   2.604   0.163  16.970 -0.0430  0.6048 -0.6141
18668TIP3    H177419   2.623   0.176  16.877 -1.4397  1.2649 -0.8181
18668TIP3    H277420   2.652   0.083  16.993  0.9422  0.8550 -1.7000
18669TIP3   OH277421   3.636   6.325  11.650 -0.4722  0.0560  0.0830
18669TIP3    H177422   3.653   6.290  11.563  0.1452 -0.2735  0.3319
18669TIP3    H277423   3.685   6.406  11.654 -0.3071 -0.0500  0.2108
18670TIP3   OH277424   3.048   2.911   3.676  0.0301  0.0189  0.0991
18670TIP3    H177425   3.078   2.820   3.672  0.5668  0.2465 -1.3108
18670TIP3    H277426   3.063   2.945   3.588 -2.3219  0.7943 -0.0372
18671TIP3   OH277427   6.651   5.729  12.483  0.0211 -0.1328  0.3403
18671TIP3    H177428   6.729   5.784  12.480  0.7568 -1.2037 -0.1901
18671TIP3    H277429   6.645   5.699  12.574  0.9904 -1.1426  0.0757
18672TIP3   OH277430   6.163   1.289  15.209 -0.1087  0.1122 -0.0642
18672TIP3    H177431   6.232   1.264  15.148 -1.6869  1.6396 -2.5792
18672TIP3    H277432   6.113   1.209  15.224 -0.3426 -0.0680 -1.6812
18673TIP3   OH277433   2.847   6.633   1.502 -0.1733  0.0695 -0.1398
18673TIP3    H177434   2.760   6.663   1.476 -0.1762  0.1538 -0.0293
18673TIP3    H277435   2.836   6.539   1.516  0.1862 -0.2665 -1.9971
18674TIP3   OH277436   4.790   2.143   2.029 -0.3484 -0.0082 -0.2563
18674TIP3    H177437   4.807   2.050   2.039  1.2094  0.2663 -0.2853
18674TIP3    H277438   4.776   2.156   1.935 -0.2468 -0.1592 -0.2909
18675TIP3   OH277439   2.046   3.489   0.977 -0.3007 -0.5775  0.6550
18675TIP3    H177440   1.962   3.524   0.948 -0.6398 -0.9367  1.1746
18675TIP3    H277441   2.104   3.565   0.982 -0.3877 -0.4410 -0.4228
18676TIP3   OH277442   6.176   2.230  16.530 -0.2911  0.4057  0.0362
18676TIP3    H177443   6.176   2.315  16.486  2.8869  0.1755 -0.5003
18676TIP3    H277444   6.192   2.250  16.622  2.6803  0.2959 -0.4182
18677TIP3   OH277445   5.005   4.910  13.331 -0.2877 -0.1936 -0.4409
18677TIP3    H177446   5.063   4.983  13.350  0.3352 -1.0659  1.1115
18677TIP3    H277447   4.965   4.889  13.415 -0.8923 -1.2767 -0.9859
18678TIP3   OH277448   6.646   4.471   3.281 -0.0596  0.2806  0.0909
18678TIP3    H177449   6.667   4.498   3.192  0.5642  0.1823  0.2018
18678TIP3    H277450   6.551   4.466   3.283 -0.0414 -0.8966 -0.9333
18679TIP3   OH277451   3.798   1.777   0.668  0.6383 -0.1846  0.1817
18679TIP3    H177452   3.887   1.797   0.698  0.2886  3.0015 -0.7203
18679TIP3    H277453   3.776   1.849   0.609 -2.2172 -1.4085 -0.3146
18680TIP3   OH277454   4.687   0.733  13.016  0.3159 -0.2106  0.0025
18680TIP3    H177455   4.710   0.756  13.106 -1.6934 -1.8430  0.9700
18680TIP3    H277456   4.708   0.639  13.009  0.3949 -0.1094 -1.1995
18681TIP3   OH277457   3.189   3.996  15.162  0.1267 -0.2583  0.3769
18681TIP3    H177458   3.187   4.074  15.106 -1.2220  0.3293  1.2159
18681TIP3    H277459   3.265   3.947  15.131  1.3572  1.6672  0.2197
18682TIP3   OH277460   1.847   1.563   1.647 -0.4763 -0.5421  0.2231
18682TIP3    H177461   1.779   1.611   1.599  0.2412 -0.3067 -0.5644
18682TIP3    H277462   1.809   1.477   1.662 -0.6627 -0.6633 -0.8866
18683TIP3   OH277463   5.484   1.969  16.732 -0.2200  0.2556  0.0437
18683TIP3    H177464   5.430   1.966  16.811  0.7107  1.5310  0.7503
18683TIP3    H277465   5.519   1.880  16.724 -3.4679 -0.9704 -1.2226
18684TIP3   OH277466   4.712   2.333   0.106  0.5265  0.1950 -0.4464
18684TIP3    H177467   4.760   2.415   0.092  0.0037  0.9092  1.7177
18684TIP3    H277468   4.648   2.330   0.035 -0.4620  2.4476  0.3077
18685TIP3   OH277469   1.817   1.770   0.126  0.1196 -0.0404 -0.1950
18685TIP3    H177470   1.895   1.716   0.137 -1.2342 -1.6922  1.6126
18685TIP3    H277471   1.762   1.720   0.065 -0.7387 -0.2754  0.7591
18686TIP3   OH277472   2.849   1.618  11.170  0.3615  0.3759  0.7527
18686TIP3    H177473   2.847   1.530  11.133 -0.6038  0.1565  1.3071
18686TIP3    H277474   2.921   1.662  11.124 -1.2781  0.3679 -1.9815
18687TIP3   OH277475   2.378   4.567   2.106  0.6652  0.2949 -0.2078
18687TIP3    H177476   2.352   4.497   2.165  2.3856 -1.2387 -1.2119
18687TIP3    H277477   2.358   4.648   2.153 -0.0253 -0.8738  1.5364
18688TIP3   OH277478   5.834   6.607  16.764 -0.2318 -0.0036 -0.4415
18688TIP3    H177479   5.870   6.531  16.719  1.0181 -0.5830  1.4803
18688TIP3    H277480   5.883   6.681  16.728 -0.4825 -0.2591 -1.3159
18689TIP3   OH277481   4.916   5.891   2.810 -0.2619 -0.0009  0.1733
18689TIP3    H177482   4.950   5.886   2.900  1.4420  0.6641 -0.4171
18689TIP3    H277483   4.838   5.947   2.818  0.0633  0.3258  1.1818
18690TIP3   OH277484   0.084   2.623  15.498  0.1818 -0.1924 -0.0262
18690TIP3    H177485   0.159   2.579  15.459  0.2034  0.0014 -0.2041
18690TIP3    H277486   0.034   2.553  15.541 -0.8557 -0.6829 -1.9985
18691TIP3   OH277487   2.373   3.790   5.309  0.2467  0.3348 -0.7167
18691TIP3    H177488   2.446   3.742   5.271 -0.2834  2.3750 -4.4926
18691TIP3    H277489   2.296   3.736   5.291  0.0537  1.0901 -2.1979
18692TIP3   OH277490   4.630   2.365   1.200  0.7610  0.5953 -0.1842
18692TIP3    H177491   4.643   2.290   1.258  0.3316  1.6739  1.3349
18692TIP3    H277492   4.538   2.363   1.176  0.6046  1.0024  0.3766
18693TIP3   OH277493   2.589   3.247   5.963 -0.3832 -0.1779  0.4999
18693TIP3    H177494   2.609   3.230   6.055 -2.5557 -0.4763  0.9672
18693TIP3    H277495   2.494   3.235   5.958 -0.4459  1.0536 -1.5211
18694TIP3   OH277496   0.373   6.418  13.572 -1.0049 -0.1404  0.4899
18694TIP3    H177497   0.465   6.416  13.547 -0.8940 -1.3301  0.9875
18694TIP3    H277498   0.362   6.502  13.617 -0.0122 -0.2785  1.0029
18695TIP3   OH277499   5.609   5.839   0.919 -0.2792 -0.2096  0.7760
18695TIP3    H177500   5.644   5.791   0.993 -1.3591 -1.3166  0.5789
18695TIP3    H277501   5.606   5.930   0.949 -0.5882 -0.6272  2.0351
18696TIP3   OH277502   6.079   1.249   3.445 -0.5188 -0.2864  0.6363
18696TIP3    H177503   5.989   1.252   3.479 -0.8207  2.1347 -0.2908
18696TIP3    H277504   6.103   1.156   3.451 -2.6016 -0.7831  2.0962
18697TIP3   OH277505   0.393   1.397  11.048 -0.4848 -0.0960  0.3149
18697TIP3    H177506   0.386   1.413  10.954 -1.9635 -0.2815  0.3781
18697TIP3    H277507   0.487   1.389  11.064 -0.3044 -1.6489 -1.3954
18698TIP3   OH277508   6.382   1.963   3.666  0.3485  0.6778 -0.3848
18698TIP3    H177509   6.444   1.899   3.697 -0.8032 -0.6594 -0.7766
18698TIP3    H277510   6.343   1.923   3.587 -1.2552  1.3050  0.0576
18699TIP3   OH277511   1.723   1.514  15.402 -0.3735 -0.2476  0.3746
18699TIP3    H177512   1.766   1.547  15.323 -0.1821  1.3726  1.1345
18699TIP3    H277513   1.688   1.592  15.445  0.3964 -0.9858  2.4082
18700TIP3   OH277514   0.655   4.064   2.996 -0.2309  1.0122 -0.3674
18700TIP3    H177515   0.648   4.024   3.083  0.2016 -0.0400 -0.8033
18700TIP3    H277516   0.690   3.994   2.941 -0.5064  1.6735 -1.3890
18701TIP3   OH277517   1.591   2.915   3.287 -0.2727 -0.1473  0.3910
18701TIP3    H177518   1.682   2.930   3.260 -0.4738  0.5081  0.0439
18701TIP3    H277519   1.543   2.991   3.251 -1.0439 -0.7601  0.1117
18702TIP3   OH277520   4.746   4.510   1.226 -0.1589 -1.1324  0.2829
18702TIP3    H177521   4.790   4.432   1.260  1.4258 -0.0013  0.9591
18702TIP3    H277522   4.680   4.531   1.292 -1.8794 -2.9753 -0.8418
18703TIP3   OH277523   0.114   4.463   0.913  0.2454 -0.2546 -0.1607
18703TIP3    H177524   0.054   4.399   0.953 -1.3045  1.1403 -0.2156
18703TIP3    H277525   0.058   4.518   0.859  1.6791  0.7057 -0.7064
18704TIP3   OH277526   4.430   4.702   6.608 -0.0842  0.2887  0.0312
18704TIP3    H177527   4.335   4.696   6.619  0.2267 -2.0106  1.7483
18704TIP3    H277528   4.461   4.612   6.618  2.4436  1.2452  1.1217
18705TIP3   OH277529   3.187   6.415   0.397  0.4136  0.2826  0.6386
18705TIP3    H177530   3.184   6.483   0.464  0.7243 -0.8169  1.7857
18705TIP3    H277531   3.271   6.372   0.410  0.6068  0.2576 -0.6552
18706TIP3   OH277532   5.988   2.294  15.044 -0.0247 -0.2780  0.5349
18706TIP3    H177533   5.905   2.334  15.071  0.1239  0.5810 -0.2550
18706TIP3    H277534   6.004   2.330  14.956  3.0088  2.3877  2.1075
18707TIP3   OH277535   5.999   2.177  16.977  0.2560 -0.3271 -1.0980
18707TIP3    H177536   5.919   2.152  16.931  0.3717 -1.6790 -0.5805
18707TIP3    H277537   6.057   2.101  16.968  0.8668  0.0044 -0.0754
18708TIP3   OH277538   4.852   2.577  13.238  0.2308  0.3657 -0.1203
18708TIP3    H177539   4.923   2.572  13.301 -1.7176 -3.2780  1.9724
18708TIP3    H277540   4.799   2.651  13.266 -0.1671 -0.7318  2.1162
18709TIP3   OH277541   4.237   3.089  12.431 -0.3821  0.1879 -0.6295
18709TIP3    H177542   4.248   2.995  12.443 -1.9519  0.0051 -0.4504
18709TIP3    H277543   4.254   3.103  12.338 -0.2720 -0.2988 -0.6842
18710TIP3   OH277544   5.213   1.105  13.356  0.7581  0.8108 -0.7807
18710TIP3    H177545   5.125   1.075  13.377  1.2758 -0.9453 -0.9773
18710TIP3    H277546   5.210   1.123  13.262  0.6618  0.5677 -0.8253
18711TIP3   OH277547   4.597   3.614   6.587  0.9024  0.6878  0.3026
18711TIP3    H177548   4.664   3.555   6.621 -0.6780 -0.7267  1.0526
18711TIP3    H277549   4.598   3.599   6.493  0.6479 -0.4184  0.4654
18712TIP3   OH277550   4.232   0.686  12.546  0.2996 -0.3211  0.2973
18712TIP3    H177551   4.314   0.706  12.502  0.9674 -0.5544  1.4275
18712TIP3    H277552   4.169   0.672  12.475  0.8284  1.5461 -0.5606
18713TIP3   OH277553   3.031   2.037   1.047  0.4066  0.2558 -0.0587
18713TIP3    H177554   2.949   1.988   1.048 -0.1564  1.1972  2.2223
18713TIP3    H277555   3.007   2.125   1.019  0.7265  0.4175  0.1698
18714TIP3   OH277556   6.194   4.680  12.075 -0.2638  0.2659  0.3543
18714TIP3    H177557   6.158   4.592  12.088  0.3195  0.1793  1.4550
18714TIP3    H277558   6.287   4.665  12.055 -0.3852  0.5837 -0.4536
18715TIP3   OH277559   3.631   3.232  11.994  0.2974  0.2739 -0.1660
18715TIP3    H177560   3.594   3.192  12.073  1.0134  0.9770  0.5432
18715TIP3    H277561   3.718   3.194  11.987  0.0189 -0.2319 -0.9671
18716TIP3   OH277562   3.700   0.971   5.516 -0.5155  0.3679 -0.0817
18716TIP3    H177563   3.662   0.959   5.429 -0.0972  1.6610 -0.4579
18716TIP3    H277564   3.638   1.028   5.562  0.0214  0.9416 -0.0613
18717TIP3   OH277565   2.536   1.175   2.299  0.6816 -0.0998 -0.4408
18717TIP3    H177566   2.506   1.085   2.311 -1.0030  0.5184  0.1066
18717TIP3    H277567   2.489   1.206   2.222 -1.3986  1.3946  1.3511
18718TIP3   OH277568   1.520   1.149  13.544  0.9511 -0.5399 -0.0111
18718TIP3    H177569   1.428   1.153  13.519  0.6715  0.6869  1.2064
18718TIP3    H277570   1.527   1.072  13.600  0.6734 -0.6450 -0.1227
18719TIP3   OH277571   3.697   2.346  16.008  0.2915 -0.1947 -0.6829
18719TIP3    H177572   3.766   2.341  15.943  0.5535  0.8391 -0.4889
18719TIP3    H277573   3.738   2.317  16.089  0.6994  1.0639 -0.4231
18720TIP3   OH277574   1.093   5.204  12.455 -0.5201  0.2947 -0.0635
18720TIP3    H177575   1.013   5.227  12.408 -0.3588 -0.6254 -0.8019
18720TIP3    H277576   1.094   5.108  12.454  2.1474  0.3020 -2.6824
18721TIP3   OH277577   2.806   5.315  15.184  0.6281  0.2709 -0.5480
18721TIP3    H177578   2.875   5.271  15.134  0.5966  1.9491 -2.1323
18721TIP3    H277579   2.852   5.381  15.236  0.2562  1.4624 -1.6819
18722TIP3   OH277580   2.771   3.195   3.096 -0.2364  0.3182 -0.4811
18722TIP3    H177581   2.768   3.291   3.102  1.0282  0.2194  2.2638
18722TIP3    H277582   2.682   3.166   3.116 -0.1926  0.8431  0.4878
18723TIP3   OH277583   3.845   3.954  14.780 -0.5603 -0.4279 -0.2062
18723TIP3    H177584   3.855   3.939  14.686 -0.6061  0.4634 -0.3546
18723TIP3    H277585   3.818   3.869  14.814 -0.9920 -0.6419 -1.0629
18724TIP3   OH277586   6.442   1.257  12.967  0.4314  0.6158 -0.0349
18724TIP3    H177587   6.496   1.198  12.915  0.2472  0.0159  0.4547
18724TIP3    H277588   6.363   1.208  12.986  0.7291  0.6132  1.2939
18725TIP3   OH277589   2.988   5.290  13.884  0.1423 -0.1132  0.2232
18725TIP3    H177590   2.977   5.359  13.949  2.0393  0.2352  0.2052
18725TIP3    H277591   2.985   5.209  13.936 -0.0708  0.0719  0.5043
18726TIP3   OH277592   4.744   5.796   4.529  0.2331  0.6262  0.0526
18726TIP3    H177593   4.713   5.714   4.567  1.9324 -0.1496 -0.1656
18726TIP3    H277594   4.722   5.863   4.594 -1.9602  0.1456 -0.1588
18727TIP3   OH277595   2.452   4.794   2.756  1.0916 -0.6709 -0.0504
18727TIP3    H177596   2.517   4.724   2.764  1.3943 -0.2910  0.9194
18727TIP3    H277597   2.367   4.749   2.759  1.2850 -1.0032  0.5679
18728TIP3   OH277598   0.926   3.801   5.448 -0.1564  0.3795  0.3102
18728TIP3    H177599   0.941   3.839   5.535  0.3901  0.3452  0.2338
18728TIP3    H277600   0.831   3.792   5.442 -0.1368 -0.5915  1.3263
18729TIP3   OH277601   3.495   4.723   1.681  0.4328 -0.0631  0.1046
18729TIP3    H177602   3.570   4.775   1.708 -0.0930  1.8141 -1.9057
18729TIP3    H277603   3.515   4.695   1.592 -1.5150  1.0682 -0.7265
18730TIP3   OH277604   1.372   5.155   5.370 -0.8668  0.5008  0.1271
18730TIP3    H177605   1.331   5.110   5.444 -0.3682  0.8290  0.6029
18730TIP3    H277606   1.448   5.200   5.407 -1.9401  2.6214 -0.1188
18731TIP3   OH277607   3.273   5.732  12.926  0.5489  0.2567  0.1986
18731TIP3    H177608   3.180   5.723  12.910  0.5544  1.4296 -0.5630
18731TIP3    H277609   3.313   5.656  12.883  0.0535  0.4339 -0.5824
18732TIP3   OH277610   5.716   0.902  13.390  0.2747 -0.0860  0.4645
18732TIP3    H177611   5.787   0.963  13.370  0.5489 -0.6257 -0.2150
18732TIP3    H277612   5.673   0.940  13.467  1.8340 -0.1883  1.4200
18733TIP3   OH277613   4.645   3.117   3.063  0.2964  0.4177 -0.3560
18733TIP3    H177614   4.730   3.136   3.024  0.4993 -0.8519 -0.5489
18733TIP3    H277615   4.614   3.038   3.017  0.8828 -1.5638  2.5330
18734TIP3   OH277616   2.171   3.775   6.271 -0.2320  0.1703 -0.4855
18734TIP3    H177617   2.223   3.801   6.347  0.2673 -0.1156 -0.7308
18734TIP3    H277618   2.157   3.856   6.222  0.8534  0.0754 -0.9585
18735TIP3   OH277619   1.085   3.622   6.037 -0.2627 -0.2516 -0.1739
18735TIP3    H177620   1.136   3.563   5.982  1.7990  0.2604  1.1032
18735TIP3    H277621   1.111   3.600   6.127  0.6729  2.6004  0.3369
18736TIP3   OH277622   0.116   0.337  16.385 -0.2017 -0.0353  0.5343
18736TIP3    H177623   0.070   0.385  16.454  1.6046  1.5652  0.6662
18736TIP3    H277624   0.205   0.327  16.418  0.0688 -1.4003 -0.5479
18737TIP3   OH277625   0.981   5.587   2.222 -0.3233  0.9541  0.2461
18737TIP3    H177626   1.016   5.640   2.294  0.3297  0.2459  0.4633
18737TIP3    H277627   0.927   5.648   2.171  0.7182  1.9290  0.2723
18738TIP3   OH277628   3.918   3.267   0.598 -0.4303 -0.4223 -0.6364
18738TIP3    H177629   4.009   3.293   0.591 -0.3310 -0.3021  1.0095
18738TIP3    H277630   3.918   3.173   0.581  0.0499 -0.5005 -0.1881
18739TIP3   OH277631   5.760   3.013  10.839  0.5657  0.6458 -0.0606
18739TIP3    H177632   5.725   3.052  10.759 -4.2320  0.6439  1.8937
18739TIP3    H277633   5.717   2.928  10.845  0.4722  0.8651  2.7866
18740TIP3   OH277634   1.984   6.648   1.029  0.3279 -0.1961 -0.1199
18740TIP3    H177635   1.948   6.599   0.955 -2.9049  0.6187  0.8147
18740TIP3    H277636   1.964   6.739   1.010 -0.2939  0.0482  1.5748
18741TIP3   OH277637   2.323   3.666   0.931 -0.2746  0.2037 -0.3553
18741TIP3    H177638   2.391   3.659   0.865 -1.0856 -0.8092 -1.1175
18741TIP3    H277639   2.319   3.759   0.953  1.7131  0.1914  0.1052
18742TIP3   OH277640   0.190   0.963  11.368 -0.2808 -0.3405 -0.0964
18742TIP3    H177641   0.117   1.022  11.351  0.8678  1.0465 -0.2718
18742TIP3    H277642   0.197   0.910  11.288  0.0556  0.7767 -0.8218
18743TIP3   OH277643   1.602   0.590   2.969  0.4028  0.4230  0.0618
18743TIP3    H177644   1.578   0.653   2.901 -0.1583  1.6262  1.3544
18743TIP3    H277645   1.691   0.615   2.993 -0.4026  1.7818  1.7203
18744TIP3   OH277646   3.291   2.643  13.465  0.4845 -0.4487 -0.3443
18744TIP3    H177647   3.292   2.591  13.545  1.2489  0.9809  0.5934
18744TIP3    H277648   3.380   2.638  13.432  0.3583 -0.4110 -0.6915
18745TIP3   OH277649   2.583   6.364   1.010 -0.4678  0.5519 -0.3456
18745TIP3    H177650   2.657   6.392   1.064 -0.2313 -0.3038 -0.2025
18745TIP3    H277651   2.506   6.398   1.055 -0.2147  0.6315  0.0311
18746TIP3   OH277652   2.468   0.902   4.457 -0.5215  0.8171 -0.3612
18746TIP3    H177653   2.449   0.830   4.518 -1.1664  1.2137 -0.0914
18746TIP3    H277654   2.422   0.879   4.377  1.0122 -0.1267 -1.0040
18747TIP3   OH277655   3.896   0.769   2.206  0.7348  0.6151 -0.5326
18747TIP3    H177656   3.974   0.774   2.261  1.5364 -1.2965 -1.4691
18747TIP3    H277657   3.823   0.776   2.268  1.6282  1.4043  0.4560
18748TIP3   OH277658   0.739   1.679   0.034  0.4175  0.1445  0.0668
18748TIP3    H177659   0.705   1.730   0.108  2.6535 -0.3839  1.4971
18748TIP3    H277660   0.717   1.731  -0.043 -4.1404 -0.4101  0.7954
18749TIP3   OH277661   0.619   5.706   4.660  0.1805 -0.1475 -0.6886
18749TIP3    H177662   0.537   5.667   4.630 -1.0329  0.2938  1.9528
18749TIP3    H277663   0.682   5.634   4.660 -0.6602 -0.8888 -1.0103
18750TIP3   OH277664   4.217   0.385  12.329  0.7166  0.3293  0.0011
18750TIP3    H177665   4.292   0.372  12.387  0.2980 -0.3622  0.3903
18750TIP3    H277666   4.256   0.397  12.242  1.2813  0.0747  0.2164
18751TIP3   OH277667   1.124   6.230  13.776  0.4766 -0.2761  0.0732
18751TIP3    H177668   1.206   6.238  13.825  0.1067 -3.5675  1.3796
18751TIP3    H277669   1.146   6.176  13.700 -0.1482  0.1341 -0.4030
18752TIP3   OH277670   4.539   1.505   2.243 -0.6472 -0.0878  0.3374
18752TIP3    H177671   4.460   1.484   2.194  0.0379  2.2913 -1.8916
18752TIP3    H277672   4.591   1.559   2.184  1.3914  0.7354  2.7686
18753TIP3   OH277673   4.100   3.883  11.301  0.1196  0.1770 -0.5160
18753TIP3    H177674   4.094   3.979  11.299  0.2476  0.1980  0.0187
18753TIP3    H277675   4.142   3.860  11.218  1.8063  0.7229  0.1687
18754TIP3   OH277676   4.391   4.499  11.768 -0.2023  0.1782  0.0959
18754TIP3    H177677   4.365   4.587  11.793 -1.0197 -0.3628  1.2198
18754TIP3    H277678   4.474   4.510  11.722 -0.6424  1.5891 -0.3891
18755TIP3   OH277679   2.668   1.182   1.177 -0.0693 -0.2934 -0.2117
18755TIP3    H177680   2.613   1.111   1.211 -1.2475  0.3616 -0.7273
18755TIP3    H277681   2.626   1.208   1.095  0.0633  1.3081  0.1978
18756TIP3   OH277682   2.595   0.302   5.474  0.2689  0.1148 -0.4676
18756TIP3    H177683   2.565   0.229   5.420 -1.9125  1.5370 -1.2734
18756TIP3    H277684   2.634   0.363   5.412  0.3933  0.4509 -0.0583
18757TIP3   OH277685   2.695   5.253   1.330 -0.2536  0.6352 -0.1049
18757TIP3    H177686   2.691   5.183   1.265  0.0394  1.9463 -1.5688
18757TIP3    H277687   2.730   5.211   1.409  0.2565 -0.7800 -1.0663
18758TIP3   OH277688   1.875   6.128  11.159  0.1616 -0.0966  0.4140
18758TIP3    H177689   1.875   6.168  11.072 -1.9622 -2.4248 -0.7310
18758TIP3    H277690   1.954   6.074  11.161  0.1922 -0.0691 -0.0840
18759TIP3   OH277691   3.503   1.805   0.878 -0.0945 -0.0241 -0.6552
18759TIP3    H177692   3.553   1.883   0.899 -0.7584  0.8060 -2.1426
18759TIP3    H277693   3.436   1.801   0.946  0.0488  0.5873 -0.4754
18760TIP3   OH277694   0.294   6.688  16.241  0.4047  0.4324  0.2305
18760TIP3    H177695   0.229   6.754  16.266 -0.8391 -1.3211  1.8469
18760TIP3    H277696   0.252   6.605  16.263  2.8899 -0.7876  0.5095
18761TIP3   OH277697   1.778   1.478  11.069  0.0758  0.2952  0.5470
18761TIP3    H177698   1.828   1.432  11.002  1.8128  1.1341  1.2406
18761TIP3    H277699   1.769   1.567  11.036  0.5174  0.5852  1.1942
18762TIP3   OH277700   2.317   1.928  13.915 -0.1908 -0.3702  0.1977
18762TIP3    H177701   2.345   1.995  13.853 -1.2752  0.7937  0.9391
18762TIP3    H277702   2.398   1.895  13.954  0.4257 -0.4183 -1.1098
18763TIP3   OH277703   1.255   5.164   0.363  1.0159  0.3148 -0.2951
18763TIP3    H177704   1.300   5.222   0.425  0.0055  2.2135 -1.2877
18763TIP3    H277705   1.166   5.199   0.359  0.8159 -0.3767 -2.0842
18764TIP3   OH277706   5.442   3.315  12.327 -0.5510  0.5261 -0.1123
18764TIP3    H177707   5.434   3.264  12.246  0.6742 -0.2015  0.2199
18764TIP3    H277708   5.354   3.311  12.366  0.0604 -3.2969  1.0509
18765TIP3   OH277709   3.556   5.279   3.582 -0.4227 -0.2186  0.7442
18765TIP3    H177710   3.630   5.222   3.604 -0.3944  0.3305  2.1336
18765TIP3    H277711   3.526   5.248   3.497  0.4152 -1.4695  0.8913
18766TIP3   OH277712   4.455   6.662  16.254  0.9349  0.2533 -0.5111
18766TIP3    H177713   4.384   6.722  16.230  0.7555  0.8128  1.2852
18766TIP3    H277714   4.492   6.634  16.171 -0.8108  0.6617 -1.4559
18767TIP3   OH277715   2.055   2.022  14.725 -0.1267  0.1868  0.2487
18767TIP3    H177716   2.066   2.080  14.649 -1.7959  1.0016  0.6151
18767TIP3    H277717   1.961   2.020  14.741  0.0625 -1.2626  1.3268
18768TIP3   OH277718   3.231   5.399  11.696  0.0099 -0.4265 -0.1468
18768TIP3    H177719   3.149   5.386  11.745  0.0383 -0.0103  0.0121
18768TIP3    H277720   3.208   5.378  11.606 -0.2667 -0.3326 -0.0990
18769TIP3   OH277721   1.531   0.370   5.053 -0.4068 -0.4863  0.2628
18769TIP3    H177722   1.505   0.347   4.964 -0.4259 -0.3296  0.2285
18769TIP3    H277723   1.624   0.350   5.057 -0.2490  0.2006 -0.0122
18770TIP3   OH277724   4.398   5.829   2.893  0.1364  0.9241 -0.3733
18770TIP3    H177725   4.348   5.748   2.887  0.9163  0.4816 -0.8875
18770TIP3    H277726   4.489   5.802   2.897  0.3522  1.7295  0.6608
18771TIP3   OH277727   3.933   2.039   2.615 -0.0893  0.1131  0.0409
18771TIP3    H177728   3.871   1.968   2.598 -0.4830  0.2765  0.7779
18771TIP3    H277729   4.017   1.995   2.628 -0.2076 -0.1684 -0.1404
18772TIP3   OH277730   3.456   2.879   5.444 -0.0608  0.0974 -0.0266
18772TIP3    H177731   3.379   2.826   5.465 -1.5854  1.5472 -1.7896
18772TIP3    H277732   3.507   2.824   5.385 -0.0065 -0.6450  0.6985
18773TIP3   OH277733   1.170   0.122   0.677 -0.0570 -0.7179 -0.5870
18773TIP3    H177734   1.095   0.086   0.724  0.3500 -0.9599 -0.1277
18773TIP3    H277735   1.131   0.168   0.602 -0.8181  0.9464  0.7788
18774TIP3   OH277736   0.407   1.538   3.965 -0.4042  0.0383 -0.6060
18774TIP3    H177737   0.444   1.450   3.962 -1.5324 -0.4548 -0.1533
18774TIP3    H277738   0.439   1.574   4.048  0.2557  0.1523 -0.9058
18775TIP3   OH277739   2.854   4.280  11.830  0.5345  0.4904 -0.2968
18775TIP3    H177740   2.769   4.291  11.788  0.0824 -1.7365 -0.0451
18775TIP3    H277741   2.906   4.231  11.766  0.8646 -0.1630  0.4669
18776TIP3   OH277742   4.239   1.602  12.728  0.5082  0.5937  0.1593
18776TIP3    H177743   4.242   1.548  12.807  0.7724  1.2230  0.5833
18776TIP3    H277744   4.207   1.542  12.659  0.9607 -0.1428  0.5793
18777TIP3   OH277745   5.893   5.516   3.796 -0.1591  0.2893 -0.3289
18777TIP3    H177746   5.918   5.608   3.804  2.0477 -0.2857 -0.2661
18777TIP3    H277747   5.798   5.516   3.809  0.2220  2.1238  3.1131
18778TIP3   OH277748   0.380   4.513   2.553  0.0081  0.3298  0.1190
18778TIP3    H177749   0.440   4.509   2.478  0.0282  0.9716  0.0962
18778TIP3    H277750   0.344   4.425   2.559  2.4557 -0.6248  1.3829
18779TIP3   OH277751   4.032   6.108   0.861 -0.1786  0.7714 -0.1382
18779TIP3    H177752   4.091   6.057   0.805 -1.6770 -0.5138 -0.5848
18779TIP3    H277753   4.005   6.046   0.930 -2.1488  0.8723 -0.7783
18780TIP3   OH277754   1.870   5.298   1.569 -0.4057 -0.5527 -0.7897
18780TIP3    H177755   1.852   5.311   1.475 -2.5409  0.3455 -0.2995
18780TIP3    H277756   1.949   5.349   1.585 -0.3901 -0.1720 -1.9653
18781TIP3   OH277757   3.127   1.832   3.073  0.3125 -0.4206 -0.3259
18781TIP3    H177758   3.219   1.807   3.066  0.6709  0.2879  1.5942
18781TIP3    H277759   3.087   1.761   3.125  0.1315  0.0973  0.2480
18782TIP3   OH277760   2.415   3.002   4.816  0.0476  1.0457 -0.3896
18782TIP3    H177761   2.495   2.962   4.782 -0.8126  0.4133 -1.7528
18782TIP3    H277762   2.435   3.095   4.823  0.4662  1.1056 -2.1106
18783TIP3   OH277763   6.252   4.752  16.256  0.0166  0.1199 -0.0435
18783TIP3    H177764   6.344   4.726  16.255  0.4764  1.5757  1.1012
18783TIP3    H277765   6.253   4.846  16.237 -0.7208  1.2960  4.9513
18784TIP3   OH277766   2.052   1.845  11.998 -0.4357  0.0237 -0.3826
18784TIP3    H177767   1.977   1.903  11.988 -0.2519  0.2240 -0.6017
18784TIP3    H277768   2.014   1.758  12.008 -0.7187  0.2020  0.1115
18785TIP3   OH277769   3.205   2.568  15.245  0.0826 -0.3721  0.1962
18785TIP3    H177770   3.117   2.575  15.208  0.5017  0.4617 -0.6654
18785TIP3    H277771   3.263   2.580  15.170  0.9440  0.9482  1.0593
18786TIP3   OH277772   2.018   3.392  12.866  0.5659  0.0062 -0.3360
18786TIP3    H177773   1.977   3.315  12.826  0.1498  0.5058 -0.8761
18786TIP3    H277774   1.984   3.466  12.817  0.6201  0.5757  0.4704
18787TIP3   OH277775   0.401   3.489  14.805  0.1229 -0.2372  0.1417
18787TIP3    H177776   0.399   3.559  14.740  1.1678  0.7630  1.1830
18787TIP3    H277777   0.311   3.454  14.805 -0.5545  1.4499  0.0115
18788TIP3   OH277778   6.598   2.445   0.736 -0.5585 -0.5490  0.2066
18788TIP3    H177779   6.555   2.434   0.821  1.0160 -0.9873  0.9570
18788TIP3    H277780   6.622   2.357   0.709  1.6000 -0.1320  0.7146
18789TIP3   OH277781   0.099   0.302   3.612 -0.9112  0.3944 -0.5690
18789TIP3    H177782   0.045   0.279   3.687  0.9151 -0.1956  0.5802
18789TIP3    H277783   0.065   0.247   3.541 -1.2398 -0.6216  0.3615
18790TIP3   OH277784   2.784   3.559   4.053 -0.1169  0.0059 -0.0366
18790TIP3    H177785   2.766   3.606   4.135 -0.6386 -1.8314  0.9504
18790TIP3    H277786   2.703   3.567   4.003 -0.5321 -0.6113  0.5256
18791TIP3   OH277787   5.954   2.330  14.729  0.1478 -0.0584 -0.0985
18791TIP3    H177788   5.880   2.383  14.759  0.5994  0.3021  0.3674
18791TIP3    H277789   5.925   2.239  14.744  0.0640  0.0947  0.7064
18792TIP3   OH277790   6.313   2.041   1.477 -0.0990  0.9428  0.0599
18792TIP3    H177791   6.382   2.054   1.541 -0.5850  1.6309  0.4467
18792TIP3    H277792   6.324   1.950   1.448  0.2993  0.7174  0.9063
18793TIP3   OH277793   2.873   5.111   2.431  0.6416 -0.3465 -0.4864
18793TIP3    H177794   2.943   5.146   2.487  0.3240 -1.3040  0.5216
18793TIP3    H277795   2.917   5.093   2.348  1.6081 -0.9604  0.1402
18794TIP3   OH277796   6.291   6.438  17.147 -0.0500 -0.1798  0.1789
18794TIP3    H177797   6.210   6.447  17.197  0.1622  2.5302  0.1253
18794TIP3    H277798   6.269   6.473  17.060  0.7780 -0.8129 -0.2959
18795TIP3   OH277799   0.163   3.436  12.603 -0.2182 -0.3220  0.2494
18795TIP3    H177800   0.187   3.394  12.686 -0.9616 -1.3649 -0.0491
18795TIP3    H277801   0.072   3.463  12.617 -0.5417 -1.0456 -0.4385
18796TIP3   OH277802   5.674   0.976  16.798 -0.0882  0.5158  1.0747
18796TIP3    H177803   5.598   1.033  16.786  0.1509  0.4006 -1.0962
18796TIP3    H277804   5.724   1.018  16.869 -1.9902  0.7533  2.2988
18797TIP3   OH277805   3.817   4.112  15.566 -0.2070 -0.1017 -0.1273
18797TIP3    H177806   3.743   4.051  15.571 -0.9329  0.3657 -4.0868
18797TIP3    H277807   3.789   4.189  15.616 -2.7776  0.4036 -2.2724
18798TIP3   OH277808   6.209   1.839  10.446  0.7443 -0.1405  0.2694
18798TIP3    H177809   6.257   1.819  10.365  0.9715  0.9223  0.1366
18798TIP3    H277810   6.259   1.795  10.514  0.6094 -0.9607 -0.1482
18799TIP3   OH277811   5.482   4.640   2.388 -0.6778  0.3688  0.0487
18799TIP3    H177812   5.441   4.629   2.474 -1.6247  0.6939 -0.3528
18799TIP3    H277813   5.424   4.594   2.328  0.8230 -1.2471 -0.2206
18800TIP3   OH277814   6.138   5.234  15.411  0.2197 -0.6514 -0.5496
18800TIP3    H177815   6.128   5.163  15.474 -0.1096 -0.4274 -0.3521
18800TIP3    H277816   6.051   5.272  15.403  0.9429  1.6164  1.5691
18801TIP3   OH277817   2.781   4.710   5.034  0.0245 -0.5577  0.4575
18801TIP3    H177818   2.695   4.754   5.036 -0.6133 -1.7812  0.1292
18801TIP3    H277819   2.824   4.740   5.114 -1.6395 -1.7803  1.8483
18802TIP3   OH277820   0.617   2.168  16.493 -0.1041 -0.1439  0.5031
18802TIP3    H177821   0.571   2.097  16.449  0.6271 -0.0328 -0.4411
18802TIP3    H277822   0.548   2.227  16.523 -0.5921 -0.1305 -0.6450
18803TIP3   OH277823   6.666   3.791  16.395 -0.1196  0.5177 -0.0094
18803TIP3    H177824   6.755   3.774  16.425  0.6711  2.8082 -0.9254
18803TIP3    H277825   6.618   3.711  16.415  2.1452 -0.7573  0.4870
18804TIP3   OH277826   5.038   4.686  14.463  0.3817  0.7965  0.6834
18804TIP3    H177827   4.984   4.644  14.396 -0.0707 -0.1907  1.6450
18804TIP3    H277828   5.104   4.621  14.486 -0.1115  0.7215  1.9397
18805TIP3   OH277829   2.891   4.889   7.010  0.2825  0.0671 -0.2148
18805TIP3    H177830   2.942   4.967   6.987 -0.1888  0.7494  1.0184
18805TIP3    H277831   2.953   4.833   7.057  0.5044 -0.1211 -0.7241
18806TIP3   OH277832   3.235   2.477   0.346  0.1285 -0.0937  0.3843
18806TIP3    H177833   3.269   2.388   0.344  1.3731  0.3554  1.2628
18806TIP3    H277834   3.279   2.518   0.420  1.3418  1.9495 -1.4149
18807TIP3   OH277835   0.575   1.080  15.795 -0.6183  0.9403 -0.2290
18807TIP3    H177836   0.540   1.132  15.867  0.3228  0.1410  0.8351
18807TIP3    H277837   0.618   1.006  15.838 -1.6248 -0.5297 -1.6870
18808TIP3   OH277838   4.979   3.066  14.868  0.2536  0.5271  0.0255
18808TIP3    H177839   4.923   3.116  14.928 -0.1130  4.4074 -3.2695
18808TIP3    H277840   5.068   3.087  14.895  0.1293 -0.9188  1.6146
18809TIP3   OH277841   4.458   4.347  13.315 -0.1994  0.7344 -0.2620
18809TIP3    H177842   4.513   4.283  13.269  0.1443 -0.4632  1.7646
18809TIP3    H277843   4.369   4.316  13.301 -0.1671  1.0048 -1.0663
18810TIP3   OH277844   3.025   2.169  16.264  0.1736  0.2725 -0.1295
18810TIP3    H177845   3.104   2.175  16.210 -1.8055 -1.4807 -3.4230
18810TIP3    H277846   3.031   2.083  16.306  0.0601  0.1775 -0.3081
18811TIP3   OH277847   1.980   0.343   1.764 -1.2902 -0.0940  0.2710
18811TIP3    H177848   1.937   0.428   1.761 -0.9461  0.0911  0.5176
18811TIP3    H277849   1.967   0.305   1.677 -0.1628  0.8401 -0.3164
18812TIP3   OH277850   3.665   2.702  12.161  0.3587  0.0450 -0.0817
18812TIP3    H177851   3.653   2.739  12.249 -1.5755  1.2446 -0.8311
18812TIP3    H277852   3.614   2.759  12.104 -0.4074 -2.1713 -1.6606
18813TIP3   OH277853   0.748   3.219  13.118  0.0965 -0.3661  0.1526
18813TIP3    H177854   0.747   3.146  13.180 -0.8445  0.1254  0.7281
18813TIP3    H277855   0.701   3.289  13.163  0.5533  0.4348 -0.5970
18814TIP3   OH277856   4.602   2.628  16.288  0.3951  0.3769 -0.1124
18814TIP3    H177857   4.538   2.558  16.285  0.1719  0.6071 -0.7980
18814TIP3    H277858   4.647   2.616  16.372  3.0992 -3.0180 -1.9198
18815TIP3   OH277859   1.784   4.762   0.034  0.6453 -0.2809  0.2410
18815TIP3    H177860   1.830   4.709   0.100  0.0264 -0.8449  0.2207
18815TIP3    H277861   1.694   4.768   0.066  0.8411  1.2701  0.5496
18816TIP3   OH277862   0.679   2.166  11.244  0.0443 -0.3253 -0.4467
18816TIP3    H177863   0.612   2.174  11.177 -0.2774 -1.7437 -0.2900
18816TIP3    H277864   0.695   2.072  11.252 -0.1115 -0.1951  1.6443
18817TIP3   OH277865   6.707   4.194  11.668 -0.0001  0.3351  0.4250
18817TIP3    H177866   6.662   4.205  11.752  1.5008  1.4302  1.1016
18817TIP3    H277867   6.719   4.284  11.636 -1.8997 -0.1225 -1.6944
18818TIP3   OH277868   3.665   4.784   6.157  0.1346  0.2691 -0.3586
18818TIP3    H177869   3.610   4.813   6.084  0.2235  0.2299 -0.4413
18818TIP3    H277870   3.617   4.711   6.196 -0.7850  1.4538  0.7498
18819TIP3   OH277871   2.573   1.223  13.456 -0.3864  0.0540  0.5284
18819TIP3    H177872   2.591   1.147  13.511 -2.6430  0.0892  1.3637
18819TIP3    H277873   2.478   1.236  13.463 -0.6422  0.5416 -2.7371
18820TIP3   OH277874   1.140   6.069   0.233 -0.1995  0.3109 -0.5576
18820TIP3    H177875   1.092   5.998   0.191  1.7607 -0.5575 -1.4041
18820TIP3    H277876   1.134   6.142   0.172 -1.1629  0.4899 -0.2566
18821TIP3   OH277877   4.243   6.077  11.328 -0.2351 -0.3741 -0.8446
18821TIP3    H177878   4.271   6.032  11.248 -1.5035 -3.1485  0.2233
18821TIP3    H277879   4.210   6.162  11.298  3.2186  0.3642 -2.7935
18822TIP3   OH277880   1.526   3.970   4.384 -0.2305  0.2220 -0.0546
18822TIP3    H177881   1.566   4.055   4.400  0.3089 -0.0019 -0.2227
18822TIP3    H277882   1.450   3.968   4.443 -0.7822  1.2007 -0.7269
18823TIP3   OH277883   4.322   3.612   0.736 -0.6225  0.0002  0.1650
18823TIP3    H177884   4.303   3.648   0.650 -0.6825 -1.7840 -0.5996
18823TIP3    H277885   4.313   3.686   0.796  1.4829  1.7219 -1.5969
18824TIP3   OH277886   5.867   6.093  12.955  0.3979 -0.4513 -0.1030
18824TIP3    H177887   5.872   6.032  13.028  1.0518  0.2493  0.4435
18824TIP3    H277888   5.801   6.158  12.983  1.7660  0.6861  0.5309
18825TIP3   OH277889   0.447   2.468   4.979  0.0701 -0.2532  0.0242
18825TIP3    H177890   0.430   2.425   5.063 -1.6100 -0.4763 -0.4022
18825TIP3    H277891   0.496   2.547   5.001 -0.2130 -0.4011  1.2023
18826TIP3   OH277892   0.889   3.207   1.077  0.4177  0.2190 -0.3120
18826TIP3    H177893   0.916   3.134   1.022  1.2869  1.4789 -1.5525
18826TIP3    H277894   0.857   3.165   1.157 -1.8731 -1.6917 -2.1490
18827TIP3   OH277895   3.068   4.947   3.438  0.4381 -0.6916  0.1746
18827TIP3    H177896   3.150   4.900   3.450  1.0848 -0.1083 -1.7611
18827TIP3    H277897   3.016   4.891   3.380 -1.1512 -1.7477  2.5304
18828TIP3   OH277898   3.346   4.641  15.642 -0.0264  0.6150  0.1345
18828TIP3    H177899   3.254   4.645  15.668 -0.0557 -0.7345  0.2732
18828TIP3    H277900   3.344   4.623  15.548  0.0847  0.1114  0.2231
18829TIP3   OH277901   2.889   1.624   5.166  0.8140  0.4080 -0.3418
18829TIP3    H177902   2.828   1.567   5.119 -1.1695  1.3066  1.0619
18829TIP3    H277903   2.894   1.703   5.113 -1.2202  1.3153  0.7333
18830TIP3   OH277904   4.074   1.269  12.049 -0.6275 -0.1303 -0.6577
18830TIP3    H177905   3.981   1.280  12.029 -0.8676 -0.3266  0.3139
18830TIP3    H277906   4.114   1.248  11.965 -1.7342 -1.8636 -0.7739
18831TIP3   OH277907   1.892   3.226   5.714 -0.0030  0.4297  0.1724
18831TIP3    H177908   1.841   3.178   5.649 -0.0059  0.0988  0.4217
18831TIP3    H277909   1.970   3.255   5.667  0.4578 -0.6435  0.2762
18832TIP3   OH277910   4.571   2.874   1.644 -0.6102  0.1042 -0.0439
18832TIP3    H177911   4.502   2.927   1.603  0.0581  0.5129 -0.6549
18832TIP3    H277912   4.580   2.799   1.586 -1.1575 -0.3976  0.5164
18833TIP3   OH277913   2.436   6.390  11.669 -0.0281  0.1707  0.4150
18833TIP3    H177914   2.394   6.379  11.755  0.4765  0.9224  0.7596
18833TIP3    H277915   2.431   6.484  11.652 -0.7174 -0.0505 -0.6862
18834TIP3   OH277916   6.199   4.988  14.161  0.3722 -0.1353 -0.0862
18834TIP3    H177917   6.287   4.970  14.192  0.5837  2.8476  1.2931
18834TIP3    H277918   6.206   5.071  14.114 -2.1648  1.8135  2.7415
18835TIP3   OH277919   0.962   4.646  16.636 -0.2716  0.0232 -0.3012
18835TIP3    H177920   0.968   4.595  16.555  0.5663  1.5148 -1.1935
18835TIP3    H277921   0.880   4.694  16.628  1.4648  2.8405 -1.8863
18836TIP3   OH277922   0.544   6.780   0.967 -0.7088 -0.4672  0.2391
18836TIP3    H177923   0.449   6.782   0.962 -0.7557 -0.4267  0.9678
18836TIP3    H277924   0.571   6.871   0.957 -0.7424 -0.4929 -0.0734
18837TIP3   OH277925   5.181   3.286  15.426  0.5089  0.0549  0.7430
18837TIP3    H177926   5.099   3.243  15.404  0.7458  0.9652 -2.1898
18837TIP3    H277927   5.205   3.335  15.347  3.7587 -0.0062  1.5856
18838TIP3   OH277928   4.217   0.585  12.993  0.3163  0.2690  0.0145
18838TIP3    H177929   4.222   0.496  12.960  1.2421  0.4469 -0.3239
18838TIP3    H277930   4.296   0.597  13.046  1.2895  1.5810 -1.6838
18839TIP3   OH277931   4.202   4.086  15.149 -0.9920 -0.0128  0.2697
18839TIP3    H177932   4.250   4.005  15.129  0.9156  1.4400 -1.3180
18839TIP3    H277933   4.131   4.087  15.085  0.8112  1.0322 -1.7913
18840TIP3   OH277934   6.512   2.727  12.878  0.3414  0.1438 -0.0572
18840TIP3    H177935   6.477   2.751  12.964 -3.3652  0.1691 -1.4587
18840TIP3    H277936   6.497   2.805  12.824 -1.8409 -1.4548 -1.8750
18841TIP3   OH277937   4.241   4.245  12.777 -0.7543  0.1707  0.3794
18841TIP3    H177938   4.165   4.202  12.816 -1.4568  1.3718  0.3592
18841TIP3    H277939   4.265   4.313  12.840 -0.6123  0.7744 -0.3314
18842TIP3   OH277940   6.348   3.541  11.937 -0.2216 -0.4392  0.2756
18842TIP3    H177941   6.368   3.608  12.003  1.3987  0.7847 -1.3940
18842TIP3    H277942   6.417   3.476  11.948 -1.0360 -1.1942  1.0135
18843TIP3   OH277943   3.775   0.396   1.061 -0.4144  0.3670 -0.1425
18843TIP3    H177944   3.729   0.387   1.145 -0.5098 -1.0385 -0.3477
18843TIP3    H277945   3.743   0.479   1.026  1.0406  1.9273  2.0886
18844TIP3   OH277946   5.773   4.933  10.814  0.1758 -0.0052  0.0404
18844TIP3    H177947   5.770   4.954  10.721 -1.5617  0.9877  0.2862
18844TIP3    H277948   5.813   4.847  10.819 -1.5262 -0.9253 -1.7951
18845TIP3   OH277949   5.073   4.658  12.043  0.0919 -0.4935  0.1715
18845TIP3    H177950   5.020   4.697  11.974 -0.5198 -0.9943  0.3629
18845TIP3    H277951   5.088   4.730  12.105  0.1245 -0.2081 -0.1609
18846TIP3   OH277952   6.125   2.002  11.103  0.8823  0.0170 -0.6566
18846TIP3    H177953   6.168   1.991  11.188 -1.6602 -1.1765  0.5255
18846TIP3    H277954   6.114   2.096  11.093  0.3045  0.1081  0.8042
18847TIP3   OH277955   6.184   5.140   1.847 -0.2635  0.3719  0.0697
18847TIP3    H177956   6.146   5.055   1.871 -0.1742 -0.0522 -1.2095
18847TIP3    H277957   6.111   5.202   1.853 -0.2983  0.2258  1.1305
18848TIP3   OH277958   3.324   3.944   1.586 -0.1941  0.0327  0.1873
18848TIP3    H177959   3.372   3.875   1.539 -0.9024 -1.2036  1.2349
18848TIP3    H277960   3.286   3.899   1.662  0.4367  1.8660  1.6279
18849TIP3   OH277961   3.910   0.518   5.781  0.5746 -0.3451  0.5336
18849TIP3    H177962   3.902   0.450   5.715 -1.2661 -0.4679  0.8608
18849TIP3    H277963   3.872   0.479   5.860 -2.1007  1.6245  0.2905
18850TIP3   OH277964   0.485   4.272   1.425 -0.0287 -0.5690  0.3411
18850TIP3    H177965   0.576   4.270   1.396  0.2139  0.7913  0.9820
18850TIP3    H277966   0.440   4.209   1.368  1.0884 -0.4013 -0.7381
18851TIP3   OH277967   0.638   0.333  17.144 -0.3521  0.0025 -0.5056
18851TIP3    H177968   0.644   0.346  17.239 -1.2798  1.1334 -0.5892
18851TIP3    H277969   0.683   0.250  17.128  1.5397  0.7722  0.6707
18852TIP3   OH277970   5.371   0.991   1.082  0.1013 -0.1931 -0.8307
18852TIP3    H177971   5.331   1.017   0.999 -1.2790 -1.3295 -0.5358
18852TIP3    H277972   5.387   0.897   1.073  1.7368  0.0575 -0.5406
18853TIP3   OH277973   0.048   4.755  12.284 -0.8813  0.1619 -0.3317
18853TIP3    H177974   0.122   4.695  12.278  0.8632  2.3567 -1.6420
18853TIP3    H277975   0.045   4.781  12.377  0.0106  0.0782 -0.2809
18854TIP3   OH277976   3.670   3.166   1.285 -0.1371 -0.6572 -0.8037
18854TIP3    H177977   3.711   3.229   1.344 -0.0310  0.5136 -2.0805
18854TIP3    H277978   3.689   3.081   1.322  0.2536  0.0489  0.6273
18855TIP3   OH277979   4.756   5.741   0.709  0.5122 -0.2956 -0.1100
18855TIP3    H177980   4.805   5.660   0.725 -0.2964 -1.1682 -1.9022
18855TIP3    H277981   4.671   5.726   0.750  0.8600  0.2498  0.8403
18856TIP3   OH277982   4.611   6.241   4.756  0.0293 -0.3069 -0.0884
18856TIP3    H177983   4.612   6.284   4.841 -0.3251 -1.9151  0.7349
18856TIP3    H277984   4.638   6.310   4.695  1.6581  0.4978  1.4728
18857TIP3   OH277985   0.264   0.187   5.487  0.1590  0.3037  0.0552
18857TIP3    H177986   0.240   0.242   5.561 -0.2122 -1.3986  1.2096
18857TIP3    H277987   0.355   0.212   5.468 -0.1409  1.6171  0.2722
18858TIP3   OH277988   2.210   3.638  12.259 -0.2053 -0.0783 -0.3456
18858TIP3    H177989   2.302   3.652  12.236 -0.0706 -0.0519  0.2201
18858TIP3    H277990   2.212   3.594  12.343 -0.7166  0.3275 -0.1164
18859TIP3   OH277991   6.274   0.467  13.502 -0.1894  0.5286  0.1984
18859TIP3    H177992   6.262   0.558  13.529  0.8195  0.6898  0.1177
18859TIP3    H277993   6.368   0.459  13.487 -0.1258 -0.8062  1.2100
18860TIP3   OH277994   5.759   5.642  11.309  0.4610 -0.4682  0.2939
18860TIP3    H177995   5.796   5.656  11.396  2.4071  3.2227 -1.0414
18860TIP3    H277996   5.810   5.569  11.273  1.9354  0.1893  1.0033
18861TIP3   OH277997   3.825   6.549   6.293  0.1245  0.1564 -0.8274
18861TIP3    H177998   3.815   6.454   6.292 -1.0285  0.2769 -1.9798
18861TIP3    H277999   3.856   6.571   6.206 -0.5490  0.9284 -0.8741
18862TIP3   OH278000   2.984   0.970  15.583 -0.1532 -0.6605 -0.9348
18862TIP3    H178001   2.919   0.923  15.531  0.4163 -3.2388  0.5863
18862TIP3    H278002   2.933   1.031  15.637 -1.2130 -1.7765 -0.6639
18863TIP3   OH278003   4.104   4.620  17.184 -0.2976  0.1662  0.3112
18863TIP3    H178004   4.071   4.569  17.258  0.9849  2.2118  2.3517
18863TIP3    H278005   4.159   4.559  17.135 -2.0891 -1.5364  0.3666
18864TIP3   OH278006   3.133   6.079  16.786 -0.0818 -0.0207 -0.3114
18864TIP3    H178007   3.218   6.075  16.831 -0.6263  0.2565  0.7659
18864TIP3    H278008   3.078   6.017  16.834  0.0824 -1.7972 -2.3014
18865TIP3   OH278009   5.062   6.640   2.991 -0.2209  0.5417 -0.0058
18865TIP3    H178010   5.079   6.606   2.903  0.0779  0.1029  0.2172
18865TIP3    H278011   5.123   6.712   3.001  0.9638 -0.5045  0.4807
18866TIP3   OH278012   1.466   1.908  14.816 -0.0023  0.3213 -0.2570
18866TIP3    H178013   1.436   1.896  14.906 -0.0657 -0.7405 -0.4141
18866TIP3    H278014   1.454   1.822  14.775  2.6489 -0.0070 -0.4963
18867TIP3   OH278015   0.543   0.625   0.056  0.2857  0.1484  0.1808
18867TIP3    H178016   0.553   0.719   0.072 -0.4922  0.2014  0.4189
18867TIP3    H278017   0.498   0.620  -0.028 -1.9717  0.0795  1.3474
18868TIP3   OH278018   4.565   1.242  16.585 -0.6046  0.8209  0.3949
18868TIP3    H178019   4.624   1.265  16.657 -0.5863  0.3109  0.5442
18868TIP3    H278020   4.621   1.205  16.518 -0.9189 -0.9743  1.1020
18869TIP3   OH278021   4.854   2.311  15.661  0.0832  0.2813  0.6251
18869TIP3    H178022   4.794   2.244  15.695 -0.4480  0.9819  1.0776
18869TIP3    H278023   4.798   2.371  15.612  1.0929 -1.8037 -3.2565
18870TIP3   OH278024   5.620   1.899   1.282  0.2005  0.4348  0.4015
18870TIP3    H178025   5.712   1.886   1.258  0.5650  0.3925  1.7981
18870TIP3    H278026   5.584   1.811   1.288  0.3308  0.4129  0.8612
18871TIP3   OH278027   4.223   1.609   0.046 -0.0485 -0.2332  0.2965
18871TIP3    H178028   4.227   1.513   0.046  0.9762 -0.2001  0.5125
18871TIP3    H278029   4.131   1.629   0.028 -0.4315 -1.2608  1.0227
18872TIP3   OH278030   2.462   0.136  11.517 -0.1671  0.0182 -0.0558
18872TIP3    H178031   2.517   0.118  11.441  0.4728 -1.4316  0.7377
18872TIP3    H278032   2.477   0.229  11.535  0.8947 -0.0019 -0.7509
18873TIP3   OH278033   2.032   6.247  13.704  0.2915 -0.9198  0.1508
18873TIP3    H178034   2.052   6.168  13.752 -0.5558 -1.2256  0.0062
18873TIP3    H278035   2.117   6.287  13.686  0.6447 -1.1263  1.3364
18874TIP3   OH278036   3.815   2.384   0.971  0.2791  0.1620  0.0789
18874TIP3    H178037   3.901   2.361   1.007  0.7084 -0.5735 -1.3453
18874TIP3    H278038   3.826   2.474   0.939  0.6926 -0.0997 -0.5441
18875TIP3   OH278039   4.866   5.293  15.877  0.0882  0.6908  0.4143
18875TIP3    H178040   4.883   5.355  15.949 -0.0866  1.2078  0.0129
18875TIP3    H278041   4.868   5.347  15.798 -2.7595  0.6933  0.2824
18876TIP3   OH278042   0.758   3.854   3.889 -0.1791  0.3959 -0.0127
18876TIP3    H178043   0.706   3.934   3.902  0.5359  0.6620  1.2319
18876TIP3    H278044   0.834   3.883   3.838  0.7003  0.7562  1.4845
18877TIP3   OH278045   5.730   0.994   4.203  0.0533 -0.2371  0.7572
18877TIP3    H178046   5.639   0.999   4.231  0.3707  0.9289  1.5927
18877TIP3    H278047   5.731   1.037   4.117 -0.5255 -1.9590 -0.1356
18878TIP3   OH278048   0.231   1.808   1.424 -0.1141 -0.0070 -0.2284
18878TIP3    H178049   0.227   1.895   1.465 -0.3110  0.5548 -1.4088
18878TIP3    H278050   0.304   1.765   1.468 -0.8000  0.2916  1.2366
18879TIP3   OH278051   6.631   1.705   0.564  0.2792 -0.2716  0.6172
18879TIP3    H178052   6.708   1.648   0.560  0.1442 -0.4959  1.1233
18879TIP3    H278053   6.636   1.745   0.651  0.3407  0.4402  0.2831
18880TIP3   OH278054   1.930   4.378  12.662  0.2772 -0.3308 -0.0809
18880TIP3    H178055   2.003   4.388  12.722 -0.8174  1.7214  0.9664
18880TIP3    H278056   1.910   4.285  12.663  1.5401 -0.5958  1.2098
18881TIP3   OH278057   6.026   3.413   3.269 -0.3331 -0.4204  0.8553
18881TIP3    H178058   5.984   3.349   3.326  0.1581 -1.1362  0.4179
18881TIP3    H278059   5.977   3.410   3.187 -1.2125  0.8076  1.3134
18882TIP3   OH278060   6.641   2.029   2.177  0.0378  0.0255  0.1603
18882TIP3    H178061   6.683   1.950   2.211 -0.9814 -0.3978  0.4666
18882TIP3    H278062   6.588   2.062   2.250  0.3854  0.9350  0.0009
18883TIP3   OH278063   5.343   2.976   6.022 -0.1508 -0.2759 -0.0491
18883TIP3    H178064   5.294   3.012   5.948 -1.4390 -1.3806  0.2574
18883TIP3    H278065   5.276   2.948   6.085  0.9206  2.1125  2.2737
18884TIP3   OH278066   1.084   4.326   2.381 -0.3163 -0.2233  0.1842
18884TIP3    H178067   1.083   4.408   2.332  0.9927 -0.6051 -0.5040
18884TIP3    H278068   0.992   4.307   2.398 -0.8608 -0.4022 -2.6631
18885TIP3   OH278069   5.406   3.540  15.889  0.0813  0.5576 -0.4372
18885TIP3    H178070   5.407   3.484  15.966  1.3677  0.6924 -0.3427
18885TIP3    H278071   5.347   3.496  15.828  1.2748 -1.0390 -0.4673
18886TIP3   OH278072   6.707   1.649  14.960 -0.1948 -0.3584  0.1640
18886TIP3    H178073   6.648   1.577  14.936 -1.0428  0.0887  0.8341
18886TIP3    H278074   6.678   1.674  15.048  1.1720 -0.2858  0.5984
18887TIP3   OH278075   3.334   5.832  12.395 -0.5076  0.2747  0.3184
18887TIP3    H178076   3.368   5.920  12.378  3.8202 -1.3177  0.2753
18887TIP3    H278077   3.276   5.814  12.321 -0.8123  2.7196 -0.0874
18888TIP3   OH278078   6.180   4.142  14.627  0.3231 -0.0286 -0.1928
18888TIP3    H178079   6.093   4.133  14.587  0.6184  0.1351 -0.8738
18888TIP3    H278080   6.190   4.236  14.643  0.0009 -0.1477  0.7342
18889TIP3   OH278081   2.685   1.438   6.337  0.4394  0.0928 -0.5723
18889TIP3    H178082   2.692   1.528   6.369  1.4711  0.1595 -0.9654
18889TIP3    H278083   2.776   1.407   6.332  0.2627 -0.0991 -2.8969
18890TIP3   OH278084   2.355   2.548   2.997  0.3469 -0.0336  0.3330
18890TIP3    H178085   2.286   2.603   2.958  0.8018 -0.3133 -0.8858
18890TIP3    H278086   2.381   2.596   3.076 -0.2371  0.8028  0.0367
18891TIP3   OH278087   1.204   1.723  16.110 -0.3309 -0.0813 -0.1018
18891TIP3    H178088   1.229   1.631  16.108 -0.6790 -0.1992  0.7929
18891TIP3    H278089   1.177   1.739  16.200  1.0417  1.2512  0.0871
18892TIP3   OH278090   1.430   0.674   4.691  0.0184 -0.2601 -0.1459
18892TIP3    H178091   1.386   0.726   4.758 -0.8572 -0.9585 -0.1721
18892TIP3    H278092   1.523   0.680   4.713 -0.3268 -1.2690  1.7075
18893TIP3   OH278093   2.362   6.269  12.821 -0.1652  0.5471  0.0020
18893TIP3    H178094   2.398   6.330  12.886 -0.3400 -0.0825  0.6942
18893TIP3    H278095   2.439   6.221  12.790 -0.4477 -1.1462  1.8460
18894TIP3   OH278096   1.489   0.299   4.096  0.3159 -0.8932  0.0224
18894TIP3    H178097   1.507   0.392   4.084 -0.0198 -1.1269 -2.4655
18894TIP3    H278098   1.575   0.259   4.107  0.5465 -0.4832 -0.2768
18895TIP3   OH278099   0.671   5.088   4.874  0.2872  0.2503 -0.8347
18895TIP3    H178100   0.619   5.017   4.911  1.0741 -0.3129 -0.7815
18895TIP3    H278101   0.685   5.061   4.783  3.8725 -1.6425  0.1581
18896TIP3   OH278102   4.868   2.463  13.804  0.4779  0.2759 -0.3808
18896TIP3    H178103   4.800   2.455  13.738 -0.1860 -0.8293  0.4103
18896TIP3    H278104   4.825   2.502  13.880  1.1217  1.1013 -0.4289
18897TIP3   OH278105   2.457   6.706  10.738  0.1918  0.0080  0.3681
18897TIP3    H178106   2.419   6.618  10.732  0.8369 -0.1684 -1.4401
18897TIP3    H278107   2.552   6.692  10.734  0.2864  0.8073 -0.3171
18898TIP3   OH278108   2.345   6.751   3.747  0.3676  0.0685 -0.4839
18898TIP3    H178109   2.266   6.799   3.772  0.3011  0.5673 -1.6082
18898TIP3    H278110   2.316   6.690   3.680  0.9747  0.4260 -1.0874
18899TIP3   OH278111   5.835   2.232  16.052 -0.7368  0.1535 -0.0834
18899TIP3    H178112   5.836   2.149  16.004  0.5913 -0.0680  0.3098
18899TIP3    H278113   5.798   2.210  16.138 -0.2330 -0.0633  0.0783
18900TIP3   OH278114   5.647   1.677  14.445 -0.6020  0.0424  0.0935
18900TIP3    H178115   5.623   1.708  14.358 -0.7818 -0.5903 -0.0860
18900TIP3    H278116   5.717   1.735  14.473 -0.2831  0.0092 -0.6319
18901TIP3   OH278117   0.016   6.262  15.018  0.7104 -0.5984  0.7080
18901TIP3    H178118   0.081   6.303  14.961  0.1787  0.8286  1.1155
18901TIP3    H278119   0.057   6.257  15.104  0.3880  0.0471  0.9014
18902TIP3   OH278120   1.638   4.951   4.983  0.0776 -0.0124 -0.3211
18902TIP3    H178121   1.544   4.959   4.997 -0.2259  1.3267 -2.7916
18902TIP3    H278122   1.651   4.862   4.950 -0.1937 -0.4941  0.8617
18903TIP3   OH278123   2.386   4.452   5.859  0.0746  0.0974 -0.9468
18903TIP3    H178124   2.360   4.433   5.949 -1.1588  1.2874 -1.0352
18903TIP3    H278125   2.470   4.498   5.867 -0.5622  1.1687 -0.3347
18904TIP3   OH278126   0.133   2.357   1.561  0.1708 -0.0137 -0.4103
18904TIP3    H178127   0.054   2.407   1.579  0.0365  0.9001 -3.1852
18904TIP3    H278128   0.136   2.290   1.629 -0.7086  2.5240  2.2166
18905TIP3   OH278129   3.675   4.132   4.608 -0.2849 -0.4132  0.2329
18905TIP3    H178130   3.596   4.128   4.662  1.4896  0.7002  3.0500
18905TIP3    H278131   3.707   4.042   4.605 -0.7796 -0.5995  0.4389
18906TIP3   OH278132   0.202   4.746   1.741  0.0355 -0.5573  0.0390
18906TIP3    H178133   0.181   4.672   1.684  0.1408 -0.1190 -0.5656
18906TIP3    H278134   0.117   4.776   1.773  0.0132 -1.1300  0.5257
18907TIP3   OH278135   1.678   1.812   6.237 -0.1566  0.5786  0.1165
18907TIP3    H178136   1.685   1.797   6.331  1.3184  0.5539  0.0135
18907TIP3    H278137   1.653   1.726   6.201 -1.2852  0.7254  0.5360
18908TIP3   OH278138   2.414   6.131  14.436 -0.6544  0.4114  0.0555
18908TIP3    H178139   2.328   6.103  14.466 -0.4131 -0.7045 -0.2446
18908TIP3    H278140   2.442   6.197  14.499 -1.0154 -0.4275  1.1071
18909TIP3   OH278141   5.742   6.449   4.321  0.1850 -0.0342 -0.1486
18909TIP3    H178142   5.648   6.450   4.302  0.0480  1.2190  0.5332
18909TIP3    H278143   5.769   6.358   4.306 -1.0242 -0.2767 -0.8848
18910TIP3   OH278144   4.222   1.117   3.678  0.4500 -0.2996 -0.2142
18910TIP3    H178145   4.184   1.046   3.627 -0.0991  1.1783 -1.9077
18910TIP3    H278146   4.151   1.179   3.691  0.9367 -0.0146  1.1896
18911TIP3   OH278147   5.899   5.725   5.485  0.0516  0.3562 -0.4516
18911TIP3    H178148   5.905   5.661   5.557  0.9479 -1.1495 -1.8322
18911TIP3    H278149   5.931   5.806   5.524  2.9770 -1.0295  0.2139
18912TIP3   OH278150   5.125   5.424   4.712 -0.4268 -0.1769 -0.6700
18912TIP3    H178151   5.209   5.391   4.745 -0.5884  0.0123 -0.0558
18912TIP3    H278152   5.148   5.474   4.634  0.2684  1.5035  0.5775
18913TIP3   OH278153   3.900   2.785   0.049  0.0458 -0.2692  0.2583
18913TIP3    H178154   3.959   2.809  -0.022 -0.2770  0.4066  0.2068
18913TIP3    H278155   3.829   2.737   0.007  0.5200 -1.0206  0.3087
18914TIP3   OH278156   3.636   4.145   1.013  0.1921  0.1017 -0.5339
18914TIP3    H178157   3.691   4.201   0.957 -1.1649 -0.2389 -2.2357
18914TIP3    H278158   3.581   4.207   1.061  2.5428  0.4975  1.7833
18915TIP3   OH278159   2.059   1.294  13.810 -0.1987  0.0477 -0.7713
18915TIP3    H178160   1.986   1.310  13.749 -0.3924  0.9168 -0.3219
18915TIP3    H278161   2.020   1.241  13.880 -0.7127  1.5304  0.0862
18916TIP3   OH278162   3.963   5.541   4.781 -0.1385 -0.0713 -0.3855
18916TIP3    H178163   3.988   5.549   4.689  0.4181  0.7640 -0.1644
18916TIP3    H278164   4.043   5.511   4.825 -0.5862 -1.1263 -0.2727
18917TIP3   OH278165   6.520   1.244   2.784 -0.6833  0.0056  0.1003
18917TIP3    H178166   6.561   1.158   2.773 -1.8593 -0.4705 -0.7694
18917TIP3    H278167   6.431   1.232   2.751 -0.7733  1.6407 -0.3219
18918TIP3   OH278168   1.896   4.161   4.534  0.6289 -0.4090  0.2271
18918TIP3    H178169   1.880   4.245   4.578  0.0763 -1.0168  1.2072
18918TIP3    H278170   1.885   4.181   4.441 -0.1468  0.4723  0.4911
18919TIP3   OH278171   1.780   4.292   1.680  0.1021  0.2269  0.0963
18919TIP3    H178172   1.766   4.343   1.759 -1.5099  2.5709 -1.6175
18919TIP3    H278173   1.692   4.265   1.652  0.6207 -0.3543 -1.0442
18920TIP3   OH278174   6.784   3.641   6.657 -0.6075 -0.0258  0.2089
18920TIP3    H178175   6.837   3.592   6.594  0.1049  1.1601 -0.1275
18920TIP3    H278176   6.701   3.655   6.612  0.0186  1.1158 -0.6358
18921TIP3   OH278177   4.283   1.699  15.323  0.0798  0.4259  0.0692
18921TIP3    H178178   4.262   1.703  15.416 -2.0568  0.7176 -0.4141
18921TIP3    H278179   4.199   1.709  15.278  1.0009 -0.3600 -1.8925
18922TIP3   OH278180   2.624   3.618  16.381  0.0294 -0.1059 -0.3411
18922TIP3    H178181   2.682   3.550  16.417 -0.6746 -0.1160  0.8374
18922TIP3    H278182   2.609   3.677  16.455  0.3646  1.1567 -1.2744
18923TIP3   OH278183   0.350   5.501   0.263 -0.6173 -0.2165  0.4996
18923TIP3    H178184   0.349   5.482   0.357 -0.5087  0.1050  0.5660
18923TIP3    H278185   0.412   5.573   0.254  1.6784 -2.2114 -0.1882
18924TIP3   OH278186   6.530   6.344   6.270 -0.0186 -0.3270 -0.6052
18924TIP3    H178187   6.519   6.363   6.177  1.2041  1.0265 -0.4951
18924TIP3    H278188   6.581   6.263   6.272 -0.1314 -0.4124 -1.1093
18925TIP3   OH278189   5.195   1.217  13.077 -0.2268  0.3140 -0.8496
18925TIP3    H178190   5.103   1.199  13.099 -0.0442  1.0674  0.5437
18925TIP3    H278191   5.195   1.224  12.982 -1.3662 -1.1056 -0.9763
18926TIP3   OH278192   2.100   2.595   0.347 -0.0725  0.2679 -0.2781
18926TIP3    H178193   2.047   2.549   0.412  1.7022 -1.4349  0.0075
18926TIP3    H278194   2.046   2.669   0.320 -2.1696 -0.8513  0.7397
18927TIP3   OH278195   6.410   2.609  14.858 -0.7066 -0.3482 -0.2040
18927TIP3    H178196   6.364   2.692  14.871  0.8123  0.4297  0.3894
18927TIP3    H278197   6.452   2.618  14.772 -1.1951 -0.8191 -0.4906
18928TIP3   OH278198   5.004   0.801   3.467 -0.3539 -0.9288 -0.0059
18928TIP3    H178199   4.986   0.839   3.552 -1.0019 -2.5637  0.6141
18928TIP3    H278200   5.019   0.876   3.409 -2.6316  0.2875  0.9313
18929TIP3   OH278201   6.026   3.582   0.099  0.1795 -0.1824  0.3321
18929TIP3    H178202   5.965   3.654   0.113  0.6173  0.5781 -1.5011
18929TIP3    H278203   6.102   3.623   0.056  0.4467 -1.7192 -0.7141
18930TIP3   OH278204   4.878   3.268  16.690  0.3470 -0.2176 -0.0732
18930TIP3    H178205   4.792   3.227  16.681  0.5229 -0.7013  0.4566
18930TIP3    H278206   4.940   3.198  16.671  0.6151  0.5257 -2.0518
18931TIP3   OH278207   0.460   6.400  11.397 -0.8740  0.1299  0.6564
18931TIP3    H178208   0.396   6.380  11.466 -0.0327  2.9211  2.3236
18931TIP3    H278209   0.430   6.482  11.359 -0.0603 -0.2258 -0.7760
18932TIP3   OH278210   3.217   0.350   3.391 -0.4746 -0.2746 -0.6625
18932TIP3    H178211   3.272   0.391   3.457 -0.9609 -2.5158  1.1885
18932TIP3    H278212   3.196   0.421   3.330  1.9901  1.2783  0.2043
18933TIP3   OH278213   2.291   2.957   2.514  0.1071  0.1299 -0.2914
18933TIP3    H178214   2.364   2.958   2.452  0.7645  0.1449  0.4729
18933TIP3    H278215   2.318   2.895   2.581  0.1186  1.3176  0.8262
18934TIP3   OH278216   4.894   4.107  15.972  0.5520  0.7399  0.2763
18934TIP3    H178217   4.977   4.079  15.934 -0.0347 -0.9940  0.2297
18934TIP3    H278218   4.832   4.102  15.899 -0.0305 -0.0513  0.8254
18935TIP3   OH278219   1.432   0.117   1.329 -0.1450 -0.3841 -0.1827
18935TIP3    H178220   1.463   0.027   1.315  0.5471 -0.3202  0.8853
18935TIP3    H278221   1.361   0.108   1.394 -0.5910 -0.2378 -0.6448
18936TIP3   OH278222   4.583   4.657  13.769 -0.0617  0.2330  0.3361
18936TIP3    H178223   4.560   4.683  13.680  1.6617 -2.3796 -0.9404
18936TIP3    H278224   4.570   4.563  13.771 -0.2161  0.2732  2.9147
18937TIP3   OH278225   5.881   2.334  13.688  0.5930  0.1283  0.3616
18937TIP3    H178226   5.858   2.247  13.656 -1.2396  0.5851  0.3690
18937TIP3    H278227   5.898   2.322  13.781 -1.7415  0.1204  0.8028
18938TIP3   OH278228   0.234   0.030  16.504 -0.3559  0.3683  0.1254
18938TIP3    H178229   0.307   0.056  16.448 -0.8373  1.2767 -0.1009
18938TIP3    H278230   0.158   0.073  16.465 -0.8113  0.4255  1.0575
18939TIP3   OH278231   4.165   1.012   1.998  0.3152  0.0029  0.3319
18939TIP3    H178232   4.168   1.038   1.906 -0.6953 -0.2101  0.2278
18939TIP3    H278233   4.127   1.087   2.043  0.6140  0.0258  0.5453
18940TIP3   OH278234   3.203   4.470   0.282  0.4519  0.1139  0.3061
18940TIP3    H178235   3.195   4.558   0.317 -0.4692 -0.0610  0.5501
18940TIP3    H278236   3.113   4.437   0.277  0.8004 -0.9104  0.4969
18941TIP3   OH278237   4.328   4.489  14.082  0.0263  0.4170 -0.4256
18941TIP3    H178238   4.338   4.401  14.120  0.9328  1.0398  0.7862
18941TIP3    H278239   4.388   4.490  14.008  0.2512  0.1352 -0.2487
18942TIP3   OH278240   4.552   0.912   6.190 -0.2974  0.6295  0.6265
18942TIP3    H178241   4.590   0.877   6.110  0.1228 -0.8648  1.4618
18942TIP3    H278242   4.554   1.007   6.178 -3.0235  0.3846 -2.4087
18943TIP3   OH278243   4.523   4.914  15.412  0.1050 -0.6833 -0.0534
18943TIP3    H178244   4.610   4.940  15.381  0.4351 -0.6699  0.8917
18943TIP3    H278245   4.463   4.973  15.366  0.6644 -0.0362  0.0417
18944TIP3   OH278246   6.759   5.665   4.598 -0.2268 -0.1297 -0.1246
18944TIP3    H178247   6.772   5.741   4.540 -1.5229 -0.5795 -1.0346
18944TIP3    H278248   6.698   5.609   4.550  1.3557 -2.1473  0.1812
18945TIP3   OH278249   5.007   6.192  15.515 -0.0775  0.5256 -0.3153
18945TIP3    H178250   5.057   6.148  15.583  0.5857  1.3348 -0.2609
18945TIP3    H278251   5.028   6.144  15.434 -1.4075 -0.8625  0.1406
18946TIP3   OH278252   1.858   3.722   3.474 -0.6413 -0.0532  0.4036
18946TIP3    H178253   1.882   3.714   3.382 -0.8570  1.1286  0.2338
18946TIP3    H278254   1.931   3.683   3.522 -0.0835  0.2084 -0.2346
18947TIP3   OH278255   3.977   4.368   3.763 -0.2934  0.3900 -0.1614
18947TIP3    H178256   3.916   4.334   3.828  1.1964 -1.7196  0.1615
18947TIP3    H278257   4.063   4.354   3.801  0.4479  4.8384  0.1190
18948TIP3   OH278258   5.683   1.464   1.277  0.0656  0.7783 -0.4559
18948TIP3    H178259   5.596   1.459   1.316  1.0386  0.0964  1.7097
18948TIP3    H278260   5.739   1.497   1.347  1.8702 -0.4325 -1.2826
18949TIP3   OH278261   3.247   5.552  13.855 -0.0450  0.1905  0.1965
18949TIP3    H178262   3.167   5.596  13.827  1.1724  1.0420 -2.0584
18949TIP3    H278263   3.232   5.460  13.832 -1.0457  0.0537  1.3539
18950TIP3   OH278264   5.335   3.883   1.063  0.5394 -0.2635 -0.4044
18950TIP3    H178265   5.264   3.907   1.123  1.0611 -0.5258  0.3255
18950TIP3    H278266   5.378   3.808   1.105 -0.2537 -1.6774 -2.0144
18951TIP3   OH278267   1.124   1.992  12.050 -0.1959  0.3343 -0.5354
18951TIP3    H178268   1.105   1.988  11.956 -1.4047  1.6187 -0.3662
18951TIP3    H278269   1.201   2.048  12.057 -0.7707  1.1570 -0.6898
18952TIP3   OH278270   3.513   3.468   3.413 -0.0666 -0.1654 -0.2752
18952TIP3    H178271   3.588   3.511   3.454 -0.0490 -0.1876 -0.2841
18952TIP3    H278272   3.486   3.526   3.342 -0.1342 -0.0978 -0.1942
18953TIP3   OH278273   0.483   3.455  11.262  0.4908  0.1175 -0.2176
18953TIP3    H178274   0.541   3.489  11.194  1.1171 -0.4081  0.0573
18953TIP3    H278275   0.507   3.503  11.341  0.4770 -0.0256 -0.1263
18954TIP3   OH278276   5.605   0.748   3.242  0.3647  0.1529  0.4826
18954TIP3    H178277   5.545   0.689   3.196  1.5682  0.4753 -1.5777
18954TIP3    H278278   5.661   0.690   3.293  2.0633 -0.6264 -2.1558
18955TIP3   OH278279   0.428   5.854  11.031  0.1194  0.0064  0.4602
18955TIP3    H178280   0.371   5.791  11.074  1.0351 -1.1204  0.0321
18955TIP3    H278281   0.489   5.801  10.980 -0.0654  1.2822 -1.1243
18956TIP3   OH278282   3.883   5.223   6.085  0.1538 -0.3880 -0.6631
18956TIP3    H178283   3.879   5.319   6.080 -1.9672 -0.3911  0.2498
18956TIP3    H278284   3.863   5.193   5.996 -0.0660  0.0162 -0.7505
18957TIP3   OH278285   4.610   4.478   4.758 -0.7112  0.3485  0.3797
18957TIP3    H178286   4.557   4.474   4.679 -1.4159  0.8171  0.8244
18957TIP3    H278287   4.663   4.557   4.747 -0.2636  0.0058  0.0400
18958TIP3   OH278288   1.721   2.015  14.761  0.0629  0.5963 -0.5146
18958TIP3    H178289   1.626   2.007  14.747  0.2017 -1.7968 -0.2225
18958TIP3    H278290   1.730   2.030  14.855  0.0582 -1.2232 -0.2072
18959TIP3   OH278291   5.523   2.689  16.561 -0.6482  0.4220  0.6208
18959TIP3    H178292   5.430   2.713  16.565 -0.5657  1.2789 -1.7308
18959TIP3    H278293   5.555   2.731  16.481  1.3568 -1.2748  0.4959
18960TIP3   OH278294   4.889   6.509   0.317 -0.2040  0.1789  0.4446
18960TIP3    H178295   4.802   6.470   0.317 -0.6290  1.1147  0.3091
18960TIP3    H278296   4.939   6.456   0.256 -0.7016 -0.3085  0.4567
18961TIP3   OH278297   1.860   5.172  15.503  0.0436 -0.2305  0.0983
18961TIP3    H178298   1.865   5.077  15.495 -0.8020 -0.1145 -2.3739
18961TIP3    H278299   1.839   5.188  15.595  1.3742 -2.3596  0.8135
18962TIP3   OH278300   4.763   4.684   2.592  0.2378  0.0516 -0.0312
18962TIP3    H178301   4.841   4.721   2.633 -0.3654  1.2558  0.0532
18962TIP3    H278302   4.702   4.670   2.665  0.1740 -0.3711 -0.1654
18963TIP3   OH278303   6.233   0.148   3.566  0.6105  0.1986 -0.3077
18963TIP3    H178304   6.296   0.211   3.532  0.6948 -0.5369 -1.5551
18963TIP3    H278305   6.281   0.065   3.569  1.0538  0.4976  3.0129
18964TIP3   OH278306   6.135   3.349   2.456  0.8652 -0.0398 -0.2479
18964TIP3    H178307   6.161   3.420   2.397  2.6921 -0.9503 -0.5559
18964TIP3    H278308   6.193   3.276   2.434 -0.5549 -1.4358  0.5123
18965TIP3   OH278309   6.106   2.919  15.171 -0.0496 -0.0829  0.1145
18965TIP3    H178310   6.193   2.880  15.175 -0.2096 -0.3337  1.3584
18965TIP3    H278311   6.058   2.863  15.110  0.4654 -0.3366 -0.0656
18966TIP3   OH278312   2.807   2.837   5.928 -0.3736  0.7985  0.5658
18966TIP3    H178313   2.791   2.925   5.964 -2.1122  1.0615 -0.7880
18966TIP3    H278314   2.899   2.840   5.899 -0.7382  2.5771 -0.5369
18967TIP3   OH278315   5.398   4.123  15.635 -0.6489  0.8018 -0.3076
18967TIP3    H178316   5.409   4.208  15.593 -0.1409  1.6036  1.4429
18967TIP3    H278317   5.371   4.143  15.724  0.5414 -0.8493  0.4449
18968TIP3   OH278318   0.838   3.850   4.845 -0.1374  0.5794  0.5285
18968TIP3    H178319   0.924   3.872   4.808 -0.6004  2.8179  0.6963
18968TIP3    H278320   0.855   3.777   4.905  1.2934 -0.3775 -0.9860
18969TIP3   OH278321   2.706   2.147   5.492  0.1275  0.0997  0.3667
18969TIP3    H178322   2.647   2.184   5.558  0.5549  1.7990 -0.1755
18969TIP3    H278323   2.670   2.060   5.474 -2.4485  1.2269 -0.2208
18970TIP3   OH278324   2.978   5.766   0.000  0.6642 -0.4639 -0.5646
18970TIP3    H178325   3.007   5.678   0.025  1.7288 -0.3673 -1.4645
18970TIP3    H278326   3.033   5.825   0.052  0.0297 -0.3272 -0.0475
18971TIP3   OH278327   3.330   4.377  12.858  0.1784  0.6894  0.2612
18971TIP3    H178328   3.394   4.307  12.869 -0.4048  0.3133  1.2837
18971TIP3    H278329   3.250   4.343  12.898 -0.5296  1.3463 -0.5803
18972TIP3   OH278330   0.493   5.800   5.018  0.4641 -0.1525 -0.2360
18972TIP3    H178331   0.582   5.829   5.000  0.8535 -0.9429  0.3899
18972TIP3    H278332   0.440   5.879   5.014  1.2281  0.3514 -0.3882
18973TIP3   OH278333   1.975   4.061  11.034  0.0516 -0.0748  0.6601
18973TIP3    H178334   1.906   4.127  11.029 -1.8486 -1.9194  1.5654
18973TIP3    H278335   2.032   4.091  11.104 -1.4736  0.0340  1.8958
18974TIP3   OH278336   4.728   2.562  13.597  0.0445 -0.2572  0.2702
18974TIP3    H178337   4.721   2.641  13.650  0.8762  0.6582 -0.9566
18974TIP3    H278338   4.761   2.592  13.512 -0.3268 -1.8163 -0.4585
18975TIP3   OH278339   2.288   2.553  11.267 -0.6001 -0.3849  0.5187
18975TIP3    H178340   2.301   2.609  11.190 -1.2640  1.6323  1.8288
18975TIP3    H278341   2.316   2.466  11.238  0.5972  0.6296 -1.5363
18976TIP3   OH278342   5.200   5.180   5.070 -0.1526  0.0702 -0.5948
18976TIP3    H178343   5.168   5.128   5.143  1.0724 -0.3661 -0.3465
18976TIP3    H278344   5.170   5.269   5.088  0.2414 -0.0177  0.5096
18977TIP3   OH278345   4.055   5.337   1.663 -0.2700  0.7581  0.2848
18977TIP3    H178346   4.075   5.258   1.713 -0.1799  1.3776  1.2445
18977TIP3    H278347   3.967   5.321   1.628  0.2461 -0.2802 -0.5840
18978TIP3   OH278348   1.593   1.845   3.786 -0.1254  0.4535  0.4851
18978TIP3    H178349   1.499   1.850   3.767  0.1149 -0.4250 -1.0233
18978TIP3    H278350   1.610   1.921   3.842 -1.5720  1.1066  0.0684
18979TIP3   OH278351   3.180   1.571   1.160  0.2400  0.0921 -0.1597
18979TIP3    H178352   3.194   1.555   1.066 -0.8153  3.1890 -0.8990
18979TIP3    H278353   3.261   1.613   1.189  0.3065 -0.2603  0.1611
18980TIP3   OH278354   4.548   3.308  15.534  0.2077 -0.5769 -0.4067
18980TIP3    H178355   4.531   3.214  15.541  1.0356 -0.7821 -1.0946
18980TIP3    H278356   4.606   3.328  15.607 -0.6378 -0.4245  0.2409
18981TIP3   OH278357   2.576   1.972   3.206 -0.0963  0.0394  0.5602
18981TIP3    H178358   2.525   1.999   3.282  0.9391 -0.6700  1.5125
18981TIP3    H278359   2.614   2.054   3.173 -1.3731  0.4909  0.1844
18982TIP3   OH278360   0.273   0.535  10.560 -0.2600  0.0356 -0.1690
18982TIP3    H178361   0.192   0.582  10.576  0.1097  1.0167 -1.1676
18982TIP3    H278362   0.341   0.590  10.600 -0.0224 -0.5489  0.2512
18983TIP3   OH278363   0.958   5.435  14.124 -0.4035 -0.2508 -0.1695
18983TIP3    H178364   0.975   5.513  14.070 -0.6652  1.1201  1.6714
18983TIP3    H278365   1.038   5.425  14.176  0.2689 -2.1974 -1.5353
18984TIP3   OH278366   1.102   2.048  16.399 -0.2480  0.1940  0.2876
18984TIP3    H178367   1.105   1.953  16.401  1.7728  0.1978 -0.6668
18984TIP3    H278368   1.021   2.070  16.353 -0.6276 -1.0552  0.3583
18985TIP3   OH278369   6.335   4.106   2.512 -0.0288 -0.5420  0.0584
18985TIP3    H178370   6.424   4.097   2.479 -0.4756  0.0245 -1.3507
18985TIP3    H278371   6.307   4.016   2.530  1.2929 -0.6223  1.8316
18986TIP3   OH278372   1.482   2.351  12.811 -0.7259  0.6140  0.1570
18986TIP3    H178373   1.495   2.399  12.892  0.2906  0.8009 -0.1138
18986TIP3    H278374   1.553   2.380  12.753 -1.5770  0.6715 -0.8871
18987TIP3   OH278375   4.548   1.176   6.124  0.5637 -0.0106  0.2390
18987TIP3    H178376   4.562   1.270   6.129 -2.5817  0.4496  1.4141
18987TIP3    H278377   4.555   1.155   6.031 -2.1685  2.0029 -0.4642
18988TIP3   OH278378   0.644   0.920   0.927 -0.1215  0.0757  0.6354
18988TIP3    H178379   0.623   0.906   1.020  1.2394  1.0458  1.1028
18988TIP3    H278380   0.613   1.008   0.909  1.1060  0.5124  0.6197
18989TIP3   OH278381   5.976   2.690  16.838  0.8002  0.2261 -0.0748
18989TIP3    H178382   6.019   2.775  16.849  0.6496  0.2604  0.2499
18989TIP3    H278383   5.894   2.710  16.794  1.6813  0.0215 -1.8614
18990TIP3   OH278384   6.483   3.717  13.984  0.1310 -0.1411  0.4353
18990TIP3    H178385   6.538   3.638  13.983  2.2973  1.3121  0.7136
18990TIP3    H278386   6.517   3.768  14.057 -3.3717 -0.3665  2.2806
18991TIP3   OH278387   3.433   2.516  16.197 -0.2776 -0.4226  0.4459
18991TIP3    H178388   3.367   2.585  16.205 -0.2705 -0.4274  0.5633
18991TIP3    H278389   3.428   2.488  16.106  0.5181  0.5384  0.0897
18992TIP3   OH278390   4.249   3.943  16.576 -0.3888  0.1726 -0.6702
18992TIP3    H178391   4.334   3.930  16.533 -0.8934 -0.5249 -1.4855
18992TIP3    H278392   4.233   3.861  16.622  0.4542  1.1627  1.4158
18993TIP3   OH278393   1.712   0.040  15.268  0.0698 -0.6329  0.0309
18993TIP3    H178394   1.697  -0.033  15.327  1.9865 -2.0241 -1.1585
18993TIP3    H278395   1.792   0.017  15.220  2.0390  3.2333  1.2107
18994TIP3   OH278396   5.952   4.082  16.417  0.7542 -0.3090  0.1168
18994TIP3    H178397   5.951   4.037  16.502  0.7615  0.3365  0.4637
18994TIP3    H278398   5.891   4.155  16.429  0.1224 -0.6888 -0.6976
18995TIP3   OH278399   1.675   2.145  15.805 -0.5776 -0.3612  0.1294
18995TIP3    H178400   1.708   2.161  15.717  0.7955 -0.0152  0.7009
18995TIP3    H278401   1.609   2.213  15.819  0.3390  0.5684 -0.0432
18996TIP3   OH278402   5.970   0.564  10.502  0.1232  0.1187  0.4737
18996TIP3    H178403   6.063   0.583  10.518 -0.3491  1.3777  1.7920
18996TIP3    H278404   5.956   0.589  10.411  0.6221  1.8243  0.8478
18997TIP3   OH278405   5.604   0.166   0.312  0.1216  0.3035 -0.0236
18997TIP3    H178406   5.659   0.192   0.238  1.0874  1.4991  1.0836
18997TIP3    H278407   5.529   0.123   0.272  1.4403 -0.5704 -1.6059
18998TIP3   OH278408   3.106   0.484  13.263 -0.2425 -0.4039 -0.4249
18998TIP3    H178409   3.134   0.561  13.214 -1.3335 -0.2172 -0.7699
18998TIP3    H278410   3.148   0.410  13.219  0.3485 -0.0546 -0.4409
18999TIP3   OH278411   2.282   5.672   3.316 -0.3438 -0.3286 -0.2256
18999TIP3    H178412   2.298   5.708   3.228  0.3059  0.2188  0.1084
18999TIP3    H278413   2.191   5.692   3.334 -1.6851 -4.0440 -2.4217
19000TIP3   OH278414   0.385   1.415  11.372 -0.0023 -0.4923  0.4394
19000TIP3    H178415   0.338   1.465  11.439 -0.8580  0.0366 -0.5626
19000TIP3    H278416   0.389   1.473  11.297  3.7856  0.1803  1.0485
19001TIP3   OH278417   5.069   5.821   0.087 -0.2999  0.5880 -0.1083
19001TIP3    H178418   5.135   5.778   0.141 -1.6265 -0.1924  0.9224
19001TIP3    H278419   4.989   5.771   0.103 -0.7621  0.4983 -2.6268
19002TIP3   OH278420   4.290   0.080   3.035 -0.1591 -0.7243 -0.3851
19002TIP3    H178421   4.287   0.172   3.010 -1.1869 -0.2392  1.4572
19002TIP3    H278422   4.270   0.079   3.128  2.4291 -2.6115  0.2096
19003TIP3   OH278423   3.024   2.501  11.547 -0.2821  0.3366 -0.1426
19003TIP3    H178424   3.074   2.575  11.582 -1.3179  2.2818 -2.6757
19003TIP3    H278425   3.075   2.470  11.472 -1.8794  1.1223 -1.5881
19004TIP3   OH278426   3.939   6.465   2.418 -0.2027 -0.6761  0.2029
19004TIP3    H178427   3.865   6.455   2.358 -0.1175 -1.0708  0.1579
19004TIP3    H278428   3.986   6.382   2.411  0.3122 -0.3829  0.1412
19005TIP3   OH278429   3.647   0.775  15.758  0.8816 -0.5635  0.4641
19005TIP3    H178430   3.686   0.692  15.784 -0.0141 -0.8571  0.8933
19005TIP3    H278431   3.660   0.780  15.663  0.8871 -1.2195  0.4320
19006TIP3   OH278432   3.969   4.127   0.325 -0.0267 -0.1793  0.0570
19006TIP3    H178433   3.884   4.164   0.349  0.8947  1.5271  0.7321
19006TIP3    H278434   3.955   4.032   0.329 -1.0059  0.0540  3.3780
19007TIP3   OH278435   0.274   3.607   2.004  0.3436  0.2870 -0.3993
19007TIP3    H178436   0.368   3.617   1.989  0.2792  0.1354 -0.9146
19007TIP3    H278437   0.234   3.633   1.922 -0.0275 -0.3942 -0.4341
19008TIP3   OH278438   3.390   4.752  12.835 -0.3142  0.1239  0.6662
19008TIP3    H178439   3.350   4.666  12.827 -0.1869 -0.0706  2.0116
19008TIP3    H278440   3.333   4.799  12.896 -1.1655  1.4755 -1.1064
19009TIP3   OH278441   6.476   5.671  17.040 -0.0305 -0.0358  0.4191
19009TIP3    H178442   6.561   5.703  17.009 -1.5687  1.4673 -2.4865
19009TIP3    H278443   6.434   5.749  17.078 -0.3343 -0.6574  1.3903
19010TIP3   OH278444   0.224   3.440  13.627 -0.2240 -0.0556  0.2117
19010TIP3    H178445   0.242   3.507  13.693 -0.7244 -0.5923  0.9032
19010TIP3    H278446   0.178   3.371  13.675 -1.3469 -0.0749 -0.8861
19011TIP3   OH278447   3.737   3.902  13.355  0.5681  0.2864 -0.4900
19011TIP3    H178448   3.751   3.946  13.271  1.2508  0.0907 -0.4817
19011TIP3    H278449   3.679   3.961  13.403  1.0674  0.9407 -0.6777
19012TIP3   OH278450   2.697   3.641   1.759 -0.4148  0.4556 -0.0995
19012TIP3    H178451   2.662   3.573   1.816  0.8965 -0.1401  0.0124
19012TIP3    H278452   2.620   3.690   1.729 -1.3021 -0.6652  0.3353
19013TIP3   OH278453   1.753   1.271  13.373  0.2652 -0.4637  1.1399
19013TIP3    H178454   1.735   1.323  13.294  0.5293 -0.9602  0.7583
19013TIP3    H278455   1.666   1.254  13.410  0.0918 -0.9448  0.5049
19014TIP3   OH278456   4.622   4.054  16.457 -0.0888 -0.2201  0.0151
19014TIP3    H178457   4.673   4.093  16.386 -0.7371 -0.0118 -0.3461
19014TIP3    H278458   4.660   3.968  16.470 -0.0979 -0.3405 -0.7395
19015TIP3   OH278459   4.651   3.118  14.645 -0.5638 -0.3469  0.0513
19015TIP3    H178460   4.612   3.030  14.641  0.9549 -1.0208 -0.2840
19015TIP3    H278461   4.687   3.132  14.557  1.9184 -0.6776  0.9867
19016TIP3   OH278462   0.482   0.372  16.920  0.0764  0.3802 -0.0082
19016TIP3    H178463   0.561   0.406  16.878  0.4877  3.5294  3.0487
19016TIP3    H278464   0.510   0.351  17.009 -1.6752 -2.2281 -0.0452
19017TIP3   OH278465   1.657   4.274   2.042 -0.5425  0.0039  0.2501
19017TIP3    H178466   1.650   4.343   1.976  0.0033 -0.0566  0.1227
19017TIP3    H278467   1.740   4.230   2.022  0.9687  1.6677  2.6061
19018TIP3   OH278468   1.683   2.723  11.263  1.0587  0.1802 -0.1570
19018TIP3    H178469   1.688   2.786  11.191  2.1638 -0.0694 -0.3019
19018TIP3    H278470   1.755   2.747  11.321  0.8176 -0.2810  0.3338
19019TIP3   OH278471   6.446   3.287  11.305 -0.1711  0.1597 -0.4331
19019TIP3    H178472   6.387   3.226  11.261 -1.3295 -0.4798  1.9706
19019TIP3    H278473   6.473   3.242  11.385  0.9879  1.7854  0.1242
19020TIP3   OH278474   5.279   4.029   0.219  0.2326  0.3478 -0.8977
19020TIP3    H178475   5.210   3.963   0.218  1.1223 -0.6076 -0.3215
19020TIP3    H278476   5.330   4.009   0.297 -0.2668  2.5537  0.0220
19021TIP3   OH278477   0.337   1.835  12.584  0.4220 -0.1517 -0.1704
19021TIP3    H178478   0.255   1.802  12.548 -0.3740  2.3071 -0.6950
19021TIP3    H278479   0.341   1.799  12.672 -0.6953 -1.1470 -0.5150
19022TIP3   OH278480   4.190   0.967   4.966  0.4271 -0.4291  0.3531
19022TIP3    H178481   4.226   0.925   5.044 -0.6092 -1.4395  0.3079
19022TIP3    H278482   4.266   0.991   4.913  1.3765  3.5801  3.2880
19023TIP3   OH278483   5.654   4.792  15.423  0.0687 -0.5314 -0.1998
19023TIP3    H178484   5.720   4.791  15.492  0.9688 -1.5431 -1.0558
19023TIP3    H278485   5.702   4.772  15.343 -1.3073 -1.6323 -0.7842
19024TIP3   OH278486   3.120   0.431  13.558  0.5599 -0.4611 -0.2248
19024TIP3    H178487   3.137   0.440  13.464  0.9077 -2.5030 -0.3652
19024TIP3    H278488   3.139   0.518  13.594  1.1966  0.1125 -1.9164
19025TIP3   OH278489   3.841   6.746   4.329 -0.1989  0.3779 -0.1869
19025TIP3    H178490   3.844   6.841   4.337  1.1819  0.1861  2.0812
19025TIP3    H278491   3.933   6.720   4.330 -0.5745 -1.0001 -0.6930
19026TIP3   OH278492   1.740   4.017  14.412  0.0962  0.2344  0.2387
19026TIP3    H178493   1.829   4.045  14.390  0.0470  0.1705 -0.0371
19026TIP3    H278494   1.694   4.098  14.434  0.0357  0.3402 -0.2724
19027TIP3   OH278495   3.440   4.133  12.513 -0.0265 -0.7249 -0.4580
19027TIP3    H178496   3.450   4.051  12.561  1.0628 -0.3420 -0.0243
19027TIP3    H278497   3.502   4.126  12.441  2.2122  0.8958  1.2154
19028TIP3   OH278498   5.805   3.909   4.179  0.4023 -1.0607  0.2048
19028TIP3    H178499   5.773   3.877   4.263  0.8866  1.7517  1.5267
19028TIP3    H278500   5.891   3.867   4.168  1.0855 -0.1901  1.9585
19029TIP3   OH278501   0.054   6.069   3.077 -0.0410 -0.0752 -0.7131
19029TIP3    H178502  -0.012   6.010   3.112  1.2284  0.5049  2.9194
19029TIP3    H278503   0.126   6.011   3.050  0.5612 -0.3664  1.3891
19030TIP3   OH278504   0.580   3.467   3.144 -0.9332 -0.2350  0.5484
19030TIP3    H178505   0.556   3.517   3.222  1.2163 -0.4733  1.3858
19030TIP3    H278506   0.594   3.378   3.175 -0.4109 -0.4130 -0.1662
19031TIP3   OH278507   4.970   3.336  16.166 -0.5819  0.2575 -0.0461
19031TIP3    H178508   4.979   3.429  16.143 -0.3885  0.0311 -0.9147
19031TIP3    H278509   4.896   3.333  16.226  0.1828  1.1366  0.9536
19032TIP3   OH278510   3.623   6.732  14.414  0.3973 -0.4532  0.6140
19032TIP3    H178511   3.647   6.663  14.476 -1.1266 -1.7155 -0.1574
19032TIP3    H278512   3.584   6.684  14.340  0.2451  1.1709 -0.3693
19033TIP3   OH278513   1.440   6.184  16.646  0.1031 -0.2394  0.2424
19033TIP3    H178514   1.390   6.266  16.656  1.8528  0.9687 -0.6821
19033TIP3    H278515   1.503   6.203  16.576 -0.0924 -2.7050 -0.6196
19034TIP3   OH278516   0.316   4.414  16.487 -1.1084  0.8255 -0.0490
19034TIP3    H178517   0.321   4.469  16.409 -1.3825  0.5096 -0.2927
19034TIP3    H278518   0.264   4.464  16.549 -0.0532  1.5061  0.2924
19035TIP3   OH278519   6.488   4.399  14.887 -0.4938  0.2153 -0.4645
19035TIP3    H178520   6.474   4.494  14.889  1.3942  0.5191 -0.5665
19035TIP3    H278521   6.483   4.376  14.794  0.8843  0.5275 -0.6272
19036TIP3   OH278522   4.785   5.851   0.300 -0.0583 -0.4833  0.0489
19036TIP3    H178523   4.816   5.764   0.274 -0.7580 -0.4394 -0.9969
19036TIP3    H278524   4.720   5.834   0.368  0.2202 -0.7451  0.2496
19037TIP3   OH278525   0.012   0.903  15.505 -0.1687 -0.5244  0.6716
19037TIP3    H178526  -0.069   0.932  15.547  0.3858 -0.8506  1.9972
19037TIP3    H278527   0.062   0.862  15.575  1.4645  0.3043  0.0354
19038TIP3   OH278528   2.852   2.056   5.846 -0.0478  0.3424 -0.0855
19038TIP3    H178529   2.757   2.047   5.838 -0.4218  2.4825  1.6048
19038TIP3    H278530   2.869   2.051   5.940  1.0858  3.4665 -0.0710
19039TIP3   OH278531   1.062   2.544   6.194  0.5931 -0.4494 -0.0547
19039TIP3    H178532   1.006   2.608   6.238  0.3236 -0.8854  0.2521
19039TIP3    H278533   1.138   2.534   6.252  0.6971 -0.3048 -0.1683
19040TIP3   OH278534   0.020   0.003   4.196 -0.2130 -0.0561  0.3365
19040TIP3    H178535   0.074   0.069   4.238  1.4164  0.0177 -1.8045
19040TIP3    H278536  -0.048   0.052   4.150  1.1331  0.2020 -1.4468
19041TIP3   OH278537   3.881   4.203   4.003  0.6455 -0.4234 -0.6535
19041TIP3    H178538   3.793   4.238   4.018  0.1615 -2.7433  2.3101
19041TIP3    H278539   3.939   4.269   4.039 -0.1002 -0.9022  1.4870
19042TIP3   OH278540   5.809   2.393  15.828  0.0008  1.0000 -0.0796
19042TIP3    H178541   5.828   2.353  15.913 -1.4052  0.2942 -0.0838
19042TIP3    H278542   5.895   2.422  15.795  0.7531 -0.1032  0.8782
19043TIP3   OH278543   6.275   1.512  14.865 -0.1167 -0.1446  0.3967
19043TIP3    H178544   6.183   1.495  14.888 -0.2495 -1.2996 -0.9344
19043TIP3    H278545   6.271   1.551  14.778  0.6850 -0.5951  0.1531
19044TIP3   OH278546   5.408   5.167   1.840 -0.3461  0.1160  0.5997
19044TIP3    H178547   5.391   5.184   1.933 -2.9303  0.0480  0.1637
19044TIP3    H278548   5.324   5.178   1.797  0.6479 -0.6754 -1.6469
19045TIP3   OH278549   4.497   1.042  13.664 -0.0104 -0.5080 -0.1449
19045TIP3    H178550   4.532   1.126  13.694 -0.7039 -0.3376  0.1833
19045TIP3    H278551   4.403   1.048  13.679 -0.1388 -1.1108 -0.6926
19046TIP3   OH278552   2.514   3.598   3.965  0.3182 -0.1019 -0.2200
19046TIP3    H178553   2.475   3.682   3.942  1.3443  0.5103  0.2509
19046TIP3    H278554   2.515   3.597   4.061  1.1884 -0.2314 -0.2230
19047TIP3   OH278555   2.272   5.586   3.899  0.1280  0.3086 -0.5501
19047TIP3    H178556   2.177   5.587   3.889 -0.0588  2.1341  1.3020
19047TIP3    H278557   2.304   5.641   3.828 -0.2405  0.3491 -0.6859
19048TIP3   OH278558   5.192   2.623   5.009 -0.1641  0.1011  0.0191
19048TIP3    H178559   5.159   2.563   5.075 -1.1949  1.3637  0.6880
19048TIP3    H278560   5.140   2.703   5.021  1.3623  1.2290 -0.6341
19049TIP3   OH278561   2.916   0.242   1.949 -0.6199 -0.4398  0.1654
19049TIP3    H178562   2.837   0.263   1.999 -0.3045 -1.6576  1.2008
19049TIP3    H278563   2.884   0.224   1.860 -1.3691  0.1611  0.3085
19050TIP3   OH278564   0.430   3.403   2.256 -0.2061 -0.2046 -0.3516
19050TIP3    H178565   0.417   3.407   2.351 -0.1951 -2.5503 -0.2100
19050TIP3    H278566   0.520   3.369   2.246  0.2831  1.2904 -1.2217
19051TIP3   OH278567   5.903   0.682  11.122  0.8861  0.5556  0.0681
19051TIP3    H178568   5.828   0.625  11.139 -0.0775  1.3240 -1.4741
19051TIP3    H278569   5.967   0.625  11.080  0.5545  0.2415 -0.0123
19052TIP3   OH278570   5.002   0.897   1.017 -0.0964 -0.6703 -0.1348
19052TIP3    H178571   5.059   0.974   1.020 -0.9426 -0.0600  1.5142
19052TIP3    H278572   4.917   0.930   1.046 -0.9118 -1.8668 -1.1408
19053TIP3   OH278573   0.295   2.527   6.247  0.4748 -0.3070 -0.4253
19053TIP3    H178574   0.322   2.595   6.185 -0.2319  0.9729  0.6479
19053TIP3    H278575   0.365   2.526   6.313 -0.4243  0.7046  0.5679
19054TIP3   OH278576   5.292   4.498   4.711 -0.0749 -0.0606 -0.3433
19054TIP3    H178577   5.284   4.436   4.783  0.6398 -0.1554 -0.3404
19054TIP3    H278578   5.242   4.574   4.740 -0.2125 -0.2943  0.0402
19055TIP3   OH278579   5.300   4.516  12.758  0.7484 -0.6718  0.2454
19055TIP3    H178580   5.237   4.466  12.706  0.0185  0.4982 -0.0021
19055TIP3    H278581   5.251   4.592  12.788  2.0953  0.3255 -0.0725
19056TIP3   OH278582   2.707   5.413   1.758 -0.0348 -0.6537  0.3151
19056TIP3    H178583   2.664   5.417   1.844  0.3719 -0.0588  0.4971
19056TIP3    H278584   2.752   5.329   1.758 -0.4566 -0.8806  0.4867
19057TIP3   OH278585   2.987   2.085   0.522  0.1019 -0.2956  0.0838
19057TIP3    H178586   3.077   2.064   0.545 -0.0669  0.3204  1.3406
19057TIP3    H278587   2.968   2.165   0.570 -0.3947  0.8365 -1.9408
19058TIP3   OH278588   6.709   4.692  17.223 -0.1819  0.2850 -0.8189
19058TIP3    H178589   6.673   4.631  17.158 -0.2861  0.2863 -0.7628
19058TIP3    H278590   6.734   4.769  17.171 -0.8965  0.5599 -0.7677
19059TIP3   OH278591   2.407   3.420  15.990 -0.7854 -0.1397  0.5917
19059TIP3    H178592   2.437   3.335  15.957  0.0866  0.0898  0.7930
19059TIP3    H278593   2.477   3.450  16.047 -1.2949  0.5128  0.8847
19060TIP3   OH278594   2.263   3.505  12.840  0.0213  0.3389  0.4868
19060TIP3    H178595   2.190   3.480  12.897  0.0145  0.6962  0.6327
19060TIP3    H278596   2.236   3.587  12.801 -1.0372 -1.1105 -1.9445
19061TIP3   OH278597   4.135   2.969   4.707  0.0708 -0.1297 -0.0108
19061TIP3    H178598   4.072   2.934   4.645  0.1702 -0.9976  0.3729
19061TIP3    H278599   4.219   2.932   4.680  0.2206  0.0239  0.2369
19062TIP3   OH278600   3.501   6.674  11.470 -0.0908 -0.4891 -0.1087
19062TIP3    H178601   3.592   6.669  11.442  0.0373  0.9753  0.0033
19062TIP3    H278602   3.473   6.762  11.445 -1.0730 -0.4552  1.0364
19063TIP3   OH278603   4.306   2.437   2.490  0.1617 -0.2552  0.2611
19063TIP3    H178604   4.286   2.504   2.556 -0.9222 -0.8243  0.5269
19063TIP3    H278605   4.224   2.428   2.440  0.9316  0.0696 -1.0754
19064TIP3   OH278606   4.454   6.482  11.111  0.0075  0.7324 -0.1624
19064TIP3    H178607   4.506   6.558  11.133  0.4615  0.3029  0.2363
19064TIP3    H278608   4.398   6.512  11.038  1.5663  0.8741 -1.3269
19065TIP3   OH278609   2.435   3.888   2.966  0.4269 -0.3455 -0.3899
19065TIP3    H178610   2.371   3.883   2.894 -0.6539 -0.5935  0.5702
19065TIP3    H278611   2.381   3.897   3.045  1.5822 -0.7298  0.4531
19066TIP3   OH278612   6.193   1.959  16.921  0.2836  0.1852  0.0160
19066TIP3    H178613   6.131   1.887  16.908 -1.4694  1.8066 -0.7161
19066TIP3    H278614   6.274   1.915  16.946 -0.4604 -2.1189 -1.4197
19067TIP3   OH278615   4.987   6.271  16.543  0.2664 -0.2899  1.1856
19067TIP3    H178616   5.067   6.324  16.540 -0.7786  1.3851  1.8523
19067TIP3    H278617   4.990   6.219  16.463  2.0940 -0.3562  1.2814
19068TIP3   OH278618   3.614   4.399   0.097 -0.4101 -0.2409  0.2864
19068TIP3    H178619   3.612   4.494   0.107 -2.3434 -0.2737  0.2965
19068TIP3    H278620   3.523   4.374   0.081  0.3747 -1.8608 -1.9042
19069TIP3   OH278621   1.199   6.072  12.829  0.1374 -0.5312 -0.7873
19069TIP3    H178622   1.118   6.064  12.779 -0.3137 -1.5644  0.0813
19069TIP3    H278623   1.264   6.103  12.765 -0.8859  0.1214 -1.5307
19070TIP3   OH278624   1.263   2.679   1.516  0.2766  0.0002 -0.1399
19070TIP3    H178625   1.346   2.706   1.556  0.1632  0.3908 -0.1707
19070TIP3    H278626   1.217   2.634   1.587  0.8906 -1.0234 -0.3690
19071TIP3   OH278627   4.623   1.435  17.152  0.5906 -0.6518  0.2350
19071TIP3    H178628   4.621   1.404  17.243 -0.0279  1.4735  0.9683
19071TIP3    H278629   4.556   1.382  17.108 -0.0853 -0.7292  1.3304
19072TIP3   OH278630   2.102   6.784  10.828  0.0486  0.5294  0.0559
19072TIP3    H178631   2.027   6.773  10.768  0.2763 -1.6292  0.1366
19072TIP3    H278632   2.146   6.863  10.797  0.5749 -0.9254 -3.1175
19073TIP3   OH278633   3.508   4.858   5.949 -0.3744  0.2755 -0.1087
19073TIP3    H178634   3.418   4.828   5.964 -0.0980 -0.4672  0.0890
19073TIP3    H278635   3.540   4.803   5.878 -0.1767  0.7452 -0.3799
19074TIP3   OH278636   2.595   4.565  13.541 -0.3947 -0.0250  0.0055
19074TIP3    H178637   2.560   4.626  13.606 -2.9854  0.5885 -1.8597
19074TIP3    H278638   2.576   4.478  13.577  0.8194  0.2664  1.3872
19075TIP3   OH278639   6.068   1.614  14.328  0.6190  1.1082  0.2245
19075TIP3    H178640   6.113   1.635  14.246  0.4788 -1.1007 -0.4511
19075TIP3    H278641   5.979   1.644  14.315  0.6949  1.1125 -0.3018
19076TIP3   OH278642   0.878   0.448   2.606  0.2270 -0.7369  0.6807
19076TIP3    H178643   0.851   0.401   2.527 -0.4834 -2.4248  1.9012
19076TIP3    H278644   0.798   0.455   2.658  0.9044 -0.5680  1.7128
19077TIP3   OH278645   3.827   6.694  13.653  0.1509 -0.1455  0.3574
19077TIP3    H178646   3.831   6.617  13.596 -0.1572 -1.6582  2.3237
19077TIP3    H278647   3.913   6.735  13.645  0.3605 -0.7598 -0.6145
19078TIP3   OH278648   2.973   5.360  14.678 -0.4414 -0.2637  0.5885
19078TIP3    H178649   3.050   5.312  14.709  0.9557  1.3555 -0.2862
19078TIP3    H278650   2.968   5.337  14.585 -1.0068 -0.3529  0.6442
19079TIP3   OH278651   4.698   0.762   4.089  0.4995 -0.2383  0.4342
19079TIP3    H178652   4.610   0.748   4.124  0.0259 -0.4221 -0.7953
19079TIP3    H278653   4.693   0.845   4.043  1.0942 -0.0311  0.7422
19080TIP3   OH278654   4.751   4.259   0.202 -0.4274  0.0503 -0.6088
19080TIP3    H178655   4.837   4.218   0.209 -0.1463  0.9694  2.0150
19080TIP3    H278656   4.709   4.241   0.286 -1.2398  2.9147 -0.3275
19081TIP3   OH278657   1.774   2.982  16.593  0.1838  0.2035  0.6637
19081TIP3    H178658   1.708   3.006  16.658 -1.5460 -1.3593 -0.4646
19081TIP3    H278659   1.802   2.894  16.619  2.8003  1.3426  1.8654
19082TIP3   OH278660   0.880   6.471  12.439 -0.3588 -0.2064  0.4026
19082TIP3    H178661   0.854   6.507  12.524  1.3198 -1.4437  1.4565
19082TIP3    H278662   0.918   6.545  12.392 -1.6309  0.5689  0.5514
19083TIP3   OH278663   2.977   6.005   0.309 -0.1579  0.3220  0.2963
19083TIP3    H178664   2.984   5.937   0.375 -1.1120  1.1201  1.2257
19083TIP3    H278665   3.048   5.986   0.248  0.0964 -1.0121  0.9940
19084TIP3   OH278666   1.907   2.647   4.198 -0.2935  0.1314 -0.0913
19084TIP3    H178667   1.948   2.599   4.126  0.5493 -0.5954  0.8545
19084TIP3    H278668   1.965   2.721   4.215 -1.2694  1.1725 -1.1300
19085TIP3   OH278669   4.842   3.090   2.108 -0.3306  0.1330 -0.3819
19085TIP3    H178670   4.768   3.125   2.059  0.3699  1.3871 -0.5694
19085TIP3    H278671   4.805   3.063   2.192 -0.7635  2.0979  0.0850
19086TIP3   OH278672   2.116   5.531  15.685  0.2639 -0.1420 -0.3681
19086TIP3    H178673   2.048   5.599  15.685 -0.1922 -0.5923 -0.1633
19086TIP3    H278674   2.073   5.454  15.647  0.6543 -0.4377 -0.2119
19087TIP3   OH278675   1.259   4.715  10.653  0.1410  0.4593 -0.1318
19087TIP3    H178676   1.212   4.755  10.726 -1.6197  1.4444 -1.7439
19087TIP3    H278677   1.319   4.653  10.693 -1.6435  0.1158  2.0766
19088TIP3   OH278678   4.651   1.511   4.528  0.6934  0.2722  0.0213
19088TIP3    H178679   4.736   1.469   4.517  0.4465 -0.4437  0.7440
19088TIP3    H278680   4.642   1.567   4.451  1.7848  0.3061 -0.0967
19089TIP3   OH278681   1.646   1.611  11.698  0.1638  0.8686 -0.1200
19089TIP3    H178682   1.556   1.597  11.669  0.0812 -0.1700  0.6005
19089TIP3    H278683   1.640   1.610  11.794  0.8540  1.4261 -0.0662
19090TIP3   OH278684   5.372   1.275  13.515  0.1749 -0.3701 -0.3167
19090TIP3    H178685   5.453   1.235  13.546  0.1739 -0.8220 -0.8913
19090TIP3    H278686   5.339   1.214  13.450 -1.2075 -0.7308  0.7085
19091TIP3   OH278687   5.035   5.479   1.514  0.6998 -0.5096 -0.0238
19091TIP3    H178688   5.030   5.572   1.492 -2.3395 -0.2802  1.4586
19091TIP3    H278689   5.051   5.435   1.431 -0.4566  1.1403 -1.1407
19092TIP3   OH278690   3.797   1.312  14.055 -0.0748 -0.3708  0.2961
19092TIP3    H178691   3.854   1.383  14.083  1.3199 -1.4138  0.1694
19092TIP3    H278692   3.814   1.303  13.961  0.8024 -1.7592  0.5664
19093TIP3   OH278693   3.546   4.876  15.920  0.0613  0.1514  0.1412
19093TIP3    H178694   3.630   4.912  15.949 -0.3092  0.3983  0.9165
19093TIP3    H278695   3.569   4.791  15.882  0.6524  0.1678  0.4489
19094TIP3   OH278696   6.052   5.039   2.083 -0.1299  0.1490 -0.3594
19094TIP3    H178697   6.138   4.996   2.083  0.0862  0.5802 -0.7274
19094TIP3    H278698   5.990   4.968   2.100  0.2249 -0.3077 -0.9557
19095TIP3   OH278699   4.608   2.280  11.573  0.0906  0.1529 -0.0720
19095TIP3    H178700   4.549   2.350  11.601 -1.9292 -1.4877 -0.0913
19095TIP3    H278701   4.667   2.268  11.647  0.4378  1.8402 -0.0548
19096TIP3   OH278702   3.605   3.239   5.609  0.2917  0.3039 -0.2326
19096TIP3    H178703   3.633   3.285   5.687 -0.5994  0.3310  0.0837
19096TIP3    H278704   3.560   3.305   5.556 -2.9356 -0.6108  1.2211
19097TIP3   OH278705   5.646   4.155   4.658 -0.6716 -0.0070 -0.9597
19097TIP3    H178706   5.724   4.116   4.697 -0.3008  0.0262 -1.6578
19097TIP3    H278707   5.575   4.130   4.717  0.2013  2.0157  1.0220
19098TIP3   OH278708   5.933   6.147  12.140 -0.2332 -0.0452  0.7126
19098TIP3    H178709   5.930   6.217  12.204  0.2022 -1.7471  2.6282
19098TIP3    H278710   6.025   6.139  12.115 -0.5037  1.1481 -0.7783
19099TIP3   OH278711   2.665   5.562  14.959 -0.0034  0.2830 -0.3954
19099TIP3    H178712   2.598   5.601  15.015 -0.3281 -0.2600 -0.4000
19099TIP3    H278713   2.746   5.570  15.009 -0.0621  0.9840 -0.4079
19100TIP3   OH278714   1.233   5.708  13.538  0.1570 -0.1929  0.2324
19100TIP3    H178715   1.195   5.737  13.456  0.9891 -0.3188 -0.2062
19100TIP3    H278716   1.158   5.691  13.595 -0.4252 -0.2459 -0.5450
19101TIP3   OH278717   4.728   2.889   4.411  0.5053  0.6425 -0.7351
19101TIP3    H178718   4.712   2.795   4.410  0.1247  0.7175 -2.0085
19101TIP3    H278719   4.823   2.897   4.418  0.6608  0.1411 -2.0951
19102TIP3   OH278720   1.525   0.359  15.645  0.3826  0.5332 -0.3987
19102TIP3    H178721   1.482   0.417  15.581 -0.6234  0.7292  0.4406
19102TIP3    H278722   1.581   0.303  15.592 -0.8518  0.3226 -1.5218
19103TIP3   OH278723   0.308   2.701   1.131 -0.2326  0.3134  0.0868
19103TIP3    H178724   0.388   2.746   1.158 -0.6403  1.4081 -0.4944
19103TIP3    H278725   0.325   2.675   1.040 -0.1820 -0.2964  0.2676
19104TIP3   OH278726   2.225   2.545  13.507  0.6753 -0.4006 -0.1521
19104TIP3    H178727   2.275   2.463  13.512  1.6032  0.2490  1.7319
19104TIP3    H278728   2.136   2.520  13.532  0.4362 -1.2559 -1.8512
19105TIP3   OH278729   2.515   6.714   5.057  0.3547 -0.3456 -0.2073
19105TIP3    H178730   2.519   6.803   5.092  0.1290 -0.1245 -0.7399
19105TIP3    H278731   2.549   6.722   4.967  1.3716 -0.9914  0.1176
19106TIP3   OH278732   6.133   1.841   2.846  0.2047  0.2410  0.2579
19106TIP3    H178733   6.085   1.923   2.834 -1.1954 -0.4997  0.7117
19106TIP3    H278734   6.067   1.772   2.834  1.3608 -0.8247 -0.1116
19107TIP3   OH278735   4.930   3.675   1.199  0.0842  0.1795  0.1322
19107TIP3    H178736   4.838   3.673   1.226 -0.6184  0.7168 -2.1532
19107TIP3    H278737   4.928   3.673   1.103  2.4635  0.0781  0.0401
19108TIP3   OH278738   5.394   1.613  11.059 -0.3308  0.0720 -0.3696
19108TIP3    H178739   5.312   1.600  11.010 -0.3353  0.8941 -0.5769
19108TIP3    H278740   5.435   1.689  11.018  1.3823 -1.3706 -1.4084
19109TIP3   OH278741   2.189   5.758   5.607 -0.0533  0.2687 -0.2920
19109TIP3    H178742   2.114   5.790   5.556 -1.6522 -3.1376 -0.2110
19109TIP3    H278743   2.157   5.756   5.697  0.7135  0.3699 -0.0147
19110TIP3   OH278744   4.303   6.338   0.935  0.0893  0.0004  0.3542
19110TIP3    H178745   4.228   6.372   0.886 -0.1956 -0.2497  0.6167
19110TIP3    H278746   4.355   6.292   0.869 -0.8303 -1.2278  0.4691
19111TIP3   OH278747   0.497   0.933  13.699 -0.1373 -0.2215  0.4038
19111TIP3    H178748   0.496   0.986  13.619 -1.5052  0.4541  0.8498
19111TIP3    H278749   0.588   0.932  13.726  0.4325 -0.9798 -1.5096
19112TIP3   OH278750   5.121   3.761   2.244  0.4383 -0.5731  0.2140
19112TIP3    H178751   5.113   3.826   2.175  0.7511 -0.8725 -0.1026
19112TIP3    H278752   5.032   3.750   2.278  0.4505  0.3197  0.5460
19113TIP3   OH278753   0.525   6.035   0.171 -1.1799 -0.6104 -0.7146
19113TIP3    H178754   0.619   6.018   0.175 -0.9512  0.8332  0.1115
19113TIP3    H278755   0.485   5.949   0.187 -0.0171 -1.3160 -1.5108
19114TIP3   OH278756   4.031   3.946  16.940  0.4717 -0.5726 -0.5058
19114TIP3    H178757   4.048   3.859  16.903 -0.4909 -0.2180 -1.8023
19114TIP3    H278758   3.949   3.936  16.989  0.3892 -0.4107 -0.6106
19115TIP3   OH278759   6.298   3.109   2.458 -0.2737  0.9263 -0.3941
19115TIP3    H178760   6.262   3.086   2.543  2.6567 -0.1858  0.6046
19115TIP3    H278761   6.307   3.026   2.412 -0.7023  1.3839 -1.3264
19116TIP3   OH278762   2.712   5.665  12.538  0.5250 -0.3400 -0.0887
19116TIP3    H178763   2.652   5.598  12.571 -1.1678  1.4688  0.5164
19116TIP3    H278764   2.720   5.728  12.609  1.1932  0.7388 -1.1097
19117TIP3   OH278765   3.089   5.151   2.710  0.1293  0.6158  0.2316
19117TIP3    H178766   3.050   5.133   2.796 -3.4334  0.4340 -1.3531
19117TIP3    H278767   3.122   5.065   2.681  0.2118  0.4365  0.8370
19118TIP3   OH278768   2.773   4.785  16.387 -0.4412 -0.1597  0.1314
19118TIP3    H178769   2.832   4.740  16.326 -0.6930  0.2067 -0.3863
19118TIP3    H278770   2.819   4.783  16.471 -0.1258 -0.7372 -0.0501
19119TIP3   OH278771   1.540   0.688   2.398 -0.9240  0.5530  0.3212
19119TIP3    H178772   1.514   0.628   2.329 -2.2348  1.1595  0.2629
19119TIP3    H278773   1.481   0.763   2.388  0.3924  1.6536  0.6635
19120TIP3   OH278774   4.308   4.811  16.738 -0.4122  0.6043  0.2390
19120TIP3    H178775   4.297   4.847  16.650  0.7531 -2.8471 -1.4057
19120TIP3    H278776   4.400   4.788  16.744 -0.9591 -1.4131  1.4666
19121TIP3   OH278777   0.401   4.642  13.312 -0.2057 -0.1859 -0.3919
19121TIP3    H178778   0.361   4.581  13.373 -2.0819  0.8760 -0.5054
19121TIP3    H278779   0.345   4.720  13.315  1.2879  0.9778 -1.3303
19122TIP3   OH278780   3.670   4.217  14.047  0.2595 -0.6448  0.0970
19122TIP3    H178781   3.693   4.176  13.964 -2.9258  0.0021 -1.2092
19122TIP3    H278782   3.674   4.311  14.030 -0.8437 -0.5088  0.5228
19123TIP3   OH278783   0.746   6.168  17.160  0.2127 -0.7641 -0.6463
19123TIP3    H178784   0.734   6.255  17.198 -0.8539 -1.3318  0.3563
19123TIP3    H278785   0.784   6.184  17.074  0.0869  0.6876 -0.4388
19124TIP3   OH278786   0.932   1.865   0.516 -0.4975 -0.2998  0.2962
19124TIP3    H178787   0.839   1.868   0.495 -0.1709  0.1757 -1.1099
19124TIP3    H278788   0.976   1.888   0.435  0.8148  0.8567  1.3025
19125TIP3   OH278789   6.537   2.052   2.432  0.2527  0.1786  0.1562
19125TIP3    H178790   6.511   1.986   2.496  0.5107  0.1206  0.2012
19125TIP3    H278791   6.596   2.111   2.480 -0.1177  0.5419  0.1645
19126TIP3   OH278792   3.302   4.424   6.234  0.6103  0.1289 -0.0060
19126TIP3    H178793   3.293   4.388   6.145 -1.2142  0.1705  0.1495
19126TIP3    H278794   3.216   4.461   6.254 -0.1083 -2.9502  3.1111
19127TIP3   OH278795   5.105   1.270   2.301 -0.0896 -0.5413  0.2054
19127TIP3    H178796   5.081   1.190   2.255  2.2729 -0.1941 -1.7308
19127TIP3    H278797   5.135   1.329   2.231  1.3004  0.8621  1.9525
19128TIP3   OH278798   1.627   2.501   1.523  0.4827 -0.0532  0.4559
19128TIP3    H178799   1.563   2.504   1.595  0.4768 -0.6107  0.4716
19128TIP3    H278800   1.696   2.443   1.555  0.0774 -0.9747 -0.3198
19129TIP3   OH278801   2.344   5.093  13.511 -0.5189 -0.3190 -0.0627
19129TIP3    H178802   2.309   5.154  13.576  0.1276  0.4954 -0.4548
19129TIP3    H278803   2.414   5.046  13.557  0.5877  0.9369 -0.4152
19130TIP3   OH278804   4.202   3.670   6.812 -0.1081  0.0071  0.1186
19130TIP3    H178805   4.264   3.726   6.764  0.4106 -0.1931  0.5493
19130TIP3    H278806   4.257   3.618   6.871 -0.6397 -0.5711  0.1099
19131TIP3   OH278807   3.584   2.054   2.934 -0.3029  0.5054  0.1679
19131TIP3    H178808   3.653   2.028   2.872  1.9611  1.1890  2.3104
19131TIP3    H278809   3.566   2.146   2.912 -0.8029  0.2104 -0.6527
19132TIP3   OH278810   5.421   5.125  15.861 -0.2102 -0.4661  0.2507
19132TIP3    H178811   5.347   5.116  15.921  0.0765 -1.6900  0.4230
19132TIP3    H278812   5.482   5.056  15.887  1.6013  1.3626  0.9659
19133TIP3   OH278813   4.998   5.982  17.065  0.3742 -0.5493  0.0757
19133TIP3    H178814   5.025   5.912  17.006 -0.8008 -0.8765 -0.0828
19133TIP3    H278815   5.032   5.957  17.150  1.4968 -0.4143 -0.3265
19134TIP3   OH278816   5.491   1.047   4.325 -0.2977 -0.2234  0.0548
19134TIP3    H178817   5.396   1.035   4.336 -0.5393  1.8879  0.6615
19134TIP3    H278818   5.500   1.140   4.305  1.4409 -0.9809 -2.8759
19135TIP3   OH278819   5.570   4.462  12.816 -0.3862  0.1099 -0.0688
19135TIP3    H178820   5.479   4.444  12.837 -0.8103  0.8080 -1.2789
19135TIP3    H278821   5.573   4.557  12.801  0.5214  0.0822 -0.1080
19136TIP3   OH278822   4.697   4.937  14.066 -0.5790  0.3109  0.7353
19136TIP3    H178823   4.651   4.856  14.088  0.1506 -0.2480  0.2366
19136TIP3    H278824   4.746   4.917  13.987 -1.3472  1.6231 -0.0926
19137TIP3   OH278825   2.419   5.319  13.144  0.1421  0.2009  0.2643
19137TIP3    H178826   2.455   5.315  13.055  1.1056 -0.4844  0.6831
19137TIP3    H278827   2.491   5.349  13.198 -0.5061  0.8068  0.7955
19138TIP3   OH278828   6.156   4.501   1.727 -0.7723  0.1798  0.5856
19138TIP3    H178829   6.200   4.583   1.705 -2.3752  0.5674 -1.3211
19138TIP3    H278830   6.129   4.512   1.818  1.1862  0.7818  1.0993
19139TIP3   OH278831   2.841   2.588  14.923 -0.1502  0.1750  0.7849
19139TIP3    H178832   2.810   2.498  14.938  0.7968 -0.0547  1.3610
19139TIP3    H278833   2.826   2.602  14.829  2.9038 -1.8338 -0.0758
19140TIP3   OH278834   3.067   1.758  11.045 -0.4164 -0.1323 -0.1633
19140TIP3    H178835   3.072   1.829  10.981 -0.4714 -0.9266 -1.0485
19140TIP3    H278836   3.143   1.771  11.101 -0.9278  1.1722  0.2487
19141TIP3   OH278837   4.276   5.622  11.912 -0.0450  0.4434  0.2918
19141TIP3    H178838   4.226   5.625  11.993 -0.8449  0.9014 -0.2059
19141TIP3    H278839   4.304   5.712  11.898 -0.4472  0.4829 -0.2686
19142TIP3   OH278840   3.810   6.270  12.552 -0.2808  0.2049  0.0802
19142TIP3    H178841   3.721   6.235  12.544 -1.0101  2.0297  0.1340
19142TIP3    H278842   3.803   6.362  12.528  1.6759  0.2928 -0.2874
19143TIP3   OH278843   3.873   2.458  10.831 -0.0224 -0.3391  0.4778
19143TIP3    H178844   3.822   2.505  10.897  0.1003 -0.9159  0.9923
19143TIP3    H278845   3.955   2.435  10.876 -0.0729 -1.0197  0.2343
19144TIP3   OH278846   2.976   6.354   1.652  0.1967 -0.6883 -0.2702
19144TIP3    H178847   2.967   6.310   1.568  2.4036 -1.2219 -0.2736
19144TIP3    H278848   3.018   6.289   1.709  1.8944  0.7940  0.2289
19145TIP3   OH278849   3.497   5.027   1.055 -0.1283  0.7579 -0.1594
19145TIP3    H178850   3.442   5.071   1.120 -2.0308 -0.1644 -1.1274
19145TIP3    H278851   3.459   5.051   0.971  1.1316  0.3377 -0.8617
19146TIP3   OH278852   4.316   3.500  10.669 -0.5253 -0.4641  0.0500
19146TIP3    H178853   4.236   3.552  10.680 -0.8106 -0.7311 -0.8033
19146TIP3    H278854   4.360   3.540  10.595 -0.2393 -0.8051  0.0386
19147TIP3   OH278855   3.415   4.209   2.814 -0.2113 -0.1568 -0.0561
19147TIP3    H178856   3.355   4.247   2.749 -1.9024 -0.1107  1.4812
19147TIP3    H278857   3.459   4.138   2.767 -2.2398 -0.8673 -0.9522
19148TIP3   OH278858   3.553   3.598  14.703 -0.1253 -0.1259  0.3691
19148TIP3    H178859   3.501   3.552  14.638  0.6977  0.4276 -0.6977
19148TIP3    H278860   3.489   3.629  14.767 -0.9935 -0.2844 -0.4084
19149TIP3   OH278861   6.243   2.025   5.429  0.6172 -0.1863 -0.3718
19149TIP3    H178862   6.318   1.986   5.384  0.7173 -0.7709  0.3004
19149TIP3    H278863   6.236   2.113   5.391  0.1715 -0.9583 -2.1416
19150TIP3   OH278864   2.131   6.368   1.371  0.1561 -0.2406 -0.4232
19150TIP3    H178865   2.094   6.440   1.319 -2.3783 -0.9503  0.3095
19150TIP3    H278866   2.141   6.296   1.309  0.2935 -0.0391 -0.6348
19151TIP3   OH278867   1.919   0.199  14.243 -0.2444 -0.3676  0.3708
19151TIP3    H178868   1.835   0.205  14.289 -0.4460 -3.2018  0.4449
19151TIP3    H278869   1.984   0.189  14.312  0.0308  0.5597  0.2527
19152TIP3   OH278870   6.485   3.939  12.359  0.1379 -0.0537  0.4697
19152TIP3    H178871   6.392   3.937  12.383 -0.2624 -3.9223 -1.0994
19152TIP3    H278872   6.493   4.017  12.303 -2.4110 -0.2924 -0.2886
19153TIP3   OH278873   3.166   2.430  11.319 -0.9727 -0.2480 -0.7155
19153TIP3    H178874   3.180   2.525  11.319 -0.5063 -0.2666  2.1367
19153TIP3    H278875   3.241   2.394  11.272 -1.4823  0.8198 -2.3879
19154TIP3   OH278876   6.241   5.531  16.642  0.0213 -0.2491  0.5367
19154TIP3    H178877   6.268   5.621  16.662  2.2911 -0.6479 -0.6787
19154TIP3    H278878   6.154   5.541  16.603 -0.3358  1.3026  1.6628
19155TIP3   OH278879   1.439   2.152  14.572  0.4589  0.1757  0.2940
19155TIP3    H178880   1.355   2.161  14.528  0.7062 -1.4887 -0.5724
19155TIP3    H278881   1.416   2.135  14.664 -0.1882 -1.4184 -0.1525
19156TIP3   OH278882   5.793   4.281   1.674 -0.1115 -0.3586 -0.9100
19156TIP3    H178883   5.856   4.306   1.606 -0.7845 -0.4096 -1.5583
19156TIP3    H278884   5.718   4.339   1.660  0.1613  0.3292  0.4387
19157TIP3   OH278885   0.026   6.691   2.251  0.0254  0.3666  0.0154
19157TIP3    H178886  -0.013   6.737   2.325  1.0663  1.7026 -0.2365
19157TIP3    H278887  -0.001   6.600   2.261  1.0226  0.3366  2.5992
19158TIP3   OH278888   1.438   0.466  13.436  0.0397  0.1187  0.0811
19158TIP3    H178889   1.449   0.374  13.415  1.4923  0.3660 -0.2912
19158TIP3    H278890   1.390   0.466  13.519 -0.3243 -0.9552 -0.1226
19159TIP3   OH278891   1.749   6.028  15.986  0.5878  0.2260 -0.9240
19159TIP3    H178892   1.723   5.986  15.904 -1.2408  0.1609 -0.3340
19159TIP3    H278893   1.779   5.956  16.042  1.3311  0.2113 -1.3279
19160TIP3   OH278894   4.699   5.769   2.465  0.1129  0.2276  0.1471
19160TIP3    H178895   4.753   5.703   2.420  0.3675  0.7495 -0.3222
19160TIP3    H278896   4.623   5.780   2.408 -0.0691  0.1312  0.3717
19161TIP3   OH278897   1.333   5.985   5.322  0.3913 -0.1713 -0.0239
19161TIP3    H178898   1.246   6.007   5.357  1.1799  2.1680  0.5669
19161TIP3    H278899   1.390   5.986   5.399  1.9079  3.6748 -1.0847
19162TIP3   OH278900   5.156   6.395   1.700 -0.0567 -0.1750 -0.2298
19162TIP3    H178901   5.062   6.385   1.684  0.1149 -1.0753 -0.7022
19162TIP3    H278902   5.162   6.468   1.762 -0.9910  0.5981 -1.0339
19163TIP3   OH278903   6.729   4.244   5.651  0.0474 -0.3289  0.5364
19163TIP3    H178904   6.716   4.247   5.556 -0.2229 -1.3799  0.5296
19163TIP3    H278905   6.653   4.194   5.683 -0.2174  0.6021  1.3742
19164TIP3   OH278906   4.766   3.621   4.003  0.3141 -0.5662 -0.4199
19164TIP3    H178907   4.810   3.573   4.073 -0.2558 -0.3966  0.0541
19164TIP3    H278908   4.685   3.572   3.987  1.6392 -2.1116 -2.7604
19165TIP3   OH278909   5.621   5.865  15.394 -0.0893  0.2312  0.3119
19165TIP3    H178910   5.536   5.863  15.350  0.6772 -1.1319 -1.1564
19165TIP3    H278911   5.631   5.778  15.433  0.4611  0.5084  0.8078
19166TIP3   OH278912   5.940   1.766   4.120  0.4133 -0.0570  0.4428
19166TIP3    H178913   5.864   1.721   4.084  0.1701  0.1714  0.6735
19166TIP3    H278914   5.979   1.812   4.045  0.4108 -0.2932  0.2966
19167TIP3   OH278915   3.930   2.217   3.755  0.0900  0.3612  0.0183
19167TIP3    H178916   3.840   2.248   3.768 -0.2236 -0.7907  0.6601
19167TIP3    H278917   3.984   2.288   3.790 -0.6236  0.0993  1.7588
19168TIP3   OH278918   5.209   2.207  17.088 -0.0041 -0.4177  0.2435
19168TIP3    H178919   5.289   2.164  17.116 -0.0505 -0.9236 -0.3812
19168TIP3    H278920   5.232   2.249  17.005 -0.1012  0.3276  0.5886
19169TIP3   OH278921   4.688   0.928  12.438  0.6706 -0.3558 -0.0390
19169TIP3    H178922   4.698   0.834  12.424  1.7570 -0.1339 -0.7255
19169TIP3    H278923   4.709   0.968  12.354  1.4017  0.5826  0.5862
19170TIP3   OH278924   3.152   2.808  10.707 -0.2659 -0.8096  1.0858
19170TIP3    H178925   3.153   2.712  10.715 -1.0115 -0.8337  0.8834
19170TIP3    H278926   3.213   2.826  10.635  0.0653 -1.1099  1.2846
19171TIP3   OH278927   1.689   2.082  13.539  0.8845  0.7061  0.1270
19171TIP3    H178928   1.780   2.057  13.520 -0.3423 -1.8086 -2.8397
19171TIP3    H278929   1.656   2.116  13.456 -1.0366  1.1805  1.0681
19172TIP3   OH278930   6.516   2.292   2.064 -0.5587 -0.4548 -0.3786
19172TIP3    H178931   6.508   2.202   2.033 -0.6937 -0.5901  0.0470
19172TIP3    H278932   6.592   2.327   2.018  0.0617 -1.0754  0.1633
19173TIP3   OH278933   0.820   4.901  16.139 -0.1486  0.7084  0.1607
19173TIP3    H178934   0.740   4.859  16.170  0.8005 -1.7735 -0.5664
19173TIP3    H278935   0.857   4.838  16.077  1.3024  2.7187 -1.0934
19174TIP3   OH278936   4.291   4.254  13.586  0.0817  0.5125 -0.1125
19174TIP3    H178937   4.273   4.311  13.512 -1.0388 -0.3054 -0.4875
19174TIP3    H278938   4.377   4.218  13.568 -1.0043 -1.2410 -2.0643
19175TIP3   OH278939   3.706   1.864  16.482  0.0453 -0.0186  0.2890
19175TIP3    H178940   3.649   1.827  16.415  0.5992 -0.3694  0.0071
19175TIP3    H278941   3.646   1.898  16.549 -0.5070  0.3050 -0.3621
19176TIP3   OH278942   1.933   0.556  15.723 -0.5251  0.4848  0.0677
19176TIP3    H178943   1.877   0.535  15.648 -0.6603 -2.0741  0.8267
19176TIP3    H278944   2.019   0.575  15.684 -0.4845 -1.2221 -0.7571
19177TIP3   OH278945   1.288   0.437   3.551  0.6354 -0.1243 -0.6555
19177TIP3    H178946   1.299   0.388   3.633 -0.0076 -0.3862 -0.7239
19177TIP3    H278947   1.318   0.377   3.483  2.0353  0.4227 -0.5418
19178TIP3   OH278948   1.474   0.652   5.112 -0.3305  0.0327  0.2603
19178TIP3    H178949   1.559   0.683   5.142  0.0909 -1.6825  0.9087
19178TIP3    H278950   1.482   0.557   5.111 -2.5329 -0.1991  1.2667
19179TIP3   OH278951   5.031   3.070  13.025 -0.5681 -0.8462  0.2922
19179TIP3    H178952   5.116   3.047  12.987 -1.1674  0.4044 -1.8997
19179TIP3    H278953   5.028   3.024  13.109  2.1827 -1.0532  0.2952
19180TIP3   OH278954   4.225   2.968   3.560 -0.3211 -0.3811  0.2175
19180TIP3    H178955   4.220   2.904   3.630 -0.5735 -0.8381 -0.2109
19180TIP3    H278956   4.138   3.008   3.557 -0.8351 -1.5348 -0.9150
19181TIP3   OH278957   6.340   1.724  13.779  0.9849 -0.7254  0.3903
19181TIP3    H178958   6.377   1.809  13.756  2.1284 -1.3597 -0.2111
19181TIP3    H278959   6.277   1.706  13.710 -0.6271  0.4529  1.5245
19182TIP3   OH278960   4.777   6.145   5.467  0.5499  0.4837 -0.2457
19182TIP3    H178961   4.825   6.066   5.442  0.8314 -0.0964  2.0187
19182TIP3    H278962   4.845   6.204   5.501 -0.1419  0.1331  1.8280
19183TIP3   OH278963   5.504   4.129   5.177 -0.0818 -0.6474 -0.4106
19183TIP3    H178964   5.575   4.122   5.112  0.9166  1.8687  0.3505
19183TIP3    H278965   5.446   4.196   5.141 -0.9636 -1.1512  0.0462
19184TIP3   OH278966   5.860   1.377  14.108 -0.5058  0.4288 -0.0094
19184TIP3    H178967   5.847   1.335  14.022 -0.0563  1.6474 -0.6891
19184TIP3    H278968   5.955   1.378  14.120 -0.6482 -2.0528  1.7086
19185TIP3   OH278969   3.800   0.490   3.445 -0.2147  0.6394  0.3004
19185TIP3    H178970   3.863   0.479   3.516  0.0368 -1.4276 -0.2231
19185TIP3    H278971   3.766   0.579   3.457  2.4098  1.5854  0.8702
19186TIP3   OH278972   5.358   0.809  15.088 -0.1375  0.2875 -0.1186
19186TIP3    H178973   5.331   0.880  15.031  2.1623 -0.7323 -2.5654
19186TIP3    H278974   5.411   0.752  15.033 -1.5710 -3.1371  1.8959
19187TIP3   OH278975   1.869   3.995  14.995  0.1309  0.1781  0.0708
19187TIP3    H178976   1.955   3.953  14.995 -0.5627 -1.3354 -2.4334
19187TIP3    H278977   1.866   4.045  14.914 -1.6763 -0.5204 -0.3210
19188TIP3   OH278978   0.350   3.813  12.709  0.4571 -0.5067  0.6671
19188TIP3    H178979   0.383   3.796  12.797  2.6940 -1.3377 -0.3150
19188TIP3    H278980   0.392   3.895  12.682 -0.3598 -0.1580  0.4043
19189TIP3   OH278981   4.830   4.334  16.117 -0.2034 -0.3443 -0.2867
19189TIP3    H178982   4.842   4.252  16.069  0.1692 -0.6992  0.4028
19189TIP3    H278983   4.744   4.326  16.158 -0.1159 -0.4424 -0.1230
19190TIP3   OH278984   6.166   1.343  11.941  0.4605  0.6143  0.3358
19190TIP3    H178985   6.190   1.413  11.880  0.6331  0.8946  0.7266
19190TIP3    H278986   6.092   1.379  11.990 -0.0943  0.1432 -0.1508
19191TIP3   OH278987   1.288   2.018   1.460 -0.5779 -0.5450  0.2899
19191TIP3    H178988   1.289   1.935   1.506  0.5512 -0.4349  0.4749
19191TIP3    H278989   1.247   2.079   1.521  0.9340 -0.3948  1.1626
19192TIP3   OH278990   1.363   2.420  12.369  0.0093  0.0426 -0.0821
19192TIP3    H178991   1.442   2.398  12.418  0.4213 -0.6607 -1.0342
19192TIP3    H278992   1.394   2.472  12.295 -0.0195 -2.7868 -2.1452
19193TIP3   OH278993   2.740   6.117   5.662  0.6203 -0.1922  0.0642
19193TIP3    H178994   2.797   6.194   5.660  1.5221 -0.8634 -0.1215
19193TIP3    H278995   2.798   6.043   5.680 -0.2940 -0.7926  0.6337
19194TIP3   OH278996   0.616   4.553  11.332 -0.2510 -0.0388  0.2531
19194TIP3    H178997   0.684   4.517  11.275 -0.1502  0.5257  0.0092
19194TIP3    H278998   0.577   4.477  11.375  1.2528 -0.2960  1.2157
19195TIP3   OH278999   3.211   5.750  15.882 -0.0759 -0.0829 -0.3011
19195TIP3    H179000   3.284   5.788  15.834  0.0943  0.5889  0.4898
19195TIP3    H279001   3.250   5.682  15.936 -0.1858 -0.4071 -0.6195
19196TIP3   OH279002   0.077   1.708  12.545  0.5860  0.4928 -0.1916
19196TIP3    H179003   0.050   1.617  12.535  1.1261  0.0161  2.2715
19196TIP3    H279004   0.019   1.742  12.614  1.9056  1.3262  0.5303
19197TIP3   OH279005   0.063   1.431  12.546 -0.0408 -0.4441  0.3160
19197TIP3    H179006   0.037   1.358  12.489  0.4306  0.3452 -0.9081
19197TIP3    H279007   0.044   1.399  12.635 -1.7263 -1.3018 -0.3272
19198TIP3   OH279008   5.821   3.792   0.090  0.0109 -0.2022  0.2458
19198TIP3    H179009   5.767   3.787   0.169  1.0320 -1.2013  0.9009
19198TIP3    H279010   5.878   3.868   0.106 -1.9108  1.5458 -0.9344
19199TIP3   OH279011   0.995   4.158   3.339 -0.7880 -0.2250 -0.3411
19199TIP3    H179012   1.064   4.202   3.388 -1.0064  0.6493 -0.8103
19199TIP3    H279013   0.961   4.092   3.400 -0.2952  0.0894  0.2838
19200TIP3   OH279014   1.242   5.706   4.029 -0.6230  0.0097 -0.4959
19200TIP3    H179015   1.310   5.717   4.096 -0.1887 -0.7627 -0.8041
19200TIP3    H279016   1.188   5.784   4.038 -0.8535 -0.3070  1.0710
19201TIP3   OH279017   0.865   1.685  14.072  0.1262  0.4035 -0.4142
19201TIP3    H179018   0.797   1.717  14.131  1.4847  0.5248  1.1110
19201TIP3    H279019   0.879   1.757  14.010 -1.6979  0.0576 -1.2667
19202TIP3   OH279020   3.016   3.136  14.533  0.0221 -0.3935 -0.1055
19202TIP3    H179021   3.095   3.101  14.491 -0.9790 -3.5899  0.5064
19202TIP3    H279022   2.951   3.140  14.463  0.0904  0.1655 -0.1426
19203TIP3   OH279023   1.235   4.680  11.112 -0.5659 -0.0997 -0.5140
19203TIP3    H179024   1.319   4.692  11.068  0.3144  2.7590  1.7775
19203TIP3    H279025   1.170   4.708  11.047  0.5271  1.4016 -0.9980
19204TIP3   OH279026   2.467   5.408   1.953  0.1097 -0.6414  0.2015
19204TIP3    H179027   2.436   5.486   1.999  1.6368 -0.2246  0.5449
19204TIP3    H279028   2.388   5.356   1.939 -0.9379  1.0167 -0.1428
19205TIP3   OH279029   1.493   3.013   4.630 -0.2185  0.3004 -0.2069
19205TIP3    H179030   1.504   3.072   4.555 -2.2945  0.6602 -0.2624
19205TIP3    H279031   1.400   2.991   4.630  0.4001 -2.4939  0.2088
19206TIP3   OH279032   5.647   3.923   6.069  0.3824 -0.0169  0.1617
19206TIP3    H179033   5.678   3.836   6.096 -0.2419  0.0174  1.0160
19206TIP3    H279034   5.706   3.984   6.115  0.4258  0.0165  0.0611
19207TIP3   OH279035   4.334   0.043   4.810  0.1606 -0.0838  0.5083
19207TIP3    H179036   4.422   0.081   4.812  0.3344 -0.4688  0.2908
19207TIP3    H279037   4.345  -0.041   4.765 -0.8060  1.1300 -2.0803
19208TIP3   OH279038   3.159   1.401   6.137  0.2868 -0.0011  1.0343
19208TIP3    H179039   3.209   1.320   6.130  0.1979 -0.1379  1.9963
19208TIP3    H279040   3.225   1.470   6.128  0.3909 -0.1721  0.4395
19209TIP3   OH279041   3.989   0.808  11.273  0.1804  0.8876  0.7464
19209TIP3    H179042   4.075   0.765  11.268  0.4501  1.5151 -0.1484
19209TIP3    H279043   3.930   0.749  11.227  0.3907  1.0730  0.2336
19210TIP3   OH279044   3.952   0.470  17.011 -0.3830  0.5268  0.4343
19210TIP3    H179045   3.955   0.501  16.921 -0.3484 -1.7063 -0.3718
19210TIP3    H279046   3.859   0.457  17.030 -0.3877  0.9495  0.6965
19211TIP3   OH279047   6.747   4.296  12.838 -0.6959  0.1929 -0.0704
19211TIP3    H179048   6.794   4.315  12.757 -1.0736 -0.5522 -0.4744
19211TIP3    H279049   6.802   4.332  12.907 -0.2966  0.6988 -0.6469
19212TIP3   OH279050   0.676   3.655   3.337 -0.1789  0.6705 -0.2041
19212TIP3    H179051   0.681   3.732   3.394  1.4411 -0.0661  0.6813
19212TIP3    H279052   0.768   3.634   3.318 -0.5770 -1.4323  0.0977
19213TIP3   OH279053   3.731   3.481   5.021 -0.2508 -0.1051 -0.5957
19213TIP3    H179054   3.637   3.501   5.021 -0.1894  0.1921 -0.1714
19213TIP3    H279055   3.774   3.566   5.027  0.0267 -0.2999  0.2854
19214TIP3   OH279056   3.539   2.226  15.779 -0.3910 -0.7418  0.0458
19214TIP3    H179057   3.506   2.153  15.831  1.2425  0.6890  3.2109
19214TIP3    H279058   3.574   2.288  15.843  1.6280  1.1584 -2.7513
19215TIP3   OH279059   3.648   6.046   6.296  0.0695 -0.8830 -0.0698
19215TIP3    H179060   3.600   6.056   6.213  1.7141 -1.0023 -1.0665
19215TIP3    H279061   3.611   6.114   6.353 -0.5712 -0.3000 -1.1493
19216TIP3   OH279062   2.449   1.348  16.876 -0.6922 -0.4824  0.1836
19216TIP3    H179063   2.383   1.417  16.867  0.5652  0.8129  0.5758
19216TIP3    H279064   2.495   1.370  16.958  0.9308 -0.7299 -0.6396
19217TIP3   OH279065   5.122   2.615   1.651  0.2042 -0.0293  0.3253
19217TIP3    H179066   5.131   2.567   1.733 -1.2843  0.6322  0.8920
19217TIP3    H279067   5.049   2.675   1.666  0.8533  1.1220 -0.9887
19218TIP3   OH279068   0.257   2.713   3.173 -0.2007 -0.1714  0.1496
19218TIP3    H179069   0.326   2.778   3.156 -1.4015  1.3633  0.9534
19218TIP3    H279070   0.191   2.731   3.107 -1.2218  0.4498  1.3133
19219TIP3   OH279071   4.348   6.026   0.568 -0.3006  0.5715  0.1368
19219TIP3    H179072   4.414   6.012   0.636 -1.5328 -1.1979  1.0046
19219TIP3    H279073   4.266   5.998   0.608 -1.4321  1.7449 -1.2925
19220TIP3   OH279074   4.376   2.088  14.640 -0.2354  0.0593  0.0763
19220TIP3    H179075   4.423   2.005  14.648 -0.2984 -0.0131 -0.3129
19220TIP3    H279076   4.290   2.064  14.605  0.0335  0.3699 -0.8153
19221TIP3   OH279077   5.420   3.120   2.496 -0.2154  0.2733 -0.1517
19221TIP3    H179078   5.334   3.099   2.460  0.4986 -0.3469 -1.5496
19221TIP3    H279079   5.414   3.094   2.588 -1.1779 -0.8118 -0.4946
19222TIP3   OH279080   2.006   5.182  11.703  0.2074  0.1657  0.0146
19222TIP3    H179081   2.025   5.171  11.796  0.3541  2.4057  0.2862
19222TIP3    H279082   1.937   5.249  11.701 -0.2613 -0.3352 -1.4704
19223TIP3   OH279083   4.734   5.130   2.125 -0.3748  0.1212  0.4056
19223TIP3    H179084   4.804   5.066   2.114 -0.6780 -0.0712 -0.4077
19223TIP3    H279085   4.688   5.100   2.204 -0.8355 -0.9687 -0.2590
19224TIP3   OH279086   2.322   0.130  12.561  0.0480  0.0435  0.0595
19224TIP3    H179087   2.400   0.076  12.553  0.2774  0.6506 -2.3726
19224TIP3    H279088   2.262   0.094  12.496 -1.1353  0.5020  0.8919
19225TIP3   OH279089   1.194   1.154   1.618 -0.1434  0.2958 -0.0813
19225TIP3    H179090   1.251   1.084   1.587  0.4251  1.4551 -1.7299
19225TIP3    H279091   1.168   1.127   1.706 -1.2500 -2.7473 -1.2914
19226TIP3   OH279092   5.680   5.625  15.071  0.0608  0.0864 -0.2942
19226TIP3    H179093   5.682   5.616  14.976  0.5258  0.2130 -0.3005
19226TIP3    H279094   5.633   5.547  15.102  0.5053 -0.2974 -0.5839
19227TIP3   OH279095   3.074   4.105   6.111 -0.1555 -0.5563 -0.6694
19227TIP3    H179096   3.067   4.196   6.141 -1.3707 -0.8364 -0.0588
19227TIP3    H279097   3.024   4.102   6.030  0.8786 -0.4224 -1.3269
19228TIP3   OH279098   3.132   5.984   5.122 -0.0177  0.1382  0.0426
19228TIP3    H179099   3.039   5.989   5.100  0.4777  0.2665 -2.1390
19228TIP3    H279100   3.177   6.011   5.042  1.9216 -1.1509  0.6654
19229TIP3   OH279101   1.282   6.644   0.812 -0.6128 -0.1488 -0.3017
19229TIP3    H179102   1.237   6.599   0.883 -1.1692 -1.7353 -1.6428
19229TIP3    H279103   1.230   6.723   0.797  0.1403  0.7637  1.7824
19230TIP3   OH279104   3.600   2.449  12.840 -0.3925  0.1149 -0.9059
19230TIP3    H179105   3.633   2.480  12.756 -0.8468  0.9667 -0.7795
19230TIP3    H279106   3.585   2.529  12.891 -1.3221 -0.3230 -0.4757
19231TIP3   OH279107   3.530   6.184   6.491 -0.7831  0.2090 -0.0622
19231TIP3    H179108   3.438   6.165   6.470 -0.4909 -0.5479 -0.6785
19231TIP3    H279109   3.529   6.276   6.519 -1.8828 -0.0781  0.9141
19232TIP3   OH279110   0.576   0.480   4.496 -0.4557 -0.2890  0.1990
19232TIP3    H179111   0.556   0.542   4.565  0.9900 -1.7710  1.9975
19232TIP3    H279112   0.498   0.424   4.490 -1.0000  0.4922 -0.1309
19233TIP3   OH279113   0.160   6.382  14.813 -0.3099  0.4306 -0.0143
19233TIP3    H179114   0.198   6.465  14.784  0.7672 -0.2485 -0.5729
19233TIP3    H279115   0.138   6.336  14.731 -0.1191 -0.1888  0.2775
19234TIP3   OH279116   0.117   4.495  11.348 -0.4404  0.2580  0.0598
19234TIP3    H179117   0.204   4.520  11.380 -0.6289  0.1317  0.6734
19234TIP3    H279118   0.136   4.437  11.273  0.0009  0.4984 -0.0197
19235TIP3   OH279119   6.105   0.746   5.148 -0.1596 -0.5911 -0.2594
19235TIP3    H179120   6.030   0.743   5.088 -0.1298 -1.8806 -0.2541
19235TIP3    H279121   6.181   0.749   5.090 -0.1827 -0.2496 -0.2721
19236TIP3   OH279122   5.082   0.614   1.628 -0.3409 -0.3937 -0.1542
19236TIP3    H179123   5.024   0.541   1.612 -0.2855 -0.4192 -0.2380
19236TIP3    H279124   5.167   0.574   1.647 -0.1508 -0.3338 -0.8615
19237TIP3   OH279125   4.673   2.133   0.465 -0.0726  0.1110  0.0338
19237TIP3    H179126   4.678   2.099   0.376 -1.5514 -0.2148  0.0709
19237TIP3    H279127   4.739   2.083   0.513 -0.1958 -0.6414 -0.5721
19238TIP3   OH279128   2.521   5.926   1.846  0.5216 -0.8294  0.7838
19238TIP3    H179129   2.487   5.928   1.757 -0.0122  0.4635  1.0045
19238TIP3    H279130   2.444   5.936   1.902  1.0522  0.3976  1.3260
19239TIP3   OH279131   6.090   5.741  12.343  0.2029 -0.1344  0.3722
19239TIP3    H179132   6.148   5.816  12.337 -0.3670  0.2974  0.2570
19239TIP3    H279133   6.149   5.665  12.349  0.8004  0.0726 -2.3248
19240TIP3   OH279134   6.224   6.242  13.912  0.5660  0.6743  0.0707
19240TIP3    H179135   6.266   6.157  13.929 -1.2083 -0.1668  0.4042
19240TIP3    H279136   6.213   6.281  13.998 -0.3706  0.3646  0.1022
19241TIP3   OH279137   4.532   3.696  14.911  0.6736  0.2118 -0.4987
19241TIP3    H179138   4.536   3.770  14.971  1.2548  0.2533 -0.5842
19241TIP3    H279139   4.493   3.731  14.831  0.6213  0.3433 -0.4162
19242TIP3   OH279140   5.541   1.631   4.600 -0.2964 -0.3545  0.5955
19242TIP3    H179141   5.528   1.543   4.564 -1.4096  0.4523 -1.0544
19242TIP3    H279142   5.472   1.641   4.665  1.0473 -1.4070  2.2450
19243TIP3   OH279143   4.354   3.614   1.105 -0.0021 -0.1716 -0.8514
19243TIP3    H179144   4.448   3.615   1.085  0.0853 -0.2941 -0.4498
19243TIP3    H279145   4.339   3.696   1.152  0.1957 -0.8380  0.3948
19244TIP3   OH279146   0.188   1.023   3.224  0.2347 -0.4045 -0.0944
19244TIP3    H179147   0.274   1.049   3.188 -0.0236  0.6556  0.0413
19244TIP3    H279148   0.169   1.090   3.290 -0.3517 -1.0719  0.4101
19245TIP3   OH279149   2.759   3.380  13.221  0.2027 -0.2684  0.0424
19245TIP3    H179150   2.765   3.330  13.302 -0.4388 -0.4644 -0.0292
19245TIP3    H279151   2.822   3.339  13.162 -0.4035 -1.0679 -0.0567
19246TIP3   OH279152   6.781   3.015  13.005 -0.6134  0.1192  0.4197
19246TIP3    H179153   6.755   2.926  12.984 -3.6349  0.6194  1.8354
19246TIP3    H279154   6.711   3.070  12.971  0.0177  1.7751  1.7012
19247TIP3   OH279155   6.152   1.446  13.877 -0.2856 -0.0554  0.2007
19247TIP3    H179156   6.220   1.488  13.825  1.1983  0.2063  2.3183
19247TIP3    H279157   6.072   1.495  13.856  0.8811  2.0168  0.4653
19248TIP3   OH279158   5.310   5.227  11.019 -0.6727 -0.0124 -0.5494
19248TIP3    H179159   5.291   5.139  11.053  1.6337 -0.5200 -0.4906
19248TIP3    H279160   5.351   5.211  10.934 -1.4946  1.0731 -1.1537
19249TIP3   OH279161   1.404   5.911   3.362 -0.0765  0.4277  0.2991
19249TIP3    H179162   1.385   5.834   3.417  0.2135  0.2070  0.0890
19249TIP3    H279163   1.412   5.983   3.424  0.5265  0.1271  0.5744
19250TIP3   OH279164   3.960   5.992   4.125  0.3454  0.1015  0.1506
19250TIP3    H179165   3.868   6.009   4.104 -0.0776 -2.5166 -0.2385
19250TIP3    H279166   3.974   6.034   4.210 -1.7997 -1.2742  1.2140
19251TIP3   OH279167   1.406   5.634  15.607  0.0688  0.1589 -0.2531
19251TIP3    H179168   1.356   5.565  15.563 -0.1511  1.1299 -1.5293
19251TIP3    H279169   1.494   5.628  15.569  1.0024 -1.5893  2.0327
19252TIP3   OH279170   3.090   6.492  12.518 -0.2696 -0.2631  0.0506
19252TIP3    H179171   3.048   6.553  12.457 -1.8415 -0.5293  0.8528
19252TIP3    H279172   3.123   6.548  12.589 -1.0390 -0.2556  0.4077
19253TIP3   OH279173   6.294   4.561  17.017 -0.3350  0.1013  0.5096
19253TIP3    H179174   6.225   4.551  17.082 -1.5591  0.9494 -0.6316
19253TIP3    H279175   6.248   4.561  16.933  0.8362  2.4434 -0.1820
19254TIP3   OH279176   3.363   2.488   3.464  0.1465  0.1065  0.0196
19254TIP3    H179177   3.423   2.434   3.413 -2.1674  0.1794 -2.9459
19254TIP3    H279178   3.382   2.578   3.436  1.0479  0.4819  1.7488
19255TIP3   OH279179   2.198   4.491   2.372  0.0128 -0.5378 -0.2237
19255TIP3    H179180   2.114   4.517   2.335 -0.0938 -0.5676 -0.0017
19255TIP3    H279181   2.222   4.412   2.324  0.1663 -0.2295 -0.6522
19256TIP3   OH279182   1.913   5.084   2.466 -0.4838 -0.3854  0.7624
19256TIP3    H179183   1.951   5.075   2.554  0.9218 -0.5551  0.1442
19256TIP3    H279184   1.919   4.997   2.428 -0.9937 -0.2859  0.4526
19257TIP3   OH279185   5.923   1.575  13.815 -0.0445  0.2396  0.1303
19257TIP3    H179186   5.850   1.624  13.851 -0.7896 -1.5110  1.0604
19257TIP3    H279187   5.886   1.529  13.740  0.3801  0.2393 -0.0801
19258TIP3   OH279188   2.087   5.916  15.762  0.0146 -0.2661  0.2398
19258TIP3    H179189   2.109   5.973  15.836 -0.2695  1.4571 -0.9882
19258TIP3    H279190   2.156   5.850  15.761  1.3867  1.1526  0.5241
19259TIP3   OH279191   0.318   6.482   4.238 -0.0321 -0.2130  0.3377
19259TIP3    H179192   0.362   6.469   4.154 -1.6840 -2.0108 -0.2882
19259TIP3    H279193   0.384   6.458   4.303  0.4673 -1.2492 -0.5219
19260TIP3   OH279194   3.527   6.340   2.787  1.2464  0.0473  0.1586
19260TIP3    H179195   3.546   6.362   2.878 -0.8716 -0.0443  0.6571
19260TIP3    H279196   3.507   6.247   2.789  3.8643 -0.5536 -0.8717
19261TIP3   OH279197   5.359   4.541  15.770  0.0677  0.3531 -0.3049
19261TIP3    H179198   5.338   4.632  15.745 -0.5563  0.4127  0.4280
19261TIP3    H279199   5.276   4.494  15.760  0.4086 -0.1599 -0.7555
19262TIP3   OH279200   0.987   1.911   2.093 -0.4013 -0.0488 -0.5113
19262TIP3    H179201   1.041   1.931   2.017  0.0932 -0.0924 -0.1720
19262TIP3    H279202   1.049   1.905   2.166 -0.8797  0.0710 -0.0911
19263TIP3   OH279203   3.556   1.149   5.674 -0.0740 -0.5502 -0.1787
19263TIP3    H179204   3.552   1.241   5.649 -1.6408 -0.6300 -0.2182
19263TIP3    H279205   3.527   1.147   5.765  0.3507 -0.9691 -0.0470
19264TIP3   OH279206   2.434   3.666   5.610  0.3653 -0.4500  0.3355
19264TIP3    H179207   2.393   3.599   5.554  0.4415 -0.9951  0.9228
19264TIP3    H279208   2.384   3.663   5.691  0.3225  0.2709  0.3396
19265TIP3   OH279209   3.522   1.607  14.484  0.6074 -0.0169  0.0449
19265TIP3    H179210   3.495   1.621  14.575 -0.7967 -1.6411 -0.0847
19265TIP3    H279211   3.457   1.654  14.433 -0.5880 -1.8707 -0.1953
19266TIP3   OH279212   1.620   4.290  11.754  0.1570  0.7254 -0.3118
19266TIP3    H179213   1.704   4.335  11.749 -1.0788  3.3153  0.9655
19266TIP3    H279214   1.620   4.249  11.840  0.6828 -0.4834 -0.8833
19267TIP3   OH279215   0.505   2.489  15.984 -0.9998  0.0872 -0.4224
19267TIP3    H179216   0.411   2.479  16.001 -0.6211 -0.7285  1.2060
19267TIP3    H279217   0.548   2.464  16.065  0.7526 -1.7516 -1.8725
19268TIP3   OH279218   1.454   4.113   2.490  0.2966 -0.4182 -0.1883
19268TIP3    H179219   1.360   4.120   2.475  0.0575  0.7240  1.7079
19268TIP3    H279220   1.461   4.072   2.576  1.5640 -2.6390 -1.3215
19269TIP3   OH279221   6.086   0.790   4.510  0.0810  0.4150 -0.6555
19269TIP3    H179222   6.030   0.712   4.511  0.1171  0.3982  0.3825
19269TIP3    H279223   6.102   0.806   4.417 -0.1542 -0.6498 -0.8902
19270TIP3   OH279224   3.090   3.443  11.256 -0.0866 -0.0141 -0.1258
19270TIP3    H179225   3.084   3.362  11.308 -0.2592 -0.9793 -1.6066
19270TIP3    H279226   3.141   3.418  11.179 -1.6256  0.8268 -1.4445
19271TIP3   OH279227   6.228   1.480   5.414 -0.2641  0.1379 -0.4158
19271TIP3    H179228   6.212   1.567   5.453  0.5682  0.3102 -0.4430
19271TIP3    H279229   6.313   1.453   5.451 -0.4314 -0.5819 -0.5562
19272TIP3   OH279230   1.513   0.792   3.252 -0.1328 -0.3479  0.3559
19272TIP3    H179231   1.589   0.756   3.298 -0.3112  0.9206  1.6667
19272TIP3    H279232   1.474   0.716   3.209  0.5451 -1.4170  1.5701
19273TIP3   OH279233   0.346   0.821  16.714  0.1078  0.3510 -0.0814
19273TIP3    H179234   0.381   0.856  16.796  1.1128  0.9152 -0.7317
19273TIP3    H279235   0.330   0.729  16.732  0.6224  0.3969  0.6599
19274TIP3   OH279236   4.154   0.147   4.397  0.0206 -0.1699 -0.1164
19274TIP3    H179237   4.150   0.130   4.491  0.3419 -1.4135 -0.3286
19274TIP3    H279238   4.095   0.222   4.385 -0.5551 -0.4268  0.9743
19275TIP3   OH279239   0.285   0.753  14.779 -0.1989 -0.9366  0.1835
19275TIP3    H179240   0.349   0.724  14.844  1.0079  1.8334  0.3302
19275TIP3    H279241   0.212   0.786  14.830 -0.1599 -0.7223  0.1008
19276TIP3   OH279242   2.901   5.867   5.086  0.1126 -0.1914  0.1438
19276TIP3    H179243   2.810   5.838   5.092  0.2789 -0.5582  0.8972
19276TIP3    H279244   2.947   5.817   5.153 -0.1511  3.9769  3.7017
19277TIP3   OH279245   4.305   1.776   1.727 -0.4576 -0.3854  0.6813
19277TIP3    H179246   4.239   1.835   1.689  1.1943  0.9605 -0.1649
19277TIP3    H279247   4.342   1.730   1.652 -0.0820 -0.7734  1.1009
19278TIP3   OH279248   1.834   6.283  17.211  0.1724 -0.5880  0.1926
19278TIP3    H179249   1.860   6.191  17.210  0.3554 -0.5434  0.5268
19278TIP3    H279250   1.739   6.281  17.214  0.2155 -0.8152  2.7412
19279TIP3   OH279251   1.517   2.896  12.965 -0.1571 -0.0815 -0.3166
19279TIP3    H179252   1.596   2.843  12.973  0.5056  1.2250  2.8409
19279TIP3    H279253   1.544   2.972  12.914  0.5310  0.1125  0.3199
19280TIP3   OH279254   4.692   2.555  17.035  0.4897  0.6400  0.3765
19280TIP3    H179255   4.640   2.571  17.114 -0.9188 -2.2154  0.0821
19280TIP3    H279256   4.653   2.613  16.970  1.2834  2.5882  1.5857
19281TIP3   OH279257   2.865   4.161  15.820 -0.1699  0.0837  0.2229
19281TIP3    H179258   2.807   4.189  15.749  1.3102  1.6259 -0.4037
19281TIP3    H279259   2.921   4.095  15.781  1.1186  1.4413 -0.2625
19282TIP3   OH279260   0.007   5.832  11.341 -0.4119  0.0256  0.0447
19282TIP3    H179261  -0.036   5.775  11.405 -0.4521  0.1667  0.1461
19282TIP3    H279262   0.082   5.868  11.388 -0.7471  0.5467  0.1868
19283TIP3   OH279263   4.459   6.717  15.814 -0.2508 -0.5566 -0.3003
19283TIP3    H179264   4.371   6.682  15.798  0.2597 -0.9770 -2.3054
19283TIP3    H279265   4.515   6.639  15.813  0.2458 -0.2081  0.2902
19284TIP3   OH279266   4.742   5.842  13.419  0.1223  0.3765  0.3177
19284TIP3    H179267   4.720   5.931  13.448  0.9266  1.2627 -1.6444
19284TIP3    H279268   4.835   5.833  13.437  0.3346  0.4421 -0.6839
19285TIP3   OH279269   0.503   0.197  11.653 -0.1880  0.1213  0.8494
19285TIP3    H179270   0.494   0.262  11.723  2.3449 -1.2840  2.5660
19285TIP3    H279271   0.588   0.216  11.614  1.0208 -2.6649  1.9833
19286TIP3   OH279272   2.781   3.032   6.100 -0.3824  0.1375 -0.2948
19286TIP3    H179273   2.844   3.015   6.171 -0.5932 -0.5393 -0.2684
19286TIP3    H279274   2.810   3.116   6.063  0.8149 -0.3978 -0.5962
19287TIP3   OH279275   4.775   1.292   3.000  0.3909  0.4915 -0.0689
19287TIP3    H179276   4.853   1.276   2.947  0.0961 -0.6015 -0.1936
19287TIP3    H279277   4.715   1.339   2.941 -0.0885 -1.0594 -0.8596
19288TIP3   OH279278   0.881   0.807   0.052  0.1540 -0.0999 -0.5395
19288TIP3    H179279   0.838   0.732   0.010  0.3573 -0.4645 -0.0952
19288TIP3    H279280   0.973   0.796   0.031  0.8863 -2.6937  3.6629
19289TIP3   OH279281   6.121   6.409  14.626  0.4626 -0.5419 -0.0434
19289TIP3    H179282   6.049   6.473  14.620 -1.4602 -2.5702  0.8562
19289TIP3    H279283   6.101   6.345  14.558  0.4448 -2.0795  1.3983
19290TIP3   OH279284   0.058   3.105  15.504  0.5590  0.0603 -0.2797
19290TIP3    H179285   0.072   3.014  15.530  1.4537  0.7111  1.5856
19290TIP3    H279286   0.089   3.109  15.413  1.8021 -1.1892  0.0785
19291TIP3   OH279287   0.903   2.041  10.367  0.1275 -0.1326  0.1238
19291TIP3    H179288   0.820   2.001  10.343  0.0239 -0.6553  1.3168
19291TIP3    H279289   0.963   2.017  10.296 -1.2055  1.9287 -1.7797
19292TIP3   OH279290   5.521   1.683   6.222 -0.3481 -0.2685  0.1688
19292TIP3    H179291   5.463   1.756   6.244 -2.0995 -0.8701 -2.2636
19292TIP3    H279292   5.588   1.722   6.165 -1.2277 -0.5253 -1.0512
19293TIP3   OH279293   1.646   6.260  11.499  0.2474 -0.6073  0.2417
19293TIP3    H179294   1.622   6.183  11.448 -0.9862  0.2979 -0.5793
19293TIP3    H279295   1.578   6.267  11.565  0.6706 -0.5504  0.6716
19294TIP3   OH279296   5.956   6.484   4.524  0.7592  0.1731 -0.3845
19294TIP3    H179297   5.882   6.527   4.482 -1.2325 -1.0665  1.7569
19294TIP3    H279298   5.933   6.481   4.617  1.7514 -3.5283 -0.1549
19295TIP3   OH279299   3.288   4.697   5.933 -0.3179  0.0562  0.4638
19295TIP3    H179300   3.284   4.602   5.923 -0.4191  0.3575 -3.0009
19295TIP3    H279301   3.232   4.731   5.863 -1.8315  2.6584  2.8600
19296TIP3   OH279302   6.044   2.142   4.143 -0.6127 -0.0848  0.5632
19296TIP3    H179303   6.111   2.211   4.150  0.6769 -1.2608  0.0143
19296TIP3    H279304   6.067   2.095   4.063 -0.8126 -1.8580  1.5296
19297TIP3   OH279305   0.475   3.068  17.180  0.9723 -0.2196  0.0035
19297TIP3    H179306   0.454   2.979  17.208  0.4278 -0.0019  0.2882
19297TIP3    H279307   0.406   3.122  17.219  0.4881  0.1485 -1.3664
19298TIP3   OH279308   4.086   0.577  13.406 -0.6121 -0.5662 -0.1678
19298TIP3    H179309   4.108   0.571  13.499  1.2888  1.4287 -0.4651
19298TIP3    H279310   4.128   0.501  13.367  2.7258  1.1667 -0.1152
19299TIP3   OH279311   3.985   0.368  15.127 -0.5461  0.1077  0.1551
19299TIP3    H179312   3.982   0.382  15.222 -0.5849  1.1617  0.0115
19299TIP3    H279313   4.031   0.445  15.094 -1.0212  0.0095 -0.7350
19300TIP3   OH279314   1.641   0.178  15.034  0.4998  0.3385 -0.5882
19300TIP3    H179315   1.734   0.198  15.024  1.3469 -3.1670 -0.2712
19300TIP3    H279316   1.633   0.142  15.122 -0.8139 -1.0548 -1.2480
19301TIP3   OH279317   0.474   2.855   2.580  0.3316  0.0402 -0.6022
19301TIP3    H179318   0.398   2.799   2.597  0.3786  0.1756  0.0661
19301TIP3    H279319   0.436   2.938   2.552  0.2669 -0.4393 -1.9858
19302TIP3   OH279320   0.689   6.203  15.835  0.5973  0.0908  0.6824
19302TIP3    H179321   0.725   6.265  15.771  1.3102  0.2643  1.2380
19302TIP3    H279322   0.706   6.117  15.798 -4.2351  0.1847 -2.2034
19303TIP3   OH279323   6.338   4.453  13.048  0.2134 -0.7935  0.1144
19303TIP3    H179324   6.384   4.371  13.062 -2.6110 -2.2217  1.3550
19303TIP3    H279325   6.247   4.434  13.071 -1.1706  1.7417 -2.8708
19304TIP3   OH279326   4.182   3.704   2.388 -0.2601  0.1050  0.5236
19304TIP3    H179327   4.089   3.686   2.371 -0.0081 -1.8260  1.0605
19304TIP3    H279328   4.228   3.648   2.326  0.5442  1.3890 -0.0353
19305TIP3   OH279329   0.969   5.960  13.643 -0.1928 -0.4201  0.2449
19305TIP3    H179330   0.950   6.007  13.723  0.5439 -0.8749  0.6895
19305TIP3    H279331   0.918   5.879  13.649 -2.4750  0.8631 -1.1007
19306TIP3   OH279332   1.154   0.612  14.666 -0.0010 -0.9005 -0.1348
19306TIP3    H179333   1.194   0.591  14.750  0.1019  0.0180  0.0583
19306TIP3    H279334   1.067   0.645  14.688 -0.7861 -2.6704 -0.5393
19307TIP3   OH279335   2.987   3.508  15.964 -0.0911  0.1876 -0.1064
19307TIP3    H179336   2.988   3.549  15.878  0.3911  0.4124  0.0025
19307TIP3    H279337   2.969   3.580  16.025 -0.6802 -0.0129 -0.0416
19308TIP3   OH279338   1.993   0.644   6.292  0.2586 -0.3617  0.4226
19308TIP3    H179339   2.058   0.629   6.224 -0.6705 -2.1233 -0.0973
19308TIP3    H279340   1.944   0.562   6.297 -0.7835  0.3380  2.0294
19309TIP3   OH279341   3.982   2.522   0.730  0.3729  0.1363 -0.2341
19309TIP3    H179342   3.937   2.560   0.805  0.0330 -2.3671  0.8512
19309TIP3    H279343   3.932   2.554   0.654 -0.4428  1.0908  0.6867
19310TIP3   OH279344   0.462   1.068   3.276  0.0645  0.3139 -0.2898
19310TIP3    H179345   0.490   1.001   3.214  0.6728  0.0177  0.3044
19310TIP3    H279346   0.525   1.139   3.266 -1.5195  1.4989 -2.0865
19311TIP3   OH279347   0.166   2.723  12.387 -0.6278  0.1818  0.4247
19311TIP3    H179348   0.261   2.712  12.392 -0.5421  1.4822  1.8945
19311TIP3    H279349   0.154   2.809  12.346 -1.1836 -0.0985 -0.0125
19312TIP3   OH279350   4.140   5.872   3.497 -0.0683 -0.3187  0.1045
19312TIP3    H179351   4.166   5.853   3.587  1.5533 -2.9928 -0.8707
19312TIP3    H279352   4.151   5.966   3.488 -0.9384  0.0926  2.8843
19313TIP3   OH279353   4.103   2.723   4.240 -0.5921 -1.0808  0.4186
19313TIP3    H179354   4.156   2.733   4.161 -1.1256  1.2918  0.3044
19313TIP3    H279355   4.014   2.710   4.208 -0.9589  0.8409  0.5950
19314TIP3   OH279356   6.283   4.338   1.512 -0.0617  0.4889 -0.0646
19314TIP3    H179357   6.228   4.356   1.436 -0.3902 -0.0518  0.0363
19314TIP3    H279358   6.235   4.375   1.586 -0.2131  0.1636  0.0018
19315TIP3   OH279359   5.260   3.395  14.150  0.3354 -0.2973  0.1476
19315TIP3    H179360   5.285   3.325  14.090 -0.3696 -1.2344  0.9185
19315TIP3    H279361   5.267   3.354  14.237 -1.4942  0.1504  0.5210
19316TIP3   OH279362   3.376   5.733   3.515 -0.3831 -0.5855 -0.2521
19316TIP3    H179363   3.337   5.740   3.602 -1.4758 -0.6656 -0.7320
19316TIP3    H279364   3.384   5.638   3.500  2.2553 -0.5936  0.8290
19317TIP3   OH279365   2.089   3.464   2.946  0.9887 -0.5191  0.6657
19317TIP3    H179366   2.061   3.546   2.986  0.8809 -0.0465 -0.3595
19317TIP3    H279367   2.008   3.426   2.910  1.0859 -0.9259  0.8732
19318TIP3   OH279368   6.186   5.533  14.669  0.0688  0.1452  0.3390
19318TIP3    H179369   6.232   5.617  14.670  2.3329 -1.0439 -0.9966
19318TIP3    H279370   6.116   5.545  14.605  1.8312  0.3024 -1.5967
19319TIP3   OH279371   5.634   1.740  13.168  0.1767 -0.4354  0.5616
19319TIP3    H179372   5.538   1.736  13.169 -0.0264  2.2163 -2.1834
19319TIP3    H279373   5.654   1.830  13.192  1.8946 -0.4247 -0.8662
19320TIP3   OH279374   3.307   3.496  13.606 -0.5186  0.2618 -0.1711
19320TIP3    H179375   3.394   3.466  13.580 -1.0782 -0.1674 -1.5615
19320TIP3    H279376   3.324   3.570  13.666  0.7931  0.0731 -0.3003
19321TIP3   OH279377   1.708   2.071   6.250  0.1541  0.1015  0.1349
19321TIP3    H179378   1.704   1.979   6.273  0.3382  0.5241  1.9959
19321TIP3    H279379   1.800   2.095   6.263  0.0458  0.6175 -0.0349
19322TIP3   OH279380   1.904   2.792  11.393  0.0947  0.7024  0.0950
19322TIP3    H179381   1.962   2.716  11.400  0.2031  0.8862  1.2379
19322TIP3    H279382   1.953   2.853  11.338 -0.4309 -0.4458 -1.6969
19323TIP3   OH279383   3.789   1.062   3.429 -0.3426 -0.0522  0.8618
19323TIP3    H179384   3.755   1.081   3.342 -1.1219 -1.3200  0.8785
19323TIP3    H279385   3.761   1.137   3.482 -2.1354 -0.4999  0.6055
19324TIP3   OH279386   2.531   4.283  14.049  1.0486  0.1924  0.5318
19324TIP3    H179387   2.567   4.201  14.013  0.3756  0.4663 -0.7846
19324TIP3    H279388   2.607   4.326  14.089  2.3178  0.9656 -2.5972
19325TIP3   OH279389   1.143   2.119   4.221  0.2605  0.3834  0.2026
19325TIP3    H179390   1.095   2.099   4.301  0.0189  2.2135  0.5367
19325TIP3    H279391   1.213   2.178   4.249 -0.4962  1.9415 -1.0791
19326TIP3   OH279392   5.578   6.064  16.387 -0.5114 -0.7143 -0.0759
19326TIP3    H179393   5.511   5.997  16.374 -1.2415 -0.4378  2.0555
19326TIP3    H279394   5.531   6.147  16.378 -0.2744 -0.5134  0.5547
19327TIP3   OH279395   2.865   0.861   3.834  0.2508 -0.7742 -0.4144
19327TIP3    H179396   2.948   0.866   3.883  1.4822 -1.2805 -2.3649
19327TIP3    H279397   2.828   0.949   3.839  1.3215 -0.3279 -0.1644
19328TIP3   OH279398   3.570   1.961  15.104  0.1096 -0.4491  0.1647
19328TIP3    H179399   3.605   1.957  15.015  1.2831 -0.3945  0.6235
19328TIP3    H279400   3.628   1.906  15.156 -0.1749  0.0466  1.0292
19329TIP3   OH279401   6.138   2.509   2.673 -0.0416 -0.3435 -0.4438
19329TIP3    H179402   6.078   2.582   2.689  0.7489  0.1700  0.1901
19329TIP3    H279403   6.220   2.550   2.645  0.3524 -0.9914 -0.2580
19330TIP3   OH279404   4.780   6.560  16.154 -0.2676 -0.1366 -0.0626
19330TIP3    H179405   4.744   6.579  16.067 -1.1932  1.4541  0.6484
19330TIP3    H279406   4.852   6.500  16.137 -1.0335 -0.5946 -1.8527
19331TIP3   OH279407   1.197   0.903   2.737 -0.0761 -0.6127  0.3858
19331TIP3    H179408   1.236   0.915   2.824 -0.9596  0.2070  0.6822
19331TIP3    H279409   1.191   0.809   2.726  0.9662 -0.7324  0.8003
19332TIP3   OH279410   2.571   4.322  11.526  0.4158 -0.1892  0.2168
19332TIP3    H179411   2.637   4.279  11.472 -1.2866 -1.4100 -0.9470
19332TIP3    H279412   2.580   4.415  11.506  1.2284 -0.4337 -0.5640
19333TIP3   OH279413   4.457   3.603   3.723  0.1624  0.3122  0.5894
19333TIP3    H179414   4.483   3.553   3.801  0.3454  1.0169  0.9774
19333TIP3    H279415   4.419   3.537   3.665  1.0563 -0.4149  0.8054
19334TIP3   OH279416   3.342   4.109   4.715 -0.2449  0.0601  0.1596
19334TIP3    H179417   3.285   4.185   4.718 -0.0407  0.4286 -3.3389
19334TIP3    H279418   3.283   4.035   4.697  0.1139  0.1398 -1.3931
19335TIP3   OH279419   3.160   5.755   5.617 -0.7339  0.2636 -0.1796
19335TIP3    H179420   3.104   5.682   5.644  2.4089 -2.5792 -0.9474
19335TIP3    H279421   3.136   5.771   5.526  0.3146 -1.5971 -0.8071
19336TIP3   OH279422   0.729   1.290  12.176 -0.2861  0.1580  0.2289
19336TIP3    H179423   0.664   1.361  12.177  1.9875  2.3206  0.3092
19336TIP3    H279424   0.742   1.271  12.083  1.3573  2.0716  0.0243
19337TIP3   OH279425   3.357   1.906   1.622 -0.1005  0.4285  0.1055
19337TIP3    H179426   3.414   1.956   1.563  0.3390  1.5297  1.4474
19337TIP3    H279427   3.280   1.961   1.634  0.7814  1.2173  2.3126
19338TIP3   OH279428   0.835   3.778  17.145 -0.0491 -0.4883 -0.1280
19338TIP3    H179429   0.900   3.756  17.079 -1.3167  1.2722 -2.0012
19338TIP3    H279430   0.883   3.835  17.206  1.1186 -2.1196  0.5325
19339TIP3   OH279431   5.081   2.685  15.536  0.8900  0.6110 -0.0733
19339TIP3    H179432   5.015   2.716  15.475  0.9605  0.6377 -0.1366
19339TIP3    H279433   5.158   2.668  15.481  0.7021 -0.1529 -0.1151
19340TIP3   OH279434   2.394   1.594  17.065  0.0572  0.2578  0.3883
19340TIP3    H179435   2.476   1.557  17.098  0.0305  1.8660  2.3292
19340TIP3    H279436   2.421   1.664  17.007  0.0885  1.1659  1.4726
19341TIP3   OH279437   1.942   0.566   3.173 -0.6330 -0.6365 -0.4125
19341TIP3    H179438   1.932   0.473   3.153 -0.7613 -0.4184 -1.4235
19341TIP3    H279439   1.866   0.587   3.227 -0.1933 -1.2935  0.4593
19342TIP3   OH279440   4.571   0.642  13.628 -0.6749 -0.1396  0.0811
19342TIP3    H179441   4.665   0.656  13.631 -0.7310  0.4108 -0.6214
19342TIP3    H279442   4.533   0.717  13.674 -0.7872 -0.1448 -0.0012
19343TIP3   OH279443   5.707   6.461  14.069  0.1841  0.0411 -0.0232
19343TIP3    H179444   5.642   6.393  14.050 -1.2804  0.5943  2.7918
19343TIP3    H279445   5.790   6.422  14.042 -0.7467 -2.5217  0.6167
19344TIP3   OH279446   6.266   1.733  16.683  0.8404 -0.1753 -0.4286
19344TIP3    H179447   6.297   1.819  16.656  0.5548  0.9273  2.6165
19344TIP3    H279448   6.182   1.723  16.639  0.7477  1.2217 -0.5888
19345TIP3   OH279449   5.120   3.310   4.640 -0.3673 -0.2931  0.4404
19345TIP3    H179450   5.086   3.314   4.729 -0.3799  2.5088  0.3541
19345TIP3    H279451   5.046   3.330   4.584  0.0923 -0.0347 -0.0869
19346TIP3   OH279452   3.496   3.857   5.682  0.1393 -0.4256  0.1763
19346TIP3    H179453   3.434   3.811   5.738  0.8179 -3.0778 -1.1850
19346TIP3    H279454   3.504   3.944   5.721 -0.9494 -1.5536  2.9924
19347TIP3   OH279455   1.583   3.111  10.937  0.8613 -0.3690 -0.2584
19347TIP3    H179456   1.515   3.167  10.975  2.8419  0.7991  1.6691
19347TIP3    H279457   1.568   3.116  10.842  0.4581  2.7351 -0.0751
19348TIP3   OH279458   5.761   6.678  15.106 -0.5690 -0.0061  0.0368
19348TIP3    H179459   5.803   6.619  15.043  3.9278  2.4437  0.5100
19348TIP3    H279460   5.741   6.757  15.055  0.4472  0.8837  0.9658
19349TIP3   OH279461   0.278   6.329  15.161 -0.3586  0.0599 -0.2485
19349TIP3    H179462   0.196   6.311  15.207 -1.4879 -0.2761 -2.3371
19349TIP3    H279463   0.328   6.383  15.222 -2.4171  0.8557  0.7825
19350TIP3   OH279464   1.024   2.320  16.555  0.2144 -0.0619  1.0198
19350TIP3    H179465   1.080   2.245  16.538 -2.0904 -1.4318 -0.8302
19350TIP3    H279466   0.951   2.285  16.606 -1.4918  0.5890 -0.8604
19351TIP3   OH279467   2.797   0.865  11.133  0.5603  0.1051  0.8006
19351TIP3    H179468   2.827   0.785  11.177 -0.1289  0.1876  1.4400
19351TIP3    H279469   2.703   0.851  11.120  0.5977  0.4590  0.1508
19352TIP3   OH279470   2.685   6.189  16.446  0.0678  0.0033 -0.3218
19352TIP3    H179471   2.655   6.152  16.363 -1.1761 -0.9693  0.5570
19352TIP3    H279472   2.767   6.143  16.465 -1.5472 -2.4758  0.8464
19353TIP3   OH279473   4.046   2.939  11.424  0.2486  0.0776  0.5906
19353TIP3    H179474   4.127   2.986  11.404 -0.8110  1.5132 -0.4485
19353TIP3    H279475   3.987   2.962  11.352 -0.8366 -1.5641  0.9325
19354TIP3   OH279476   3.771   2.575  16.790  0.3574 -0.5882  0.1624
19354TIP3    H179477   3.794   2.580  16.883 -3.0905 -1.8031  1.1486
19354TIP3    H279478   3.786   2.484  16.766  1.8240 -0.1425 -0.6701
19355TIP3   OH279479   0.743   5.445  14.610 -0.0898  0.0924  0.8778
19355TIP3    H179480   0.788   5.381  14.555 -1.0452 -0.1500  0.3661
19355TIP3    H279481   0.807   5.468  14.677  0.4918 -0.8992  0.6725
19356TIP3   OH279482   1.758   3.773   0.302  0.1143 -0.4006  0.6551
19356TIP3    H179483   1.801   3.766   0.217  0.1863 -0.9685  0.7393
19356TIP3    H279484   1.699   3.848   0.292 -1.8789 -2.1127 -0.7727
19357TIP3   OH279485   0.984   4.232   4.284 -0.2569 -0.2408  0.4456
19357TIP3    H179486   1.046   4.219   4.355 -1.9884 -2.8862  1.5214
19357TIP3    H279487   0.903   4.256   4.327 -0.4568  1.5580 -0.8623
19358TIP3   OH279488   2.662   4.640  12.828  0.1725 -0.4323 -0.2258
19358TIP3    H179489   2.582   4.588  12.819  1.0908 -2.1470  1.1285
19358TIP3    H279490   2.652   4.711  12.765 -3.2687  0.4545  1.1936
19359TIP3   OH279491   4.542   5.516   1.266  0.2409  0.1260  0.2311
19359TIP3    H179492   4.619   5.505   1.210 -0.3066 -0.0976 -0.4775
19359TIP3    H279493   4.491   5.585   1.223  0.1278  0.3929  0.7945
19360TIP3   OH279494   3.809   2.416   1.925 -0.3310  0.2749 -0.1261
19360TIP3    H179495   3.785   2.354   1.993 -1.1983  1.2646  0.5014
19360TIP3    H279496   3.843   2.492   1.972  0.2419  0.4689 -0.8492
19361TIP3   OH279497   0.710   0.387   1.447  0.0602  0.4675  0.1353
19361TIP3    H179498   0.619   0.385   1.420 -0.6930 -0.7882  2.6417
19361TIP3    H279499   0.743   0.472   1.417 -2.1155  1.2088 -0.1886
19362TIP3   OH279500   4.717   2.910  14.245  0.0032  0.0349  0.4746
19362TIP3    H179501   4.773   2.968  14.298  1.0667  0.0805 -0.6787
19362TIP3    H279502   4.732   2.823  14.282  0.4084  0.1328  0.5511
19363TIP3   OH279503   6.687   5.664  13.706  0.2403 -0.1201 -0.6034
19363TIP3    H179504   6.643   5.742  13.673 -1.3604 -0.1600  1.3031
19363TIP3    H279505   6.630   5.591  13.678 -0.3836 -0.2594  0.9443
19364TIP3   OH279506   1.055   1.443   4.603 -0.0537 -0.0076 -0.3874
19364TIP3    H179507   0.968   1.430   4.642 -0.1756  1.9334  0.0364
19364TIP3    H279508   1.051   1.531   4.566  1.1637 -0.5870 -1.9208
19365TIP3   OH279509   4.182   2.072  14.432  0.2997  0.3565  0.1261
19365TIP3    H179510   4.111   2.038  14.376  0.6384 -0.7512  0.3510
19365TIP3    H279511   4.262   2.049  14.386  0.4998  2.3586 -0.5308
19366TIP3   OH279512   1.039   3.451  11.317 -0.3875 -0.0799  0.1317
19366TIP3    H179513   0.985   3.372  11.312  0.5147 -0.6391 -1.2115
19366TIP3    H279514   1.080   3.447  11.403 -0.2679 -1.1576  0.0375
19367TIP3   OH279515   1.411   2.987  15.331 -0.8862  0.5998  0.1368
19367TIP3    H179516   1.496   2.943  15.342 -0.5178  1.0710 -0.7307
19367TIP3    H279517   1.349   2.931  15.377  0.3117  1.7248  3.2710
19368TIP3   OH279518   0.669   5.094   2.672 -0.4215 -0.3338  0.3661
19368TIP3    H179519   0.678   5.000   2.654  2.1066 -0.0907  0.1380
19368TIP3    H279520   0.600   5.100   2.738  1.6175 -2.6453  2.7902
19369TIP3   OH279521   3.436   6.460  13.134  0.2484 -0.2249 -0.3149
19369TIP3    H179522   3.510   6.402  13.116  0.1082 -0.3792 -0.3959
19369TIP3    H279523   3.359   6.404  13.126  0.0051  0.3442 -2.0306
19370TIP3   OH279524   6.398   6.356  15.173  0.6049 -0.0922 -0.3238
19370TIP3    H179525   6.309   6.351  15.140  0.2364  0.9922  0.4782
19370TIP3    H279526   6.391   6.406  15.254  1.7814 -0.9791  0.3450
19371TIP3   OH279527   4.885   1.653  13.382  0.5137  0.0047  0.5205
19371TIP3    H179528   4.938   1.615  13.452  0.2514 -1.2870  0.0178
19371TIP3    H279529   4.934   1.731  13.356  1.9426 -0.9115  0.3877
19372TIP3   OH279530   6.452   0.444  14.764 -0.4422  0.7078 -0.7976
19372TIP3    H179531   6.379   0.465  14.707 -0.9350  1.5911  0.1240
19372TIP3    H279532   6.490   0.530  14.786 -1.0377  0.5043  1.1775
19373TIP3   OH279533   1.145   2.378  16.001  0.2049 -0.2155 -0.1100
19373TIP3    H179534   1.189   2.295  15.982  1.2365  0.4810 -0.7815
19373TIP3    H279535   1.199   2.418  16.069 -0.7700 -0.4691  0.8354
19374TIP3   OH279536   5.511   1.750   0.720  0.1973 -0.1452 -1.0751
19374TIP3    H179537   5.583   1.734   0.658  0.1349  2.0078 -1.7242
19374TIP3    H279538   5.550   1.803   0.789  0.3358 -2.7626  0.9283
19375TIP3   OH279539   4.746   2.110   3.858  0.2001 -0.7475 -0.0153
19375TIP3    H179540   4.670   2.159   3.891  0.9054  0.6710 -0.4525
19375TIP3    H279541   4.807   2.109   3.932  1.2467  1.3016 -0.8257
19376TIP3   OH279542   3.754   1.321   3.532 -0.2930  0.1783  0.0604
19376TIP3    H179543   3.781   1.384   3.599  0.7044 -2.0439  1.7646
19376TIP3    H279544   3.658   1.326   3.533 -0.2351  2.1543 -0.3395
19377TIP3   OH279545   6.483   6.757  13.760  0.6860  0.5806  0.1103
19377TIP3    H179546   6.412   6.818  13.779  1.2177  1.8059 -1.7008
19377TIP3    H279547   6.445   6.670  13.776 -0.8456  1.2737  0.2921
19378TIP3   OH279548   2.584   4.306  11.793  0.3562 -0.0932  0.3940
19378TIP3    H179549   2.589   4.328  11.700 -0.1346  1.3249  0.6858
19378TIP3    H279550   2.548   4.384  11.834  0.8371 -0.5995  1.8232
19379TIP3   OH279551   6.786   1.813  15.862 -0.2106  0.0820  0.5914
19379TIP3    H179552   6.708   1.840  15.911  0.3193  0.0082  1.4772
19379TIP3    H279553   6.782   1.718  15.862  0.0196  0.0735  0.8547
19380TIP3   OH279554   2.358   2.553  10.527  0.5063 -0.1242  0.7671
19380TIP3    H179555   2.416   2.525  10.456 -0.3650  2.1840 -0.9250
19380TIP3    H279556   2.388   2.641  10.551 -0.6303  0.0361  1.6766
19381TIP3   OH279557   1.426   1.330  17.216  0.3503 -0.5707 -0.6727
19381TIP3    H179558   1.455   1.243  17.242  0.4300 -0.2711  0.2500
19381TIP3    H279559   1.404   1.374  17.298 -1.4678 -0.3382 -1.2470
19382TIP3   OH279560   5.092   3.550   3.943  0.0099  0.9150 -0.1562
19382TIP3    H179561   5.089   3.597   4.026 -1.4596  0.3213  0.1408
19382TIP3    H279562   5.097   3.458   3.968 -0.0337  0.7596 -0.7196
19383TIP3   OH279563   3.008   4.169   3.063  0.3683  0.5944  0.6037
19383TIP3    H179564   3.099   4.141   3.055  0.0927  0.1314 -1.1627
19383TIP3    H279565   2.981   4.139   3.149  1.4153 -0.6873  0.5025
19384TIP3   OH279566   0.484   6.607   0.320 -0.0652 -0.6125 -0.0940
19384TIP3    H179567   0.446   6.601   0.408  0.9513 -1.3566  0.3094
19384TIP3    H279568   0.483   6.517   0.288  0.5340 -0.5030 -0.4257
19385TIP3   OH279569   4.923   2.580  14.886  0.5623  0.0506 -0.1987
19385TIP3    H179570   4.938   2.669  14.856  0.1989 -0.5080 -2.1313
19385TIP3    H279571   4.838   2.556  14.849  2.0133 -2.1292 -2.2380
19386TIP3   OH279572   0.613   3.834   3.153  0.1839  0.2403 -0.0213
19386TIP3    H179573   0.575   3.797   3.074  1.4392  1.9652 -1.4665
19386TIP3    H279574   0.635   3.758   3.208 -0.8699 -0.9459 -1.2397
19387TIP3   OH279575   6.512   0.729  11.567 -0.4771  0.6872 -0.1171
19387TIP3    H179576   6.606   0.736  11.549 -0.5214  1.6161 -0.0167
19387TIP3    H279577   6.494   0.800  11.628 -1.2199  0.4107 -0.0090
19388TIP3   OH279578   0.203   2.098   0.383 -0.4772  0.1044 -0.3347
19388TIP3    H179579   0.257   2.125   0.309 -0.6077 -0.0042 -0.4688
19388TIP3    H279580   0.187   2.179   0.431  1.0124 -0.0839  0.5132
19389TIP3   OH279581   2.691   2.231   0.256  0.6061 -0.2630 -0.2764
19389TIP3    H179582   2.605   2.202   0.286  0.2649  0.1747 -0.8249
19389TIP3    H279583   2.673   2.289   0.182  1.3258  0.6215  0.2285
19390TIP3   OH279584   4.224   2.840  17.010 -0.7298 -0.1861  0.1272
19390TIP3    H179585   4.143   2.884  16.984 -1.3910 -1.1487  0.5172
19390TIP3    H279586   4.245   2.782  16.937 -0.6522 -0.2849  0.2257
19391TIP3   OH279587   5.608   5.275   2.659 -0.7859  0.3764 -0.2449
19391TIP3    H179588   5.607   5.346   2.595 -0.7893  0.6942  0.1103
19391TIP3    H279589   5.522   5.280   2.701 -1.6454 -1.2212 -1.7557
19392TIP3   OH279590   4.898   0.185   3.687 -0.5408 -0.3833 -0.1155
19392TIP3    H179591   4.816   0.137   3.702 -0.7137 -0.1191 -0.2077
19392TIP3    H279592   4.873   0.277   3.697 -0.3740 -0.2725 -0.7260
19393TIP3   OH279593   3.086   4.883   6.658 -0.1159 -0.3999  0.2854
19393TIP3    H179594   3.172   4.905   6.624 -0.6100  0.8241 -0.2062
19393TIP3    H279595   3.087   4.916   6.748 -0.1636 -0.1290  0.1881
19394TIP3   OH279596   0.464   5.003   3.875 -0.1337  0.2987 -0.0471
19394TIP3    H179597   0.514   4.934   3.832 -1.3602 -1.9970  2.0577
19394TIP3    H279598   0.510   5.016   3.958 -0.3933  1.4331 -0.0838
19395TIP3   OH279599   0.884   1.832   4.557 -0.0068 -0.4518 -0.2251
19395TIP3    H179600   0.903   1.846   4.649  0.0524  1.4531 -0.5078
19395TIP3    H279601   0.811   1.891   4.538 -1.7843 -2.7594 -0.7775
19396TIP3   OH279602   0.152   3.393  14.769  0.2399  0.1297 -0.5219
19396TIP3    H179603   0.158   3.298  14.759 -1.4826  0.2960 -3.4739
19396TIP3    H279604   0.071   3.406  14.819 -1.7212  0.1801 -3.6056
19397TIP3   OH279605   2.917   3.730  16.072 -0.1124 -0.5520  1.0962
19397TIP3    H179606   2.832   3.763  16.099  0.5763  1.3266  1.0445
19397TIP3    H279607   2.980   3.785  16.119  1.0792 -2.6689  2.0384
19398TIP3   OH279608   0.578   4.496  12.725  0.4001  0.0882 -0.0059
19398TIP3    H179609   0.656   4.510  12.673 -0.2216  0.2344 -0.9099
19398TIP3    H279610   0.523   4.437  12.673 -0.5608  0.8490  0.1223
19399TIP3   OH279611   3.613   5.690   1.695 -0.1217  0.2327  0.3460
19399TIP3    H179612   3.548   5.710   1.763 -0.4884  0.7058 -0.1384
19399TIP3    H279613   3.561   5.663   1.620  0.2605  0.3187  0.0503
19400TIP3   OH279614   0.447   5.145   2.853  0.1731 -0.0443  0.5498
19400TIP3    H179615   0.377   5.164   2.916 -1.3683 -2.3373 -0.4055
19400TIP3    H279616   0.498   5.075   2.894 -0.2116 -0.8224 -0.2971
19401TIP3   OH279617   4.615   5.231   3.129 -0.2211 -0.0094 -0.4838
19401TIP3    H179618   4.639   5.303   3.187  3.8124 -0.6549 -1.2567
19401TIP3    H279619   4.573   5.274   3.054  1.5070  1.4798 -0.6206
19402TIP3   OH279620   1.898   2.114  15.322 -0.1312  0.1456 -0.6368
19402TIP3    H179621   1.988   2.095  15.296 -0.1458  0.5923 -1.0218
19402TIP3    H279622   1.867   2.177  15.257 -1.3524 -1.4459 -1.6350
19403TIP3   OH279623   3.620   6.313   3.619  0.5724 -0.1739  0.3256
19403TIP3    H179624   3.646   6.344   3.705  0.3297 -1.8686  1.0296
19403TIP3    H279625   3.697   6.328   3.564  0.8342  0.6414  0.9114
19404TIP3   OH279626   4.667   3.028  15.951  0.1844 -0.2541 -0.1147
19404TIP3    H179627   4.576   3.028  15.980  0.4654 -0.8270  0.7771
19404TIP3    H279628   4.717   2.998  16.027  1.0181 -0.9013 -0.9003
19405TIP3   OH279629   3.853   3.011  12.557  0.2892 -0.1698  0.5346
19405TIP3    H179630   3.926   2.950  12.563 -0.1683 -0.7652  0.0722
19405TIP3    H279631   3.881   3.075  12.492 -0.1009 -1.1039 -0.5730
19406TIP3   OH279632   6.762   4.286  15.002 -0.2263  0.0284 -0.6490
19406TIP3    H179633   6.682   4.332  14.978  0.1689  0.0097 -2.0136
19406TIP3    H279634   6.734   4.223  15.069 -0.7002  2.4790  1.5543
19407TIP3   OH279635   3.197   4.402  12.346  0.4420  0.3351  0.0017
19407TIP3    H179636   3.192   4.356  12.430  0.0729 -0.9614 -0.7352
19407TIP3    H279637   3.288   4.390  12.318  0.1501 -0.5919 -0.5543
19408TIP3   OH279638   0.396   2.134   4.191 -0.3781 -0.0541  0.7670
19408TIP3    H179639   0.368   2.068   4.254  0.5426 -0.2911  0.9329
19408TIP3    H279640   0.438   2.201   4.244 -0.2588  0.1032  0.4750
19409TIP3   OH279641   1.554   5.354  13.319 -0.0608  0.5194 -0.5523
19409TIP3    H179642   1.526   5.263  13.331 -1.1972  0.7404 -1.4270
19409TIP3    H279643   1.499   5.404  13.380  0.2299  0.6695 -0.4135
19410TIP3   OH279644   1.918   5.115   2.834 -0.4985 -0.1179 -0.2185
19410TIP3    H179645   1.917   5.206   2.865 -0.3625 -0.2409  0.1608
19410TIP3    H279646   2.003   5.106   2.791 -2.0650  1.0298 -3.6766
19411TIP3   OH279647   4.576   6.339  13.970 -0.1577 -0.1632  0.0164
19411TIP3    H179648   4.589   6.389  13.889 -0.6641 -0.6855 -0.3851
19411TIP3    H279649   4.650   6.279  13.973 -0.8744 -1.0787 -0.7485
19412TIP3   OH279650   6.297   1.180  15.865  0.5609 -0.0380 -0.2712
19412TIP3    H179651   6.315   1.127  15.943  0.8395  0.9642  0.3504
19412TIP3    H279652   6.369   1.244  15.862 -0.1719  0.7749 -0.6083
19413TIP3   OH279653   2.123   6.754  11.265  0.0734  0.0987 -0.4549
19413TIP3    H179654   2.212   6.726  11.288  0.1739  1.4690  0.9475
19413TIP3    H279655   2.126   6.850  11.271 -1.9043  0.0979  1.2527
19414TIP3   OH279656   1.767   2.079  16.606 -0.2016 -0.3025  0.1960
19414TIP3    H179657   1.804   2.002  16.562  1.1269  0.5585 -0.2469
19414TIP3    H279658   1.722   2.126  16.536  0.2276  0.0634  0.1676
19415TIP3   OH279659   0.836   2.605   2.011 -0.2396  0.4622  0.4222
19415TIP3    H179660   0.785   2.523   2.011 -0.3426  0.4899  2.2385
19415TIP3    H279661   0.771   2.673   2.027 -0.2555  0.9956 -1.8247
19416TIP3   OH279662   3.023   1.958  13.170  0.0696 -0.6745  0.0054
19416TIP3    H179663   2.986   1.992  13.252 -2.2536 -0.6314 -1.0023
19416TIP3    H279664   3.050   2.035  13.121  1.2160 -0.6856  0.6107
19417TIP3   OH279665   0.412   5.309  16.830 -0.8261  0.3711  1.1635
19417TIP3    H179666   0.441   5.237  16.887  0.0548  0.4058  0.7701
19417TIP3    H279667   0.398   5.382  16.890  0.1520  0.4226  1.3374
19418TIP3   OH279668   3.251   5.685  11.731  0.1612 -0.1748 -0.2913
19418TIP3    H179669   3.274   5.594  11.748 -0.1939 -0.1915  0.1144
19418TIP3    H279670   3.226   5.720  11.817 -0.3060  0.1327 -0.5498
19419TIP3   OH279671   6.643   2.938  15.856 -0.3844 -0.4660 -0.4798
19419TIP3    H179672   6.672   2.915  15.767  0.7435 -1.9229  0.2322
19419TIP3    H279673   6.558   2.896  15.865 -1.2634  1.0581 -1.4246
19420TIP3   OH279674   2.729   5.814  11.087 -0.2502  0.2436 -0.5103
19420TIP3    H179675   2.746   5.851  11.000 -0.1366 -0.2152 -0.6873
19420TIP3    H279676   2.814   5.782  11.117 -0.5091 -0.7343 -0.7726
19421TIP3   OH279677   5.568   4.483   0.887  0.0085 -0.3941  0.3688
19421TIP3    H179678   5.542   4.486   0.979 -0.4199 -1.7563  0.3150
19421TIP3    H279679   5.515   4.411   0.850 -0.4846  0.7091 -1.1399
19422TIP3   OH279680   2.062   0.508  12.917 -0.6596 -0.0806 -0.1897
19422TIP3    H179681   2.016   0.525  12.835 -1.8796 -0.3514  0.4357
19422TIP3    H279682   2.109   0.589  12.935 -0.9111  0.2062 -0.8169
19423TIP3   OH279683   0.687   1.664   2.887  0.4235  0.4794  0.0970
19423TIP3    H179684   0.779   1.689   2.898  0.7469 -0.5203 -0.2633
19423TIP3    H279685   0.651   1.730   2.828  0.7493  1.2294  0.7271
19424TIP3   OH279686   3.570   5.216   5.548  0.1942  0.5741  0.0680
19424TIP3    H179687   3.634   5.189   5.614 -1.0536 -0.9277  0.7139
19424TIP3    H279688   3.490   5.230   5.598 -0.3352  1.0533 -0.9145
19425TIP3   OH279689   3.838   5.172   5.386  0.3011  0.0279 -0.2454
19425TIP3    H179690   3.836   5.080   5.410 -0.9612  0.0110 -0.3586
19425TIP3    H279691   3.768   5.182   5.322  1.0412  0.8760 -0.9514
19426TIP3   OH279692   1.140   2.330  11.335  0.2628  0.0396  0.5242
19426TIP3    H179693   1.161   2.237  11.335  2.4943  0.5126 -0.2186
19426TIP3    H279694   1.047   2.334  11.358  0.0040 -2.3928  0.0146
19427TIP3   OH279695   6.089   4.349   0.475  0.2339 -0.2893  0.0488
19427TIP3    H179696   6.154   4.380   0.539 -0.0399  0.3669  0.0092
19427TIP3    H279697   6.131   4.274   0.433  0.5046 -0.5879  0.8435
19428TIP3   OH279698   6.158   1.775  11.698 -0.0418  0.1935  0.1398
19428TIP3    H179699   6.094   1.816  11.640 -0.5550 -1.4636 -0.4801
19428TIP3    H279700   6.113   1.766  11.782 -0.6605 -1.0753 -0.3285
19429TIP3   OH279701   5.473   3.543   4.153 -0.6618  0.1833  0.1996
19429TIP3    H179702   5.422   3.621   4.177 -0.0540  0.0621  1.9577
19429TIP3    H279703   5.514   3.516   4.235  0.6822 -0.8552 -0.8062
19430TIP3   OH279704   3.075   5.647   5.160  0.2259 -0.0655 -0.4205
19430TIP3    H179705   3.095   5.655   5.067 -0.1927  0.0059 -0.5063
19430TIP3    H279706   3.003   5.584   5.163  0.8840 -0.8033 -0.0693
19431TIP3   OH279707   4.586   0.750  16.810  0.0182 -0.0683  1.0905
19431TIP3    H179708   4.511   0.775  16.756  0.9766  1.4081  0.4224
19431TIP3    H279709   4.568   0.659  16.835 -1.1184 -0.3155 -0.5477
19432TIP3   OH279710   6.668   1.789  11.298  0.7007 -0.4936 -0.1158
19432TIP3    H179711   6.591   1.797  11.241  0.7042 -1.9661 -0.3605
19432TIP3    H279712   6.639   1.728  11.366  1.1579  0.1586  0.6620
19433TIP3   OH279713   2.451   0.284  12.013  0.1514 -0.1792 -0.4226
19433TIP3    H179714   2.541   0.299  12.042 -0.1567 -0.0585  0.4790
19433TIP3    H279715   2.397   0.312  12.087 -0.6343 -0.0603 -1.0380
19434TIP3   OH279716   2.268   5.771   6.416 -0.1256  0.5957 -0.2391
19434TIP3    H179717   2.360   5.790   6.398  0.3659  1.4906  2.9482
19434TIP3    H279718   2.269   5.685   6.459 -0.7094  0.8741  0.3382
19435TIP3   OH279719   2.946   2.125   4.730  0.5681  0.2979  0.3606
19435TIP3    H179720   2.988   2.209   4.710  0.3869  0.1958 -0.4866
19435TIP3    H279721   3.004   2.060   4.691 -0.5308  0.1751 -1.1233
19436TIP3   OH279722   0.669   1.292  14.357 -0.2692  0.1022 -0.0577
19436TIP3    H179723   0.652   1.384  14.376 -0.2894  0.4136 -1.5358
19436TIP3    H279724   0.681   1.289  14.262  2.2908 -1.0006  0.2694
19437TIP3   OH279725   4.185   0.150   2.752  0.1281 -0.3437 -0.0360
19437TIP3    H179726   4.236   0.105   2.819 -0.4115  0.5449  1.0045
19437TIP3    H279727   4.186   0.092   2.677  0.0576 -1.7489  1.0258
19438TIP3   OH279728   6.398   1.612  13.453 -0.2141 -0.3854 -0.7133
19438TIP3    H179729   6.339   1.668  13.502 -0.5405 -0.2182 -1.3091
19438TIP3    H279730   6.344   1.573  13.384  0.0320 -1.3325 -0.3841
19439TIP3   OH279731   4.407   4.652   6.042 -0.4730  0.4408 -0.1731
19439TIP3    H179732   4.363   4.736   6.028  0.1720  1.0393  1.2027
19439TIP3    H279733   4.398   4.637   6.136  0.8548 -0.2238 -0.1489
19440TIP3   OH279734   3.712   1.330   3.185 -0.0945 -0.4690 -0.1991
19440TIP3    H179735   3.648   1.259   3.189  0.8524 -1.2611  0.9924
19440TIP3    H279736   3.700   1.378   3.267  0.0977  0.0375 -0.4614
19441TIP3   OH279737   3.888   5.731   3.773 -0.0373  0.8563 -0.2208
19441TIP3    H179738   3.981   5.744   3.751  0.2839  0.8726  1.0947
19441TIP3    H279739   3.855   5.672   3.705  2.0356 -2.7089  1.7690
19442TIP3   OH279740   0.462   1.170  13.508  0.7021  0.1012 -0.5456
19442TIP3    H179741   0.487   1.109  13.438  3.2989  0.5723 -0.0932
19442TIP3    H279742   0.406   1.234  13.465  0.5823 -0.7858 -1.7401
19443TIP3   OH279743   4.066   5.600  17.056 -0.1543 -0.0046  0.6637
19443TIP3    H179744   3.972   5.616  17.043 -0.8707 -1.6570  3.3820
19443TIP3    H279745   4.099   5.681  17.095  0.0734  1.4357 -2.3848
19444TIP3   OH279746   0.709   3.854   6.044 -0.1958 -0.4819 -0.0292
19444TIP3    H179747   0.799   3.842   6.014  0.3942  0.9992  1.0910
19444TIP3    H279748   0.712   3.836   6.138 -1.8099 -3.9845 -0.5871
19445TIP3   OH279749   0.822   1.816  12.462 -0.1876 -0.3473  0.3337
19445TIP3    H179750   0.818   1.849  12.552 -1.4940 -1.1566  0.6011
19445TIP3    H279751   0.730   1.801  12.438  0.1875 -0.7588 -0.8960
19446TIP3   OH279752   0.487   4.814   1.679  0.0119 -0.0403 -0.1014
19446TIP3    H179753   0.429   4.781   1.610 -0.5926 -0.0604  0.4093
19446TIP3    H279754   0.428   4.860   1.739  0.2226 -1.8728  1.5506
19447TIP3   OH279755   2.666   4.083  16.376  0.1486 -0.7878  0.2339
19447TIP3    H179756   2.653   4.008  16.318 -1.4023  0.4768 -1.1131
19447TIP3    H279757   2.682   4.157  16.317 -0.5490  0.3461  1.4387
19448TIP3   OH279758   1.270   5.849  16.484  0.0950  0.1935 -0.1626
19448TIP3    H179759   1.360   5.836  16.456  0.3726  0.8746  0.3995
19448TIP3    H279760   1.221   5.781  16.438  0.5351  1.2277 -2.2353
19449TIP3   OH279761   2.393   0.678  16.287  0.5907  0.7436 -0.2156
19449TIP3    H179762   2.485   0.662  16.264  0.4594 -1.9977  0.9602
19449TIP3    H279763   2.343   0.619  16.231 -0.5250  2.5968 -1.2243
19450TIP3   OH279764   6.639   2.171  11.888 -0.1024 -0.4103 -0.1604
19450TIP3    H179765   6.572   2.115  11.928  0.3734 -0.1070  1.0950
19450TIP3    H279766   6.675   2.221  11.961  0.1584  0.8404 -1.1166
19451TIP3   OH279767   2.022   6.005  13.855 -0.9794 -0.6624  0.0717
19451TIP3    H179768   2.022   6.031  13.947 -1.0151 -0.2686 -0.0403
19451TIP3    H279769   1.999   5.912  13.857  2.6089 -1.6054  0.6901
19452TIP3   OH279770   5.501   0.251  12.373  0.2272 -0.1802  0.3261
19452TIP3    H179771   5.455   0.268  12.455 -1.2799 -2.9802  0.1149
19452TIP3    H279772   5.450   0.299  12.307  0.6958  1.0133  0.8069
19453TIP3   OH279773   6.456   0.508   4.986  0.2566 -0.3170  0.6527
19453TIP3    H179774   6.543   0.522   5.023  1.0144 -1.7047 -0.5363
19453TIP3    H279775   6.442   0.414   4.991  0.0038 -0.4526 -1.6798
19454TIP3   OH279776   5.656   3.192  11.641  0.7277 -0.4170  0.9807
19454TIP3    H179777   5.713   3.204  11.565 -2.9040 -0.1260 -1.8132
19454TIP3    H279778   5.681   3.261  11.702  1.2852  1.6168 -1.4945
19455TIP3   OH279779   6.369   4.444   4.384  0.1699 -0.2294  0.4329
19455TIP3    H179780   6.358   4.539   4.379 -0.8972 -0.4040 -0.7835
19455TIP3    H279781   6.289   4.413   4.426 -0.9731 -0.8785 -2.1507
19456TIP3   OH279782   1.160   1.325  12.368 -0.2577 -0.1215 -0.1163
19456TIP3    H179783   1.103   1.275  12.426  0.0710 -1.3381 -0.8091
19456TIP3    H279784   1.103   1.390  12.327 -1.4355 -2.0700 -1.6802
19457TIP3   OH279785   6.368   0.789   3.007  0.2430  0.5316 -0.2131
19457TIP3    H179786   6.448   0.773   3.057  0.3100 -0.8152 -0.7160
19457TIP3    H279787   6.300   0.740   3.054  0.9459 -3.5721 -3.2231
19458TIP3   OH279788   3.494   1.938  12.634  0.3105 -0.2711  0.4150
19458TIP3    H179789   3.434   1.875  12.593 -0.2869  0.1977  0.5679
19458TIP3    H279790   3.468   1.940  12.726  0.4124  0.1058  0.4383
19459TIP3   OH279791   3.417   2.272   2.727 -0.5271 -0.0459 -0.4987
19459TIP3    H179792   3.361   2.256   2.803  1.4336 -0.9181  0.7960
19459TIP3    H279793   3.490   2.323   2.762  1.9022 -2.9250 -1.1484
19460TIP3   OH279794   6.385   4.972   5.135 -0.2527  0.1696  0.5240
19460TIP3    H179795   6.397   5.063   5.106 -0.2800  0.2860  0.8710
19460TIP3    H279796   6.377   4.922   5.054 -1.9250  0.7009  0.3468
19461TIP3   OH279797   6.056   4.633  14.453  0.2358  0.1981 -0.5017
19461TIP3    H179798   5.977   4.608  14.500  0.7954 -1.4049 -0.3674
19461TIP3    H279799   6.024   4.690  14.382 -1.1268 -1.0013 -0.8860
19462TIP3   OH279800   2.701   3.631  13.127 -0.5115  0.0187  0.4353
19462TIP3    H179801   2.795   3.642  13.112 -0.4564  0.1892  0.8833
19462TIP3    H279802   2.695   3.549  13.176 -0.7537 -0.9409 -1.1625
19463TIP3   OH279803   6.115   0.704   3.141 -0.5852 -0.6233  0.5468
19463TIP3    H179804   6.041   0.737   3.090  1.2960  1.4024 -0.9865
19463TIP3    H279805   6.101   0.738   3.229 -2.8259 -2.4712  0.9261
19464TIP3   OH279806   3.076   1.324  13.978  0.3205 -0.6640 -0.1883
19464TIP3    H179807   3.047   1.386  14.044  0.0621  0.3962 -1.2767
19464TIP3    H279808   3.160   1.291  14.010 -1.1692 -2.3384  2.0645
19465TIP3   OH279809   6.143   2.776   1.963 -0.0981 -0.5783 -0.1459
19465TIP3    H179810   6.136   2.748   2.054  1.6239 -1.0635 -0.1529
19465TIP3    H279811   6.160   2.870   1.967 -1.3702 -0.3413 -0.0160
19466TIP3   OH279812   3.372   4.430  14.563 -0.1810 -0.3891  0.0774
19466TIP3    H179813   3.290   4.478  14.553 -0.0031 -0.1632 -0.3420
19466TIP3    H279814   3.370   4.363  14.494  0.1260 -0.1765 -0.1412
19467TIP3   OH279815   0.202   6.745  11.805 -0.0098  0.8485  0.8281
19467TIP3    H179816   0.171   6.825  11.848 -0.2621  0.1314  1.9941
19467TIP3    H279817   0.159   6.745  11.720 -3.0837 -0.0228  2.3286
19468TIP3   OH279818   4.535   4.414   1.017  0.3480 -0.2303 -0.4113
19468TIP3    H179819   4.461   4.471   0.996 -0.6572 -0.6945  1.7641
19468TIP3    H279820   4.598   4.472   1.061 -0.6415 -0.7259  1.7297
19469TIP3   OH279821   2.567   1.743   0.482  0.0175 -0.3793 -0.0622
19469TIP3    H179822   2.645   1.776   0.438 -0.6300  1.0454 -0.1488
19469TIP3    H279823   2.525   1.820   0.519 -2.0427 -0.9680 -1.0984
19470TIP3   OH279824   6.197   3.721  11.313 -0.2605 -0.0516 -0.3459
19470TIP3    H179825   6.254   3.670  11.256  0.7405  1.2016 -0.4768
19470TIP3    H279826   6.133   3.761  11.253 -1.7276 -1.9682 -0.1324
19471TIP3   OH279827   4.998   0.305  12.218  0.3167 -0.5372 -0.4661
19471TIP3    H179828   4.908   0.279  12.238  0.6439 -1.8993 -0.6745
19471TIP3    H279829   4.996   0.400  12.217 -0.9502 -0.5397  0.3348
19472TIP3   OH279830   3.246   5.381   0.990  0.2237  0.4933  0.2374
19472TIP3    H179831   3.275   5.325   1.063  0.7884 -1.0893 -1.1639
19472TIP3    H279832   3.220   5.463   1.032 -1.6458 -1.1765  2.4782
19473TIP3   OH279833   0.236   0.733   2.692 -0.1692 -0.3216  0.4892
19473TIP3    H179834   0.304   0.789   2.654 -1.7728  1.0930 -0.4130
19473TIP3    H279835   0.274   0.700   2.773  0.9430  1.9124  0.9194
19474TIP3   OH279836   6.725   3.119   5.121  0.1403 -0.1091 -0.5640
19474TIP3    H179837   6.689   3.067   5.049 -2.7728 -1.6761  1.9042
19474TIP3    H279838   6.682   3.204   5.114 -0.4287 -0.3887 -0.4195
19475TIP3   OH279839   3.527   6.038   0.464 -0.4951  0.2487 -0.1339
19475TIP3    H179840   3.522   5.989   0.382 -0.6571  0.4802 -0.2632
19475TIP3    H279841   3.528   5.971   0.532  0.6219  0.0225 -0.3644
19476TIP3   OH279842   5.155   0.091   4.405  0.1687  0.3934 -0.4267
19476TIP3    H179843   5.196   0.023   4.458  1.8966  0.6467 -1.3951
19476TIP3    H279844   5.066   0.099   4.440  1.5049  1.1479  2.9529
19477TIP3   OH279845   1.845   4.024  13.248 -0.0419  0.5886  0.5411
19477TIP3    H179846   1.869   3.976  13.328 -1.2285 -0.2558  0.3995
19477TIP3    H279847   1.880   4.112  13.261  2.8575 -0.4925  0.4956
19478TIP3   OH279848   4.105   3.625   0.230 -0.1449  0.4643  0.0852
19478TIP3    H179849   4.198   3.610   0.216 -0.3647 -0.7407 -0.1323
19478TIP3    H279850   4.065   3.617   0.144 -0.5439  0.2702  0.2834
19479TIP3   OH279851   4.270   5.097  13.045  0.1020  0.1095  1.1147
19479TIP3    H179852   4.341   5.033  13.053 -0.7091 -0.7934  1.2366
19479TIP3    H279853   4.272   5.145  13.128  2.4822  2.1436 -0.0507
19480TIP3   OH279854   5.786   6.598   1.840  0.7443 -0.0097 -0.2178
19480TIP3    H179855   5.741   6.523   1.802 -1.5321  0.8676  0.6805
19480TIP3    H279856   5.855   6.619   1.777  1.0066 -2.4229 -0.7914
19481TIP3   OH279857   6.786   0.753  11.496 -0.1957 -0.0473 -0.0724
19481TIP3    H179858   6.777   0.722  11.406 -2.1244  0.7178 -0.1597
19481TIP3    H279859   6.855   0.820  11.492 -0.3857  0.0961 -1.0005
19482TIP3   OH279860   0.257   2.266  13.654  0.0341  0.3299 -0.4639
19482TIP3    H179861   0.335   2.214  13.640 -0.4949 -0.2076 -1.4974
19482TIP3    H279862   0.288   2.356  13.656  0.7796  0.0665 -0.0403
19483TIP3   OH279863   3.301   5.089  14.939  0.5835  0.3986 -0.0031
19483TIP3    H179864   3.290   5.003  14.981  1.5076  0.1775 -0.2132
19483TIP3    H279865   3.392   5.090  14.911  0.5352  1.4037 -0.1184
19484TIP3   OH279866   5.762   5.691   2.937 -0.0572  0.6708  0.0291
19484TIP3    H179867   5.675   5.667   2.969 -0.3921 -0.8167 -1.8806
19484TIP3    H279868   5.750   5.776   2.896 -1.0123 -0.2635 -1.6987
19485TIP3   OH279869   6.157   1.746   5.593  0.0037  0.1669 -0.2133
19485TIP3    H179870   6.163   1.796   5.675 -0.2244  0.0491 -0.1255
19485TIP3    H279871   6.106   1.668   5.615  0.6908 -0.2998 -0.2599
19486TIP3   OH279872   1.307   3.187  12.472  0.2039  0.4686  0.0224
19486TIP3    H179873   1.288   3.130  12.546 -0.1264  2.1910  1.3021
19486TIP3    H279874   1.245   3.161  12.404  0.7666 -1.3880  0.1845
19487TIP3   OH279875   5.538   0.725  12.788  0.1842 -0.3361  0.5279
19487TIP3    H179876   5.532   0.772  12.871  2.5587  1.6595 -0.3708
19487TIP3    H279877   5.631   0.705  12.778 -0.2831 -1.8807 -0.9442
19488TIP3   OH279878   6.732   4.721   6.144  0.6122  0.1148  0.3140
19488TIP3    H179879   6.653   4.750   6.098  1.0020  2.0906  0.8654
19488TIP3    H279880   6.803   4.736   6.081  0.8792  0.8128  0.7826
19489TIP3   OH279881   4.896   3.335   4.478 -0.2769 -0.1031  0.0651
19489TIP3    H179882   4.825   3.390   4.510 -1.3476 -0.5321 -1.5283
19489TIP3    H279883   4.860   3.292   4.400  1.7790 -0.2102 -0.8508
19490TIP3   OH279884   3.907   2.517   5.867  0.7128  0.2803  0.5267
19490TIP3    H179885   3.982   2.545   5.816  0.4352 -0.2030 -0.1653
19490TIP3    H279886   3.831   2.538   5.812  0.5188 -2.1777 -0.2335
19491TIP3   OH279887   1.159   4.162   6.081  0.7073  0.0144 -0.2995
19491TIP3    H179888   1.150   4.072   6.110  0.4190  0.0953 -0.1434
19491TIP3    H279889   1.070   4.194   6.070  0.8037  0.3226 -0.2192
19492TIP3   OH279890   5.278   1.815   3.598 -0.6643 -0.1856  0.0200
19492TIP3    H179891   5.317   1.782   3.517 -2.1714  2.9884 -2.1211
19492TIP3    H279892   5.352   1.849   3.648  0.0759 -0.4176 -0.9084
19493TIP3   OH279893   5.644   5.850  13.794 -0.0257  0.1369  0.5054
19493TIP3    H179894   5.635   5.754  13.797  1.8536 -0.0302  1.7100
19493TIP3    H279895   5.587   5.882  13.863 -0.4380 -0.1203  0.2885
19494TIP3   OH279896   5.220   5.987  15.992 -0.1025 -0.3174 -0.0103
19494TIP3    H179897   5.307   6.015  15.961 -0.4486 -0.0013 -0.7076
19494TIP3    H279898   5.228   5.892  15.999  0.7894 -0.1519  1.4773
19495TIP3   OH279899   1.713   6.616   5.514 -0.2119  0.3455 -0.5781
19495TIP3    H179900   1.774   6.673   5.560  1.7340 -1.1468 -1.2120
19495TIP3    H279901   1.769   6.555   5.466 -2.1730 -2.7659  0.9190
19496TIP3   OH279902   4.434   3.154  16.038  0.4664  0.0800  0.3821
19496TIP3    H179903   4.386   3.092  16.093  1.3118 -2.2057 -1.3916
19496TIP3    H279904   4.496   3.197  16.098 -0.1489 -0.7461  1.6312
19497TIP3   OH279905   6.737   3.031  14.664 -0.3343 -0.3793  0.0340
19497TIP3    H179906   6.819   3.034  14.713 -0.2885 -1.1286  0.0030
19497TIP3    H279907   6.744   3.103  14.601  0.8674 -1.2578 -0.8556
19498TIP3   OH279908   3.078   4.706  15.674 -0.5522  0.0463 -0.5413
19498TIP3    H179909   3.051   4.750  15.593 -1.5372 -0.1518 -0.3299
19498TIP3    H279910   3.009   4.729  15.737 -1.4727 -2.3869 -0.6145
19499TIP3   OH279911   6.225   5.996  16.484 -0.7009 -0.1046  0.1535
19499TIP3    H179912   6.311   5.957  16.498 -0.7054  0.4662  1.8592
19499TIP3    H279913   6.232   6.038  16.398  1.3784  1.5974  1.0841
19500TIP3   OH279914   4.987   1.791   2.547 -0.0794 -0.0847 -0.1682
19500TIP3    H179915   5.049   1.739   2.496  1.0416 -0.5406  1.6105
19500TIP3    H279916   4.908   1.737   2.551  0.7465 -1.2532  0.8313
19501TIP3   OH279917   0.371   5.703  12.242  0.1799  0.0234 -0.4894
19501TIP3    H179918   0.395   5.742  12.326 -0.1801  0.4143 -0.5709
19501TIP3    H279919   0.353   5.611  12.263 -0.8208  0.3309  0.0168
19502TIP3   OH279920   4.455   1.015   1.345  0.5960  0.3052 -0.3074
19502TIP3    H179921   4.517   0.944   1.331  0.0811  0.0732 -1.4528
19502TIP3    H279922   4.370   0.972   1.345  0.3691  0.7559  0.2838
19503TIP3   OH279923   6.139   3.321  13.341  0.3968 -0.2734 -0.3468
19503TIP3    H179924   6.195   3.381  13.389  0.9079 -0.2377 -0.9799
19503TIP3    H279925   6.140   3.354  13.251 -0.5963 -0.2977 -0.3751
19504TIP3   OH279926   5.406   3.563  16.593  0.2323  0.4316  0.4167
19504TIP3    H179927   5.319   3.546  16.627  1.0456 -0.6210  2.0177
19504TIP3    H279928   5.400   3.650  16.554 -1.6866  0.1020 -0.0560
19505TIP3   OH279929   4.097   5.761  13.335  0.4756  0.3786 -0.3429
19505TIP3    H179930   4.102   5.675  13.377  1.0969  0.6413  0.1186
19505TIP3    H279931   4.005   5.770  13.311  0.5415 -0.7193 -1.0380
19506TIP3   OH279932   6.536   2.783   3.018 -0.5831 -0.2189 -0.4777
19506TIP3    H179933   6.629   2.765   3.001 -0.2498  0.3719  0.7281
19506TIP3    H279934   6.501   2.699   3.048 -0.0419 -0.0032  0.7600
19507TIP3   OH279935   2.636   2.234   3.936 -0.0872 -0.0545 -0.5734
19507TIP3    H179936   2.552   2.279   3.947 -0.0542 -0.2397  0.5153
19507TIP3    H279937   2.638   2.169   4.006  0.4395 -0.8703 -1.3442
19508TIP3   OH279938   1.483   3.514   6.078 -0.5268  0.0264 -0.1582
19508TIP3    H179939   1.438   3.583   6.126  1.1910  1.8970 -1.1934
19508TIP3    H279940   1.565   3.501   6.125 -0.6403 -0.9962 -0.2350
19509TIP3   OH279941   3.870   3.758   6.190 -0.3166  0.0497  0.3465
19509TIP3    H179942   3.799   3.722   6.243 -0.8698  2.5470  1.3248
19509TIP3    H279943   3.835   3.759   6.101 -1.1718  0.4110  0.6874
19510TIP3   OH279944   2.575   3.772  12.568  0.8304 -0.1419 -0.3810
19510TIP3    H179945   2.615   3.766  12.481  1.3920  0.5544 -0.1682
19510TIP3    H279946   2.643   3.742  12.628  1.2152  1.5201  0.0255
19511TIP3   OH279947   3.688   4.542   1.878  0.3844 -0.0868 -0.3235
19511TIP3    H179948   3.756   4.569   1.940  0.1280  2.0671 -0.9209
19511TIP3    H279949   3.677   4.618   1.820 -1.4480 -0.9553 -1.1620
19512TIP3   OH279950   6.152   4.440  11.690  0.3841  0.0623  0.2719
19512TIP3    H179951   6.167   4.533  11.676 -0.2184  0.1332  0.1093
19512TIP3    H279952   6.236   4.407  11.721  0.6500  0.6240  0.1523
19513TIP3   OH279953   4.314   2.023   2.202  0.8516  0.4055  0.0680
19513TIP3    H179954   4.356   1.976   2.274  2.9777 -0.6185 -1.8078
19513TIP3    H279955   4.386   2.063   2.154 -0.5951  1.5494 -1.1793
19514TIP3   OH279956   4.739   4.315   3.757  0.2242 -0.8322 -0.3717
19514TIP3    H179957   4.681   4.324   3.833  1.2459  0.3350  0.2938
19514TIP3    H279958   4.699   4.246   3.704 -1.9374  0.1239 -0.0665
19515TIP3   OH279959   3.807   5.520   5.272 -0.5562  0.1051  0.4736
19515TIP3    H179960   3.856   5.456   5.221 -1.0807 -0.5433  0.7769
19515TIP3    H279961   3.864   5.597   5.274  0.8293 -0.9144  1.5195
19516TIP3   OH279962   3.639   5.186   1.894  0.0416  0.2315  0.1183
19516TIP3    H179963   3.576   5.122   1.860  0.3961 -0.3507  0.5500
19516TIP3    H279964   3.604   5.271   1.867 -0.1334 -0.1774 -0.9457
19517TIP3   OH279965   6.706   4.635   2.376  0.3986  0.0932 -0.7018
19517TIP3    H179966   6.686   4.673   2.461  0.7079  1.3939 -1.1855
19517TIP3    H279967   6.801   4.641   2.369  0.4388 -0.6973 -0.8255
19518TIP3   OH279968   2.118   2.921   2.750  0.0592  0.6866 -0.4595
19518TIP3    H179969   2.123   3.016   2.763  0.7191  0.6157 -0.1892
19518TIP3    H279970   2.096   2.910   2.658 -4.4816  1.2030  0.4661
19519TIP3   OH279971   3.968   2.654   1.997 -0.3762  0.1888  0.0168
19519TIP3    H179972   4.050   2.621   2.035  0.1239  0.8761 -0.4512
19519TIP3    H279973   3.996   2.715   1.929 -1.2804  0.9521  0.3077
19520TIP3   OH279974   4.666   2.452   1.829  0.1610 -0.0566 -0.5522
19520TIP3    H179975   4.727   2.397   1.780  1.2803  1.1564 -0.5387
19520TIP3    H279976   4.720   2.523   1.865 -1.3912  1.6015 -1.3709
19521TIP3   OH279977   6.046   2.537  15.774  0.1692  0.4137  0.8785
19521TIP3    H179978   6.092   2.554  15.692  0.2258  1.5929  1.1449
19521TIP3    H279979   6.073   2.609  15.832 -0.1372 -0.2152  1.8154
19522TIP3   OH279980   3.001   5.282  11.850  0.1276  0.1433 -0.3603
19522TIP3    H179981   3.013   5.189  11.831  0.8523  0.3142 -0.7321
19522TIP3    H279982   2.930   5.283  11.915 -1.5629 -0.4995 -2.1533
19523TIP3   OH279983   2.250   2.303  15.796  0.0662 -0.7987  0.1934
19523TIP3    H179984   2.329   2.268  15.756 -0.3487 -0.5968 -0.8226
19523TIP3    H279985   2.214   2.362  15.730  1.0487  1.9879  2.0707
19524TIP3   OH279986   5.417   6.637   5.182  0.7988  1.0460 -0.0972
19524TIP3    H179987   5.377   6.563   5.227 -0.8971  2.7797  1.3435
19524TIP3    H279988   5.362   6.652   5.105  0.8909  1.0724 -0.1583
19525TIP3   OH279989   5.911   1.495  12.873 -0.1524 -0.4811 -0.5470
19525TIP3    H179990   6.006   1.487  12.879 -0.2347 -1.5569 -0.5563
19525TIP3    H279991   5.889   1.572  12.926  0.5967 -0.9679  0.4618
19526TIP3   OH279992   2.272   4.496  14.999 -0.6739 -0.2455  0.1025
19526TIP3    H179993   2.184   4.459  15.005 -0.4573 -0.5715  1.5664
19526TIP3    H279994   2.330   4.421  14.994 -0.4019 -0.0697  0.5232
19527TIP3   OH279995   5.677   2.874  13.594 -0.3628 -0.8390 -0.1825
19527TIP3    H179996   5.594   2.830  13.611 -1.0988  0.8018  0.6091
19527TIP3    H279997   5.659   2.931  13.520 -0.3054  0.4511  0.7862
19528TIP3   OH279998   5.839   3.478  13.334 -0.3180 -0.0463 -0.2636
19528TIP3    H179999   5.807   3.568  13.344 -2.8877 -0.9468 -0.2324
19528TIP3    H280000   5.930   3.483  13.362 -0.4625  2.5137 -0.0713
19529TIP3   OH280001   5.983   6.572  16.335  0.0810  0.0284 -0.7424
19529TIP3    H180002   5.949   6.512  16.401 -2.3951  0.6004 -1.4294
19529TIP3    H280003   6.020   6.516  16.267  0.0042 -0.6394 -0.2332
19530TIP3   OH280004   2.395   1.862  14.283  0.0456 -0.1440  0.1537
19530TIP3    H180005   2.443   1.800  14.337 -1.3797 -0.0019  1.6453
19530TIP3    H280006   2.452   1.878  14.208  1.0306 -2.1813  0.4252
19531TIP3   OH280007   4.917   1.315   0.810  0.4440  0.3830 -0.2870
19531TIP3    H180008   4.980   1.280   0.747 -0.2043 -0.8486 -0.2654
19531TIP3    H280009   4.906   1.407   0.785 -0.0163 -0.1519 -2.1581
19532TIP3   OH280010   4.174   1.679   3.856  0.0964 -0.2033 -0.2839
19532TIP3    H180011   4.242   1.637   3.804  1.3191 -0.0226  1.1449
19532TIP3    H280012   4.146   1.754   3.803  2.4680  0.9298 -0.0070
19533TIP3   OH280013   6.648   0.914   5.070  0.2198 -0.5010  0.5201
19533TIP3    H180014   6.722   0.974   5.057 -0.9779  1.3368  1.8114
19533TIP3    H280015   6.657   0.884   5.160 -0.9114  0.1936  0.8782
19534TIP3   OH280016   6.130   4.410   2.954  0.5720  0.9855 -0.3036
19534TIP3    H180017   6.108   4.369   3.038  0.3108 -1.0470 -1.3264
19534TIP3    H280018   6.077   4.490   2.952 -2.2608 -0.7963 -0.1020
19535TIP3   OH280019   2.476   1.075  12.002  0.2032  0.1467  0.3134
19535TIP3    H180020   2.402   1.135  12.016  1.3707  1.4531  0.9594
19535TIP3    H280021   2.498   1.042  12.089  0.4082 -0.2143  0.1290
19536TIP3   OH280022   0.532   3.381  13.220  0.1812 -0.5910  0.4596
19536TIP3    H180023   0.494   3.296  13.242 -3.1430  0.8778  0.7520
19536TIP3    H280024   0.474   3.416  13.152  1.2507  1.6161  0.6570
19537TIP3   OH280025   6.317   0.740   4.969  0.3965 -0.4146 -0.1545
19537TIP3    H180026   6.390   0.679   4.976  0.9341  0.1484 -0.7241
19537TIP3    H280027   6.299   0.744   4.875 -0.2012 -0.3521 -0.0412
19538TIP3   OH280028   3.968   1.063   4.280  0.0311  0.1770 -0.0269
19538TIP3    H180029   4.034   1.125   4.248 -1.6975  1.8279 -0.4518
19538TIP3    H280030   3.977   1.066   4.376  0.3956  0.5894 -0.0702
19539TIP3   OH280031   1.089   5.332   3.532 -0.1653 -0.2959  0.2474
19539TIP3    H180032   1.049   5.307   3.615  1.5678 -1.0256  0.8961
19539TIP3    H280033   1.182   5.342   3.553  0.0256  1.2174 -1.2394
19540TIP3   OH280034   5.273   2.740  16.541  0.3166 -0.1874  0.0888
19540TIP3    H180035   5.288   2.822  16.494  0.4501  0.1677  0.7389
19540TIP3    H280036   5.178   2.738  16.555  0.3203 -0.1186  0.1209
19541TIP3   OH280037   1.721   2.171   1.108  0.2692 -0.5902  0.1230
19541TIP3    H180038   1.677   2.114   1.045 -0.4963 -0.6224  0.6766
19541TIP3    H280039   1.722   2.257   1.066 -1.1913 -0.3754  0.5002
19542TIP3   OH280040   6.468   2.239   0.418  0.1217  0.1761 -0.4223
19542TIP3    H180041   6.563   2.235   0.405 -0.0372 -1.0219 -1.2925
19542TIP3    H280042   6.432   2.255   0.330 -0.5951 -1.4508 -0.4408
19543TIP3   OH280043   4.018   5.740   4.028 -0.3955 -0.4968 -0.1112
19543TIP3    H180044   3.946   5.748   3.965 -1.2778 -0.3594  0.8958
19543TIP3    H280045   4.014   5.820   4.080  1.5717  0.2951 -1.1330
19544TIP3   OH280046   5.407   5.780   2.670  0.5809 -0.0352  0.3973
19544TIP3    H180047   5.372   5.744   2.751 -1.8711 -0.7062 -0.9158
19544TIP3    H280048   5.361   5.863   2.659  0.1270 -0.4448 -0.8412
19545TIP3   OH280049   2.044   1.198   1.637  0.0167 -0.2954 -0.3626
19545TIP3    H180050   2.061   1.147   1.559 -0.7245 -1.6819  0.3724
19545TIP3    H280051   1.974   1.151   1.682 -1.0651  1.6501  0.0518
19546TIP3   OH280052   2.621   3.833   1.408 -0.0329 -0.0783  0.3084
19546TIP3    H180053   2.611   3.858   1.316 -2.3453  1.9048  1.0487
19546TIP3    H280054   2.697   3.883   1.439  0.9637 -1.0103 -0.5526
19547TIP3   OH280055   2.725   3.153  11.860  0.0064  0.3109  0.1246
19547TIP3    H180056   2.636   3.152  11.827 -0.0543 -1.6770  0.2697
19547TIP3    H280057   2.778   3.183  11.786 -0.4855 -1.0700 -0.8018
19548TIP3   OH280058   1.902   0.527   4.441 -0.0280  0.0409  0.3843
19548TIP3    H180059   1.837   0.456   4.436  1.9372 -1.8362  0.9932
19548TIP3    H280060   1.850   0.606   4.458 -2.0447 -1.5991  1.9931
19549TIP3   OH280061   4.097   5.076  16.877 -0.3834 -0.6296  0.0574
19549TIP3    H180062   4.151   5.008  16.918  1.0083  0.7421  0.5434
19549TIP3    H280063   4.057   5.123  16.951  0.3062  0.3867 -0.1994
19550TIP3   OH280064   6.643   5.773   4.833 -0.1293  0.3844  0.2181
19550TIP3    H180065   6.676   5.718   4.762  0.9761  0.0272  0.9943
19550TIP3    H280066   6.578   5.719   4.877 -0.5232  0.4574 -0.2746
19551TIP3   OH280067   0.151   0.758   5.142  0.3162 -0.3652 -0.2610
19551TIP3    H180068   0.147   0.808   5.224  1.3734  1.4092 -1.2699
19551TIP3    H280069   0.184   0.672   5.168  2.4509  0.7858  0.9282
19552TIP3   OH280070   0.987   2.566   6.796  0.1045  0.0023 -0.2249
19552TIP3    H180071   0.985   2.647   6.848  1.5144 -0.6430  0.8750
19552TIP3    H280072   0.895   2.546   6.780 -0.3333  0.7344  1.2404
19553TIP3   OH280073   4.140   5.102   1.789 -0.1619  0.1003 -0.1625
19553TIP3    H180074   4.213   5.163   1.774 -0.6474  0.9209  0.7742
19553TIP3    H280075   4.168   5.050   1.864  1.1888 -2.3245 -2.2654
19554TIP3   OH280076   4.430   3.082   3.197  0.5356 -0.1439  0.2270
19554TIP3    H180077   4.504   3.108   3.142  0.4826 -0.7614 -0.1340
19554TIP3    H280078   4.353   3.099   3.143  0.4486 -0.1979  0.3332
19555TIP3   OH280079   5.077   5.859  11.172  0.2287 -0.0581  0.1719
19555TIP3    H180080   5.062   5.766  11.157 -0.3788  0.0822 -0.0695
19555TIP3    H280081   5.158   5.879  11.125  0.1785 -0.3856 -0.0473
19556TIP3   OH280082   5.065   4.652   5.175  0.1333 -0.0208  0.0113
19556TIP3    H180083   5.051   4.585   5.108  0.2191  1.2034 -1.2509
19556TIP3    H280084   4.976   4.678   5.201  0.0939 -0.0061 -0.1341
19557TIP3   OH280085   3.533   0.889   0.915 -0.0721 -0.0431 -0.3643
19557TIP3    H180086   3.465   0.898   0.848  0.5591  1.3863 -0.8362
19557TIP3    H280087   3.498   0.934   0.991  0.1839  0.3419 -0.4763
19558TIP3   OH280088   1.094   1.237   1.195 -0.7110 -0.1431  0.4919
19558TIP3    H180089   1.056   1.239   1.108 -0.4089 -0.7060  0.3431
19558TIP3    H280090   1.019   1.234   1.255 -0.9067 -1.1324  0.2076
19559TIP3   OH280091   5.460   4.068  17.151  0.5518 -0.0664  0.0333
19559TIP3    H180092   5.525   4.063  17.081  1.4028  1.5901  0.6790
19559TIP3    H280093   5.511   4.067  17.232 -0.3895 -1.4724  0.6296
19560TIP3   OH280094   5.592   2.966  15.418  0.2133  0.7067 -0.0337
19560TIP3    H180095   5.508   2.939  15.454 -0.8725  0.9048 -2.2718
19560TIP3    H280096   5.657   2.923  15.473 -1.3837 -2.3443 -0.3822
19561TIP3   OH280097   0.493   4.343  12.467 -0.0399 -0.0717  0.5362
19561TIP3    H180098   0.577   4.299  12.480  0.3537  0.6759  0.5853
19561TIP3    H280099   0.449   4.291  12.399 -0.5739 -1.8644  2.2183
19562TIP3   OH280100   5.507   1.464  16.732  0.0498 -0.3439 -0.2739
19562TIP3    H180101   5.527   1.382  16.686  0.7930 -0.4548  0.2422
19562TIP3    H280102   5.412   1.473  16.725 -0.1743 -1.8142  0.5809
19563TIP3   OH280103   1.071   4.448   3.296  0.2372 -0.2197  0.2498
19563TIP3    H180104   1.060   4.355   3.274 -0.0307 -0.3259  0.8239
19563TIP3    H280105   0.992   4.490   3.261  0.5986 -0.1273 -0.4582
19564TIP3   OH280106   3.964   2.643  12.067 -0.1708  0.2341  0.0192
19564TIP3    H180107   3.944   2.558  12.106 -2.1205 -0.7917 -3.0668
19564TIP3    H280108   3.879   2.678  12.041  0.7962  2.2300 -0.5341
19565TIP3   OH280109   0.350   6.117  13.611  0.1234 -0.3608  0.3922
19565TIP3    H180110   0.400   6.129  13.692  0.2366 -0.3159  0.3166
19565TIP3    H280111   0.329   6.206  13.583  0.4584 -0.3611  0.1396
19566TIP3   OH280112   4.705   0.758   2.895 -0.4203 -0.0225  0.5785
19566TIP3    H180113   4.742   0.677   2.932 -0.9056 -0.0660  0.9697
19566TIP3    H280114   4.631   0.779   2.951 -0.4768  0.5393  0.3025
19567TIP3   OH280115   6.458   5.304  15.755  0.3050  0.5964  0.0996
19567TIP3    H180116   6.549   5.311  15.785  1.0679  0.9202 -2.1640
19567TIP3    H280117   6.453   5.363  15.680 -0.6087 -2.4850 -2.4001
19568TIP3   OH280118   1.174   6.498  12.908 -0.0047  0.1239  0.1915
19568TIP3    H180119   1.087   6.512  12.943 -0.0359 -2.5305  1.2834
19568TIP3    H280120   1.160   6.467  12.819 -0.1465  0.3034  0.1517
19569TIP3   OH280121   5.108   0.588   0.496  0.5396  0.1010  0.1042
19569TIP3    H180122   5.162   0.509   0.489  1.7573  0.9924 -0.8098
19569TIP3    H280123   5.061   0.577   0.579  0.5425 -1.6583 -0.1003
19570TIP3   OH280124   1.148   2.623  10.978 -0.3099  0.8646 -0.4847
19570TIP3    H180125   1.133   2.716  10.991 -1.4819  0.4303  1.3832
19570TIP3    H280126   1.123   2.607  10.888  1.3037  2.6190 -1.2920
19571TIP3   OH280127   6.742   6.416  12.833 -0.1571  0.2684 -0.4046
19571TIP3    H180128   6.683   6.389  12.904 -0.2829  0.2976 -0.4984
19571TIP3    H280129   6.684   6.431  12.759 -0.1733  1.6535 -0.1139
19572TIP3   OH280130   4.303   5.397  14.300 -1.4717  0.8026 -0.2105
19572TIP3    H180131   4.367   5.455  14.341 -0.9488  0.6909 -0.8595
19572TIP3    H280132   4.268   5.447  14.226 -0.0167 -0.2128 -1.5955
19573TIP3   OH280133   1.355   6.766   2.351  0.1433 -0.0712 -0.2087
19573TIP3    H180134   1.369   6.797   2.261 -0.9449 -0.3855 -0.4951
19573TIP3    H280135   1.284   6.821   2.384  2.2778  1.7898  1.3678
19574TIP3   OH280136   4.877   5.627   0.214 -0.7082  0.3380 -0.1433
19574TIP3    H180137   4.941   5.557   0.225 -1.2541 -0.0887  0.3590
19574TIP3    H280138   4.792   5.586   0.235 -1.0532  1.0899 -0.0365
19575TIP3   OH280139   4.184   1.830  16.054  0.1168  0.1590 -0.4311
19575TIP3    H180140   4.234   1.754  16.025  0.1126 -0.2545  0.6134
19575TIP3    H280141   4.097   1.795  16.074  0.4405  0.2042  1.1531
19576TIP3   OH280142   5.612   4.835  16.384  0.8724 -0.0799 -0.1384
19576TIP3    H180143   5.588   4.883  16.463  0.1384  2.6049 -1.9019
19576TIP3    H280144   5.706   4.817  16.394  0.7154 -0.0344  1.4732
19577TIP3   OH280145   1.801   6.285   5.999  0.1776 -0.2108  0.4177
19577TIP3    H180146   1.875   6.262   6.055 -0.7658 -0.6619  1.4967
19577TIP3    H280147   1.796   6.214   5.936  1.3027  0.3476 -0.3266
19578TIP3   OH280148   3.494   6.611  10.701 -0.3592 -0.1530 -0.4405
19578TIP3    H180149   3.504   6.517  10.720 -0.8840 -0.3135 -0.9396
19578TIP3    H280150   3.559   6.628  10.633 -0.9140 -0.3732 -1.0336
19579TIP3   OH280151   5.760   3.071   4.981  0.4122  0.0126 -0.4174
19579TIP3    H180152   5.676   3.104   4.950 -0.4572 -0.7943  1.0467
19579TIP3    H280153   5.821   3.090   4.909 -0.7073  1.8784 -0.9011
19580TIP3   OH280154   0.144   6.332  13.966  0.5010 -0.3114  0.2645
19580TIP3    H180155   0.196   6.393  14.018 -1.7635  0.7946  1.3265
19580TIP3    H280156   0.113   6.384  13.892 -0.5194 -0.4817  0.5695
19581TIP3   OH280157   0.486   5.994   2.353 -0.2369  0.4499  0.2758
19581TIP3    H180158   0.413   5.931   2.355  0.1865 -0.0090  2.7343
19581TIP3    H280159   0.556   5.947   2.307 -0.5450 -0.1607  0.4208
19582TIP3   OH280160   6.667   3.889  14.690 -0.0421  0.2140  0.6821
19582TIP3    H180161   6.732   3.918  14.627  0.4453  0.8789  1.4894
19582TIP3    H280162   6.591   3.945  14.674  0.2068  0.6179  0.9302
19583TIP3   OH280163   0.717   0.916   2.745 -0.0141 -0.3843 -0.1508
19583TIP3    H180164   0.799   0.965   2.750  0.0176 -0.4841  0.3564
19583TIP3    H280165   0.654   0.977   2.707  0.3345 -0.3592 -0.6940
19584TIP3   OH280166   3.022   4.991   0.797 -0.2331 -0.6349 -0.2582
19584TIP3    H180167   3.035   4.920   0.860 -2.0807 -0.3147  0.4987
19584TIP3    H280168   3.009   5.069   0.850  0.3574  0.0450 -1.0789
19585TIP3   OH280169   4.429   5.442  14.562  0.8747 -0.0791  0.1880
19585TIP3    H180170   4.502   5.445  14.624  0.8560 -1.8121  0.3168
19585TIP3    H280171   4.432   5.354  14.525 -2.0948 -0.7395  1.3599
19586TIP3   OH280172   1.372   6.032  13.933  0.0612 -0.1748  0.8277
19586TIP3    H180173   1.409   6.057  14.018  2.1555  0.4312 -0.2096
19586TIP3    H280174   1.446   5.994  13.886 -1.1541 -0.7902 -0.6142
19587TIP3   OH280175   6.322   1.414   0.291 -0.0411  0.3974  0.0061
19587TIP3    H180176   6.228   1.398   0.287  0.1228 -0.4679 -0.6151
19587TIP3    H280177   6.336   1.455   0.377 -0.9594  0.4006  0.1611
19588TIP3   OH280178   3.328   4.848  15.078 -0.3511 -0.0906  0.0079
19588TIP3    H180179   3.236   4.874  15.070 -0.2552 -0.0468 -1.0164
19588TIP3    H280180   3.348   4.861  15.171 -1.2181  0.4299  0.1337
19589TIP3   OH280181   2.239   6.664   1.511  0.6468 -0.2350 -0.5879
19589TIP3    H180182   2.191   6.600   1.563  0.8744 -0.3813 -0.5576
19589TIP3    H280183   2.186   6.677   1.433 -0.4935  1.1635  0.3993
19590TIP3   OH280184   6.272   1.663   4.749 -0.1134  0.1378  0.5171
19590TIP3    H180185   6.286   1.758   4.751 -2.3224  0.4929  0.0022
19590TIP3    H280186   6.178   1.653   4.735  0.3963 -2.1190 -1.6369
19591TIP3   OH280187   3.780   6.104   0.593  0.3405 -0.0548 -0.1169
19591TIP3    H180188   3.841   6.064   0.532  1.4331  0.1578  0.8357
19591TIP3    H280189   3.695   6.101   0.547  0.9432 -0.8643 -1.1934
19592TIP3   OH280190   5.234   3.705  15.544  0.2421 -0.3912 -0.3244
19592TIP3    H180191   5.316   3.656  15.546  0.1294 -0.6025 -0.6794
19592TIP3    H280192   5.173   3.648  15.497 -0.5863 -0.9522  1.3902
19593TIP3   OH280193   2.183   2.350  14.747 -0.6590  0.5486 -0.0777
19593TIP3    H180194   2.168   2.444  14.758 -0.2199  0.5106  0.8900
19593TIP3    H280195   2.146   2.330  14.661 -1.3642  1.4779 -0.0045
19594TIP3   OH280196   4.620   1.055   0.926  0.6473 -0.6737 -0.1569
19594TIP3    H180197   4.532   1.092   0.915  1.3404  2.4597  4.0050
19594TIP3    H280198   4.671   1.094   0.855 -0.7988 -0.9341 -1.3738
19595TIP3   OH280199   4.184   3.407  15.673 -0.3715 -0.2707 -0.3831
19595TIP3    H180200   4.164   3.317  15.649 -1.8410  0.2125 -1.0039
19595TIP3    H280201   4.109   3.436  15.725  0.4687  0.3325  0.5286
19596TIP3   OH280202   0.094   2.045  11.333 -0.4880  0.2199  0.4044
19596TIP3    H180203   0.060   1.991  11.405 -0.2707  0.0598  0.3872
19596TIP3    H280204   0.090   1.987  11.257 -3.8166  1.4164 -0.4019
19597TIP3   OH280205   1.748   4.163  10.706 -0.1092 -0.3600 -0.0078
19597TIP3    H180206   1.832   4.205  10.720 -0.9833  1.4580 -0.0761
19597TIP3    H280207   1.683   4.232  10.723 -1.5146 -0.9852 -2.5327
19598TIP3   OH280208   5.717   2.850   2.959  0.3627  0.2194  0.1970
19598TIP3    H180209   5.719   2.884   2.869 -1.2176  1.4127  0.6057
19598TIP3    H280210   5.808   2.859   2.989  0.7921  0.3459 -1.0741
19599TIP3   OH280211   1.998   5.565   3.904  1.0176 -0.1851  0.3759
19599TIP3    H180212   1.942   5.642   3.903 -0.1249 -1.0060 -0.2425
19599TIP3    H280213   2.005   5.541   3.996 -1.3543 -1.2741  0.2965
19600TIP3   OH280214   4.238   0.913   0.084  0.2526  0.4377  0.0826
19600TIP3    H180215   4.251   0.948  -0.004 -0.1110 -2.5284 -1.2182
19600TIP3    H280216   4.145   0.893   0.089  0.2688  0.5907  1.1403
19601TIP3   OH280217   1.496   2.229   4.072  0.6353  0.5896  0.6629
19601TIP3    H180218   1.459   2.237   4.160 -0.0552  0.7361  0.3668
19601TIP3    H280219   1.581   2.272   4.078  1.8680 -1.9021  1.9940
19602TIP3   OH280220   2.138   2.587   0.968 -0.4023 -0.3568  0.4425
19602TIP3    H180221   2.144   2.596   1.063 -0.5736  0.1246  0.4102
19602TIP3    H280222   2.229   2.579   0.939 -0.2641  0.8330  0.5227
19603TIP3   OH280223   6.529   2.318   0.977  0.4410  0.3280  1.0487
19603TIP3    H180224   6.436   2.304   0.994  0.2292  0.9992  0.4551
19603TIP3    H280225   6.556   2.241   0.926 -0.1377  0.8522 -0.0556
19604TIP3   OH280226   3.593   5.416  11.541 -0.2036 -0.3292  0.1796
19604TIP3    H180227   3.687   5.432  11.552  0.2377 -1.7293 -1.2935
19604TIP3    H280228   3.568   5.472  11.468 -0.6725  0.5551  1.0124
19605TIP3   OH280229   4.501   2.985  11.190  0.0112  0.5070  0.4911
19605TIP3    H180230   4.533   2.913  11.135  0.6928  0.5544  0.8187
19605TIP3    H280231   4.504   3.061  11.132  1.0764  0.6265  0.6916
19606TIP3   OH280232   4.620   0.952   4.339 -0.3372 -0.8236  0.1120
19606TIP3    H180233   4.547   0.927   4.283 -0.3368  0.1826 -0.3464
19606TIP3    H280234   4.676   1.006   4.283 -0.8347  1.0236  1.3235
19607TIP3   OH280235   6.485   6.506  14.285  0.1565  0.1735 -0.6844
19607TIP3    H180236   6.505   6.419  14.318 -1.1730 -0.3501 -1.1889
19607TIP3    H280237   6.567   6.538  14.250  0.9815 -0.3109  0.7672
19608TIP3   OH280238   6.166   3.619   2.544 -0.2520  0.0538  0.6688
19608TIP3    H180239   6.146   3.527   2.558 -0.6039  0.0452  0.1289
19608TIP3    H280240   6.123   3.664   2.618  2.6786 -0.4917  2.7827
19609TIP3   OH280241   3.753   2.894   1.271 -0.2098  0.2687  0.3297
19609TIP3    H180242   3.786   2.867   1.357  2.3624 -0.1493 -0.7385
19609TIP3    H280243   3.820   2.863   1.209 -2.8657 -1.0173 -2.0022
19610TIP3   OH280244   0.416   0.251  14.755  0.2374 -0.5865 -0.4271
19610TIP3    H180245   0.388   0.161  14.770 -0.9904 -0.3879 -1.4716
19610TIP3    H280246   0.467   0.246  14.673 -2.3413  0.1281 -2.1379
19611TIP3   OH280247   0.026   1.416   0.824  0.1096  0.2335  0.0492
19611TIP3    H180248  -0.015   1.502   0.825 -4.9289 -1.9843 -1.6468
19611TIP3    H280249   0.033   1.395   0.731  0.1487 -1.7240  0.4856
19612TIP3   OH280250   1.648   4.703   3.136 -0.4327  0.0622 -0.2845
19612TIP3    H180251   1.716   4.636   3.142 -0.6722 -0.2480 -0.9301
19612TIP3    H280252   1.570   4.655   3.109 -1.0210  0.3492  0.9033
19613TIP3   OH280253   6.692   5.291   0.359  0.2329  0.3164 -0.3520
19613TIP3    H180254   6.746   5.348   0.305  0.5507  1.5640  1.2293
19613TIP3    H280255   6.690   5.334   0.444  0.0051 -1.7470  0.7271
19614TIP3   OH280256   4.665   4.094  15.389  0.0500 -0.4544  0.3400
19614TIP3    H180257   4.726   4.021  15.389 -1.8331 -2.0608 -0.8005
19614TIP3    H280258   4.693   4.149  15.462  2.9542 -1.0462 -0.2845
19615TIP3   OH280259   1.244   0.631  16.509 -0.3259 -0.3031  0.0540
19615TIP3    H180260   1.330   0.673  16.500 -0.3743 -0.3600 -0.6677
19615TIP3    H280261   1.261   0.538  16.491 -0.9248  0.0167 -2.2836
19616TIP3   OH280262   2.578   3.248  17.009  0.2835  0.4520  0.7676
19616TIP3    H180263   2.611   3.185  17.073  0.3424  1.7502  2.0393
19616TIP3    H280264   2.608   3.215  16.924  2.7043  0.2618  1.6667
19617TIP3   OH280265   3.782   5.212   1.286  0.2850 -0.2244 -0.3406
19617TIP3    H180266   3.710   5.274   1.295  1.7217  1.4419 -0.0410
19617TIP3    H280267   3.835   5.247   1.215  1.7350 -0.4654  0.5971
19618TIP3   OH280268   3.656   3.977  14.431  0.1570 -0.8154  0.3412
19618TIP3    H180269   3.712   3.956  14.356  0.9992 -0.8903  0.9755
19618TIP3    H280270   3.664   4.071  14.442  0.4574 -0.8776  0.6631
19619TIP3   OH280271   3.313   0.734  13.455  0.1940 -0.1899  0.4510
19619TIP3    H180272   3.301   0.731  13.550  1.4030 -3.3261  0.5653
19619TIP3    H280273   3.331   0.643  13.430  0.3755  0.6519 -2.7273
19620TIP3   OH280274   5.714   2.001  13.259 -1.2401  0.1269  0.2360
19620TIP3    H180275   5.785   2.047  13.214 -0.7479 -1.9662 -1.1873
19620TIP3    H280276   5.737   2.009  13.352  1.1497 -0.8969 -0.2200
19621TIP3   OH280277   1.165   2.072  15.747  0.2752  0.0718  0.6952
19621TIP3    H180278   1.085   2.080  15.697 -0.2666 -0.3966  1.4687
19621TIP3    H280279   1.154   1.991  15.797 -0.3556  1.8543  3.5725
19622TIP3   OH280280   3.938   1.783  13.724  0.1828 -0.4242  0.2893
19622TIP3    H180281   4.002   1.766  13.655 -0.8202  0.9857 -1.0393
19622TIP3    H280282   3.933   1.702  13.774  0.1640 -1.8475 -1.9648
19623TIP3   OH280283   4.762   6.047   2.373  0.1979  0.0345 -0.3489
19623TIP3    H180284   4.742   5.976   2.434  1.0232 -0.7978 -1.0490
19623TIP3    H280285   4.818   6.007   2.306  0.6476  1.3356 -0.7594
19624TIP3   OH280286   0.825   6.012  11.370  0.2071 -0.4177  0.0410
19624TIP3    H180287   0.901   6.064  11.396  0.4903 -0.4460 -0.7321
19624TIP3    H280288   0.863   5.931  11.334 -0.2128 -0.8639  0.5874
19625TIP3   OH280289   3.203   4.076   2.250 -0.2162 -0.0231 -0.2835
19625TIP3    H180290   3.138   4.146   2.256  0.3700  0.4343  0.7089
19625TIP3    H280291   3.287   4.121   2.253  0.1752 -0.8353  1.3399
19626TIP3   OH280292   0.713   5.991   4.212 -0.0172 -0.7792  0.0474
19626TIP3    H180293   0.756   6.042   4.144  0.0759 -1.1477 -0.1760
19626TIP3    H280294   0.633   6.039   4.233  0.0290 -0.5892 -0.2161
19627TIP3   OH280295   1.765   0.890  14.038 -0.0728  0.4377  0.0053
19627TIP3    H180296   1.737   0.848  14.119 -3.4798 -0.3212 -1.4680
19627TIP3    H280297   1.770   0.818  13.975 -0.7640  1.4606 -1.2386
19628TIP3   OH280298   6.097   0.420  16.338  0.4642 -0.3282 -0.0894
19628TIP3    H180299   6.157   0.482  16.380  0.3045 -0.4638  0.3485
19628TIP3    H280300   6.148   0.340  16.328  0.4557 -0.3443 -0.0085
19629TIP3   OH280301   0.838   6.158  10.742  0.1264  0.2681 -0.7943
19629TIP3    H180302   0.821   6.070  10.709 -0.7387 -0.5162  1.6801
19629TIP3    H280303   0.756   6.206  10.726  0.5907  0.6615 -2.1227
19630TIP3   OH280304   1.012   0.918  16.077  0.0178 -0.3030 -0.2152
19630TIP3    H180305   0.955   0.952  16.009  0.8662  0.1330 -0.7105
19630TIP3    H280306   0.995   0.974  16.153 -0.8460 -0.7221 -0.0935
19631TIP3   OH280307   0.319   5.391   3.258  0.3308 -0.4975 -0.4436
19631TIP3    H180308   0.320   5.344   3.341  0.6227  1.5328  0.7555
19631TIP3    H280309   0.299   5.325   3.192 -1.9591 -1.7737  1.4650
19632TIP3   OH280310   1.886   3.749   5.685  0.1727 -0.5561  0.2347
19632TIP3    H180311   1.944   3.673   5.692  1.9244  0.7149 -0.1933
19632TIP3    H280312   1.859   3.767   5.775 -0.8464 -2.1039  0.2645
19633TIP3   OH280313   0.022   5.217  11.803 -0.1002  0.5958  0.7313
19633TIP3    H180314  -0.027   5.294  11.832 -0.3768  0.5657  0.3408
19633TIP3    H280315  -0.038   5.171  11.744 -0.4708 -0.6714  2.0734
19634TIP3   OH280316   5.955   5.834   6.490 -0.5298 -0.0576  0.2584
19634TIP3    H180317   6.018   5.872   6.429 -0.7743  1.1538  0.7277
19634TIP3    H280318   6.007   5.779   6.548 -0.2107 -0.7272 -0.6663
19635TIP3   OH280319   4.284   0.377  16.665 -0.3457  0.2152  0.2553
19635TIP3    H180320   4.278   0.307  16.730 -1.2021  2.3198  2.5244
19635TIP3    H280321   4.376   0.401  16.663 -0.0497 -0.9380 -0.5228
19636TIP3   OH280322   6.699   3.257  10.549 -0.6765 -0.2486  0.2460
19636TIP3    H180323   6.699   3.252  10.454 -2.5649 -0.0611  0.2031
19636TIP3    H280324   6.721   3.348  10.569 -1.0941 -0.0803 -0.0475
19637TIP3   OH280325   3.008   1.514  12.753 -0.7639 -0.1940  0.0725
19637TIP3    H180326   3.075   1.486  12.815 -2.2608  0.4790  2.0616
19637TIP3    H280327   3.055   1.531  12.672  1.2272 -1.2081  0.9931
19638TIP3   OH280328   0.761   1.106  12.912  0.0562  0.6996  0.3821
19638TIP3    H180329   0.721   1.098  12.825 -0.2659 -1.2993  0.6773
19638TIP3    H280330   0.855   1.095  12.896  0.3015  3.1065 -0.0291
19639TIP3   OH280331   3.547   5.261   3.021  0.3043 -0.2340 -0.1822
19639TIP3    H180332   3.617   5.196   3.026 -0.8387 -1.6531 -2.0089
19639TIP3    H280333   3.567   5.313   2.943  0.7570  1.0591  0.7932
19640TIP3   OH280334   2.925   0.437  10.908  0.3279  0.4945 -0.0148
19640TIP3    H180335   2.855   0.411  10.848 -1.6301  0.6796  2.1040
19640TIP3    H280336   2.935   0.362  10.967  0.0053  1.5203  1.3623
19641TIP3   OH280337   5.072   3.605   4.206  0.0481  0.1376 -0.4720
19641TIP3    H180338   5.001   3.545   4.229  1.3732 -1.6090 -0.8353
19641TIP3    H280339   5.151   3.564   4.243  0.6705  2.8620  1.3513
19642TIP3   OH280340   2.476   5.414   1.085  0.2860  0.2082  0.2297
19642TIP3    H180341   2.512   5.378   1.004  2.6865  0.3565  1.1692
19642TIP3    H280342   2.393   5.454   1.059  1.4003  0.9878 -2.3312
19643TIP3   OH280343   4.690   2.762   2.443  0.4710 -0.1330  0.7584
19643TIP3    H180344   4.676   2.713   2.525  1.2558 -0.6952  0.5602
19643TIP3    H280345   4.729   2.698   2.384  0.6882  0.5080  0.2115
19644TIP3   OH280346   5.787   1.435   1.028  0.1305  0.2374  0.1633
19644TIP3    H180347   5.720   1.390   0.977 -1.5341  3.2615 -0.4112
19644TIP3    H280348   5.752   1.437   1.117 -0.1556  1.0522  0.0359
19645TIP3   OH280349   1.426   2.140  17.143 -0.3279  0.3481 -0.3454
19645TIP3    H180350   1.357   2.106  17.200  2.7447 -1.7173  2.2910
19645TIP3    H280351   1.478   2.197  17.199  2.2237 -0.9936 -1.2916
19646TIP3   OH280352   5.116   2.248   5.988  0.2661  0.0515  0.2595
19646TIP3    H180353   5.034   2.257   5.940  0.4495 -0.5695 -0.1859
19646TIP3    H280354   5.177   2.212   5.923  1.2768  1.8443  0.1864
19647TIP3   OH280355   5.712   4.980   1.099  0.1138  1.1484 -0.6486
19647TIP3    H180356   5.726   4.934   1.182  0.6558  1.8284 -0.3563
19647TIP3    H280357   5.801   5.000   1.068 -0.1117  1.7127 -0.9316
19648TIP3   OH280358   4.588   0.601  15.650 -0.5897 -0.1851 -0.6585
19648TIP3    H180359   4.678   0.625  15.627 -0.5111  0.7841  0.5528
19648TIP3    H280360   4.577   0.637  15.738 -2.5138  0.6549 -1.2192
19649TIP3   OH280361   0.653   4.672  16.255 -0.1814  0.4419 -0.8519
19649TIP3    H180362   0.596   4.627  16.193  0.6902 -0.5689 -0.9306
19649TIP3    H280363   0.731   4.617  16.261 -0.9575 -0.4558  2.4697
19650TIP3   OH280364   5.471   2.567   4.135 -0.5209  0.5280 -0.0076
19650TIP3    H180365   5.495   2.544   4.046  0.8433 -1.8383  0.9301
19650TIP3    H280366   5.400   2.507   4.157 -1.5524  1.7861  0.1666
19651TIP3   OH280367   0.183   3.577  10.753  0.2823  0.4906 -0.1208
19651TIP3    H180368   0.225   3.511  10.808 -3.6078 -0.6338  1.7019
19651TIP3    H280369   0.118   3.527  10.702 -0.3596  2.4326 -1.2570
19652TIP3   OH280370   5.319   2.396  13.701  0.1246  0.4724 -0.0933
19652TIP3    H180371   5.314   2.443  13.785 -2.4583 -0.1838  0.1542
19652TIP3    H280372   5.310   2.465  13.635  2.1383  0.9889  0.1318
19653TIP3   OH280373   5.172   2.999   4.574 -0.0869  0.7884  0.4947
19653TIP3    H180374   5.120   3.079   4.567 -0.1498  0.6589 -0.6750
19653TIP3    H280375   5.251   3.016   4.523 -1.1631 -0.7001 -1.7967
19654TIP3   OH280376   1.136   2.396  11.745 -0.4432 -0.1586 -0.2996
19654TIP3    H180377   1.122   2.302  11.739 -0.4814 -0.1819  0.1671
19654TIP3    H280378   1.069   2.427  11.805  0.9067 -0.1414  1.2321
19655TIP3   OH280379   4.287   5.016  11.739  0.1767  0.3729 -0.1736
19655TIP3    H180380   4.345   5.068  11.684  1.0709  0.2212  0.6252
19655TIP3    H280381   4.327   4.929  11.742  0.1865  0.4067  0.8037
19656TIP3   OH280382   6.689   2.555  15.009 -0.3944  1.0834 -0.0413
19656TIP3    H180383   6.660   2.466  15.030  0.3537  0.7692 -0.3362
19656TIP3    H280384   6.620   2.589  14.951 -2.1836  1.7520  2.3780
19657TIP3   OH280385   0.337   4.942  13.346  0.5509  0.1298 -0.3393
19657TIP3    H180386   0.334   5.022  13.398  1.2269 -0.1522  0.1412
19657TIP3    H280387   0.422   4.946  13.301 -0.2279  0.6002 -1.7858
19658TIP3   OH280388   2.272   6.349   2.921  0.0082 -0.9281 -0.0065
19658TIP3    H180389   2.230   6.289   2.983 -0.4533  0.0448  0.6178
19658TIP3    H280390   2.365   6.347   2.947 -0.4703  0.9730  1.9849
19659TIP3   OH280391   5.367   4.258   2.830 -0.2400 -0.2357  0.2711
19659TIP3    H180392   5.336   4.286   2.916 -0.7519  0.1814 -0.0464
19659TIP3    H280393   5.340   4.167   2.823 -2.2216  0.3910 -0.3833
19660TIP3   OH280394   0.397   4.546   1.347  0.1702  0.3743  0.1075
19660TIP3    H180395   0.392   4.453   1.371 -1.7235  0.3455 -0.3126
19660TIP3    H280396   0.435   4.545   1.259  1.3751  0.0994  0.6121
19661TIP3   OH280397   3.525   3.439  14.246  0.3189 -0.5728 -0.4394
19661TIP3    H180398   3.431   3.456  14.254  0.1156 -1.1440 -1.5033
19661TIP3    H280399   3.565   3.492  14.315 -0.8655 -1.0855  0.6676
19662TIP3   OH280400   2.535   5.024   3.541 -0.3383 -0.3613  0.2239
19662TIP3    H180401   2.604   4.959   3.524 -0.7583 -0.5122 -0.9693
19662TIP3    H280402   2.582   5.107   3.547 -0.0187 -0.4889 -0.3911
19663TIP3   OH280403   4.031   1.995   3.878 -0.0054 -0.3530 -0.0223
19663TIP3    H180404   4.007   2.073   3.828  1.4158 -0.0017 -0.1534
19663TIP3    H280405   3.997   1.922   3.826  0.3491  0.0761 -0.8502
19664TIP3   OH280406   0.527   5.615   2.261 -0.1376 -0.1797 -0.4444
19664TIP3    H180407   0.509   5.522   2.245 -0.5511 -0.4737  1.6503
19664TIP3    H280408   0.613   5.616   2.303 -0.5312  0.3154  0.3543
19665TIP3   OH280409   5.568   1.903   0.936 -0.6503 -0.0606  0.1181
19665TIP3    H180410   5.566   1.922   1.029  3.6866  0.3989  0.2231
19665TIP3    H280411   5.571   1.989   0.894  1.6074 -0.2522 -0.1898
19666TIP3   OH280412   3.804   2.872  13.109  0.5085 -0.0377  0.2662
19666TIP3    H180413   3.814   2.863  13.014  1.1523  1.1259  0.2078
19666TIP3    H280414   3.739   2.942  13.119 -0.4624 -0.9841  0.6893
19667TIP3   OH280415   5.423   3.827  16.463  0.1424  0.2553 -0.4037
19667TIP3    H180416   5.443   3.881  16.387 -0.1106  0.5404 -0.2688
19667TIP3    H280417   5.366   3.881  16.517 -0.9686 -0.5197 -0.7735
19668TIP3   OH280418   2.045   4.267   3.887 -0.5618  0.4598 -0.2084
19668TIP3    H180419   2.125   4.291   3.934  0.2195  2.0305 -2.2118
19668TIP3    H280420   2.004   4.351   3.865 -1.3210 -0.2425 -1.5920
19669TIP3   OH280421   5.183   1.871  15.761  0.1326 -1.1082 -0.0189
19669TIP3    H180422   5.180   1.867  15.856  1.7473  1.4578  0.1950
19669TIP3    H280423   5.102   1.914  15.735  0.2932 -0.6130  0.3003
19670TIP3   OH280424   2.807   3.339   4.731 -0.8532 -0.2494 -0.7314
19670TIP3    H180425   2.763   3.417   4.697 -1.4334  0.5306  1.7118
19670TIP3    H280426   2.870   3.373   4.794 -0.9973 -1.7619  0.2439
19671TIP3   OH280427   5.427   4.757  14.597  0.3317 -0.0469 -0.2794
19671TIP3    H180428   5.489   4.774  14.668  0.2574 -1.1943  0.0822
19671TIP3    H280429   5.412   4.662  14.602 -2.4047  0.3797  0.4476
19672TIP3   OH280430   3.113   4.562   4.419 -0.1210 -0.2962  0.7316
19672TIP3    H180431   3.200   4.580   4.455 -0.3860 -0.2491  1.3586
19672TIP3    H280432   3.060   4.637   4.447 -0.4857 -0.5652  0.7684
19673TIP3   OH280433   0.825   3.363   6.573 -0.5484 -0.1718  0.0023
19673TIP3    H180434   0.850   3.401   6.657  0.0937  0.0635 -0.2923
19673TIP3    H280435   0.751   3.306   6.594 -2.2520  2.0765  0.2891
19674TIP3   OH280436   2.599   3.823  14.649  0.1920 -0.8489  0.4160
19674TIP3    H180437   2.614   3.889  14.581 -0.8639  0.3692  1.3225
19674TIP3    H280438   2.653   3.749  14.623  1.8248  0.5716 -0.3570
19675TIP3   OH280439   2.599   5.931   5.488  0.1371  0.4896 -0.8083
19675TIP3    H180440   2.628   5.839   5.488  0.6125  0.6341 -1.2882
19675TIP3    H280441   2.663   5.977   5.541 -0.2866  0.4910 -0.2966
19676TIP3   OH280442   6.574   0.992  14.787  0.3606 -0.0100 -0.6578
19676TIP3    H180443   6.561   1.009  14.693  1.8177 -0.0100 -0.8692
19676TIP3    H280444   6.635   0.919  14.790  0.2840 -0.0444  0.2975
19677TIP3   OH280445   1.352   4.858   0.388  0.4372  0.7873  0.1075
19677TIP3    H180446   1.282   4.827   0.330  0.2312  0.2405  0.6396
19677TIP3    H280447   1.360   4.951   0.368 -0.1092  0.7485 -0.3093
19678TIP3   OH280448   3.530   2.911   2.463  0.1086 -0.6093 -0.3661
19678TIP3    H180449   3.532   2.926   2.368  1.1418 -1.7659 -0.5469
19678TIP3    H280450   3.470   2.837   2.473 -3.2357  2.0593  0.2998
19679TIP3   OH280451   5.001   0.296   4.207 -0.5341 -0.5010 -0.3071
19679TIP3    H180452   5.022   0.371   4.152 -2.2231  0.6461  0.5656
19679TIP3    H280453   5.047   0.223   4.166  1.1347  0.9944 -1.1721
19680TIP3   OH280454   2.354   0.944   1.884 -0.5677 -0.5586 -0.1857
19680TIP3    H180455   2.441   0.972   1.915  0.1553 -0.7070 -2.0095
19680TIP3    H280456   2.356   0.849   1.891 -0.2086 -0.6248 -1.1832
19681TIP3   OH280457   4.136   0.209   5.391 -0.1964 -0.1073  0.2557
19681TIP3    H180458   4.128   0.219   5.296  2.7271  1.9490  0.1651
19681TIP3    H280459   4.170   0.120   5.403  1.3765  0.3191 -0.7970
19682TIP3   OH280460   3.604   5.039   3.730 -0.3810 -0.4158  0.3055
19682TIP3    H180461   3.641   4.973   3.790 -1.6489 -0.9376  0.5288
19682TIP3    H280462   3.523   5.067   3.773 -0.1968  0.8039 -0.1266
19683TIP3   OH280463   6.151   2.736   0.578 -0.0485  0.0491  0.5238
19683TIP3    H180464   6.115   2.736   0.489 -0.6842 -0.8983  0.7860
19683TIP3    H280465   6.232   2.788   0.570  0.6015 -1.1363 -0.8918
19684TIP3   OH280466   6.289   4.060   4.430  0.4942  0.5335 -0.3557
19684TIP3    H180467   6.282   4.025   4.519 -1.8333 -1.2112 -1.1732
19684TIP3    H280468   6.345   3.998   4.384  2.3934  1.8866  0.0618
19685TIP3   OH280469   0.433   0.637   2.323 -0.0381  0.2014 -0.1393
19685TIP3    H180470   0.442   0.652   2.229  1.5417 -1.7442 -0.3114
19685TIP3    H280471   0.523   0.628   2.355 -0.6088 -0.2475  1.3780
19686TIP3   OH280472   0.038   6.532   1.833  0.4859 -0.1400  0.1805
19686TIP3    H180473  -0.006   6.604   1.877  0.5788 -0.8863  1.5192
19686TIP3    H280474   0.106   6.504   1.895  4.5603  2.6387 -2.8265
19687TIP3   OH280475   1.179   6.712  15.815 -0.4326 -0.3491  0.1862
19687TIP3    H180476   1.249   6.687  15.876 -1.1143 -2.2161  0.2496
19687TIP3    H280477   1.225   6.735  15.734  0.2889 -1.5361  0.2290
19688TIP3   OH280478   4.188   6.059  12.070 -0.5639  0.4707  0.0420
19688TIP3    H180479   4.105   6.100  12.093  0.0988  0.7787  2.0779
19688TIP3    H280480   4.191   5.980  12.123  0.7865  0.8891  0.6346
19689TIP3   OH280481   3.851   4.369   2.780 -0.8432  0.0330  0.2395
19689TIP3    H180482   3.942   4.342   2.792 -1.3942 -1.6830  0.6478
19689TIP3    H280483   3.818   4.314   2.709 -1.4321  0.9639 -0.2215
19690TIP3   OH280484   6.639   3.664   1.868 -0.0191  0.1611 -0.3517
19690TIP3    H180485   6.672   3.577   1.848 -0.0118 -0.1002  0.7694
19690TIP3    H280486   6.550   3.649   1.899  0.5200  0.3714  1.3959
19691TIP3   OH280487   0.069   1.927  12.349 -0.0732 -0.0614  0.7853
19691TIP3    H180488   0.050   2.011  12.392 -2.1734  0.1577 -0.5049
19691TIP3    H280489   0.041   1.861  12.412 -1.4553  0.2384  0.4929
19692TIP3   OH280490   6.407   5.382   3.104 -0.1620 -0.8713  0.2023
19692TIP3    H180491   6.436   5.399   3.194  1.5134 -3.0302  0.1232
19692TIP3    H280492   6.473   5.424   3.049  0.4217 -2.0049  0.0123
19693TIP3   OH280493   2.704   1.886   0.266  0.0762  1.0952 -0.2690
19693TIP3    H180494   2.692   1.815   0.203 -1.4847  1.0550  0.0650
19693TIP3    H280495   2.788   1.925   0.242  0.6504 -0.4566 -0.8579
19694TIP3   OH280496   3.792   4.880  16.601  0.5364  0.0101 -0.1629
19694TIP3    H180497   3.836   4.800  16.572  0.7942 -0.5619  1.7032
19694TIP3    H280498   3.803   4.880  16.696 -1.2586  1.2027  0.0763
19695TIP3   OH280499   3.969   0.715   5.133 -0.0484 -0.0255 -0.1718
19695TIP3    H180500   3.906   0.777   5.098 -2.9574 -3.1785 -0.7457
19695TIP3    H280501   3.977   0.739   5.226 -2.2608  0.2882 -0.0397
19696TIP3   OH280502   1.699   4.833   1.526  0.0922  0.7136 -0.0731
19696TIP3    H180503   1.779   4.883   1.508  0.1015  0.5046 -0.6089
19696TIP3    H280504   1.653   4.830   1.443  1.0688 -1.9476 -0.5607
19697TIP3   OH280505   1.848   3.284  11.642  0.5682 -0.6741 -0.3208
19697TIP3    H180506   1.914   3.283  11.711  0.5278  1.9638 -0.1909
19697TIP3    H280507   1.766   3.303  11.688  0.3613 -0.0651 -0.9289
19698TIP3   OH280508   6.601   1.186  16.073  0.0365  0.2505  0.4176
19698TIP3    H180509   6.640   1.121  16.015  0.5088  0.9487 -0.0563
19698TIP3    H280510   6.676   1.228  16.116 -0.2803  0.2165  1.0047
19699TIP3   OH280511   3.150   2.193  16.525  0.2525 -0.1156  0.3647
19699TIP3    H180512   3.242   2.170  16.541  0.4826 -0.6238 -1.5697
19699TIP3    H280513   3.119   2.127  16.463 -1.9092 -0.8911  2.1908
19700TIP3   OH280514   4.798   4.767   4.868 -0.0639  0.0901 -0.0441
19700TIP3    H180515   4.870   4.810   4.914  0.1964 -0.2959 -0.0980
19700TIP3    H280516   4.753   4.716   4.936  0.6089 -0.8665 -0.3093
19701TIP3   OH280517   4.614   5.482  12.141 -0.4163 -0.1624 -0.1811
19701TIP3    H180518   4.557   5.414  12.176 -0.7850  0.7455  1.0003
19701TIP3    H280519   4.599   5.479  12.046 -0.6459 -1.5232 -0.1090
19702TIP3   OH280520   2.966   2.541  12.467 -0.0014  0.9470  0.4361
19702TIP3    H180521   2.928   2.524  12.381 -1.2821  0.6100  1.0604
19702TIP3    H280522   2.924   2.478  12.526  0.4017  1.5786  1.4292
19703TIP3   OH280523   1.836   1.979  11.909 -0.3735  0.4872 -0.4984
19703TIP3    H180524   1.747   1.952  11.933 -0.8624 -0.3407 -3.0707
19703TIP3    H280525   1.832   2.075  11.909 -0.7990  0.4886  0.9406
19704TIP3   OH280526   6.306   0.847  11.942 -0.2989  0.5670 -0.4364
19704TIP3    H180527   6.388   0.834  11.893  1.2597  2.2820  1.6206
19704TIP3    H280528   6.300   0.942  11.953 -1.9712  0.3744  0.4313
19705TIP3   OH280529   2.537   1.562   5.683  0.3306  0.4768  0.3556
19705TIP3    H180530   2.454   1.587   5.643  1.4255  0.8140 -1.7639
19705TIP3    H280531   2.523   1.472   5.712 -0.1604 -0.1742 -1.7932
19706TIP3   OH280532   1.174   2.658   3.238 -0.3771  0.1845 -0.5322
19706TIP3    H180533   1.114   2.670   3.312 -0.1444  1.2797 -0.5217
19706TIP3    H280534   1.166   2.738   3.187 -0.6700 -0.6357 -1.8036
19707TIP3   OH280535   0.084   4.365   3.390 -0.1909 -0.1328 -0.2726
19707TIP3    H180536   0.088   4.372   3.486  1.7831 -0.2416 -0.3194
19707TIP3    H280537   0.009   4.419   3.365  0.3237  1.3298  1.2173
19708TIP3   OH280538   5.553   3.274   4.646  0.1033 -0.4717  0.1750
19708TIP3    H180539   5.563   3.356   4.597  0.9661 -0.3837  0.4787
19708TIP3    H280540   5.643   3.242   4.656 -0.0318 -0.2481  2.1036
19709TIP3   OH280541   1.351   6.664   3.401  0.3062 -0.0446 -0.6094
19709TIP3    H180542   1.444   6.673   3.421  0.6751  0.9796 -2.6578
19709TIP3    H280543   1.312   6.630   3.482  2.2294  0.8136  0.7191
19710TIP3   OH280544   4.801   4.275   1.932 -0.1588 -0.6659 -0.6546
19710TIP3    H180545   4.784   4.359   1.890  0.5416 -0.1223  0.1118
19710TIP3    H280546   4.718   4.228   1.927 -0.9963  0.6614  0.2318
19711TIP3   OH280547   4.218   5.279   6.827  0.6354 -0.0025  0.8054
19711TIP3    H180548   4.186   5.211   6.767  1.6546 -0.0933  0.3421
19711TIP3    H280549   4.144   5.337   6.840  0.8115  0.8241 -1.7052
19712TIP3   OH280550   2.781   3.037  10.805 -0.1320  0.1118  0.5728
19712TIP3    H180551   2.727   2.965  10.838 -1.2258  1.4164  1.6921
19712TIP3    H280552   2.860   3.036  10.859 -0.3342  0.0183  0.8649
19713TIP3   OH280553   4.515   2.401   4.189  0.0211  0.1729 -0.2238
19713TIP3    H180554   4.499   2.353   4.271  1.3321 -0.5949 -0.4096
19713TIP3    H280555   4.428   2.415   4.152 -0.5888  0.5081  1.2861
19714TIP3   OH280556   3.694   0.173  16.644  0.4902 -0.2090 -0.0044
19714TIP3    H180557   3.620   0.167  16.705 -1.0650  0.6196 -1.7955
19714TIP3    H280558   3.725   0.082  16.636 -1.8192 -0.9491 -1.0455
19715TIP3   OH280559   5.416   1.668  12.307 -0.1125 -0.2477 -0.5050
19715TIP3    H180560   5.442   1.579  12.330  1.8268  0.1481 -1.0951
19715TIP3    H280561   5.324   1.660  12.282  0.0088 -2.0594 -0.4666
19716TIP3   OH280562   0.490   4.180   4.308  0.4046 -0.4245 -0.2959
19716TIP3    H180563   0.447   4.250   4.359 -0.5054  0.9586 -2.8888
19716TIP3    H280564   0.561   4.149   4.365  1.0733  2.8664  0.7636
19717TIP3   OH280565   0.076   3.532   5.229 -0.2158 -0.3011 -0.1701
19717TIP3    H180566   0.095   3.537   5.136 -1.5066  0.6466 -0.3909
19717TIP3    H280567  -0.002   3.477   5.235 -0.3799 -0.0189  0.3155
19718TIP3   OH280568   1.294   6.323  14.031  0.3830 -0.3343  0.2741
19718TIP3    H180569   1.383   6.290  14.039  1.3311  1.9824 -0.2578
19718TIP3    H280570   1.296   6.408  14.076 -1.1422  0.4453 -1.0662
19719TIP3   OH280571   1.251   6.044  16.041 -0.1258 -0.4596 -0.0263
19719TIP3    H180572   1.234   6.123  15.989 -0.9840 -0.2841  0.5006
19719TIP3    H280573   1.343   6.022  16.023  0.0713  0.5681 -0.3010
19720TIP3   OH280574   1.547   4.419  16.418  0.4034 -0.2207  0.0901
19720TIP3    H180575   1.615   4.391  16.357  1.5875 -0.8652  1.6774
19720TIP3    H280576   1.467   4.422  16.365  1.3200 -1.1781 -1.3831
19721TIP3   OH280577   5.001   5.062  15.910  0.6121  0.3455  0.0578
19721TIP3    H180578   5.010   5.052  16.005 -2.8869 -2.5434  0.1976
19721TIP3    H280579   4.975   5.153  15.897 -0.8188  0.2350  2.0439
19722TIP3   OH280580   1.648   3.251  14.109 -0.3106  0.6214 -0.2212
19722TIP3    H180581   1.590   3.318  14.073 -0.9396  0.6382  0.8257
19722TIP3    H280582   1.618   3.238  14.199  0.1483 -0.6784 -0.2475
19723TIP3   OH280583   2.061   1.503  11.524 -0.1257 -0.0271 -0.1785
19723TIP3    H180584   2.011   1.528  11.601  0.3818 -1.1174  0.5197
19723TIP3    H280585   2.150   1.490  11.557 -0.2055 -1.9366 -0.6558
19724TIP3   OH280586   1.055   3.060  15.471  0.3456  0.6412 -0.3322
19724TIP3    H180587   0.989   3.074  15.403 -0.0018  3.0101  0.4626
19724TIP3    H280588   1.036   3.126  15.537  1.1227 -1.1694  1.7689
19725TIP3   OH280589   4.781   0.269   5.197 -0.3119 -0.1218 -0.4111
19725TIP3    H180590   4.774   0.354   5.240 -0.5386  0.6795 -1.9999
19725TIP3    H280591   4.875   0.251   5.193 -0.3269 -0.6422  1.2345
19726TIP3   OH280592   5.401   4.378   5.485  0.3687 -0.4626 -0.3190
19726TIP3    H180593   5.444   4.461   5.469 -0.2950  0.0502  0.4951
19726TIP3    H280594   5.311   4.391   5.455 -0.0301 -0.5146  0.8069
19727TIP3   OH280595   1.518   2.574  14.739  0.6140  0.3893  0.1075
19727TIP3    H180596   1.500   2.504  14.676  1.4775 -0.1477  0.4569
19727TIP3    H280597   1.580   2.631  14.693  1.0366  0.1397  0.3625
19728TIP3   OH280598   4.166   6.538  16.866  0.4003  0.4218  0.5748
19728TIP3    H180599   4.087   6.505  16.824  0.5313  1.1344 -0.2625
19728TIP3    H280600   4.185   6.620  16.820  1.2497  0.5945  1.2098
19729TIP3   OH280601   2.139   2.593  13.075 -0.1779 -0.3605 -0.4194
19729TIP3    H180602   2.080   2.566  13.004 -1.1911 -0.3086  0.3984
19729TIP3    H280603   2.081   2.629  13.142  0.8083 -0.0924  0.2957
19730TIP3   OH280604   1.566   3.727   1.246 -0.1155 -0.3767 -0.0660
19730TIP3    H180605   1.512   3.737   1.168  0.0180 -0.3315 -0.1541
19730TIP3    H280606   1.656   3.741   1.215 -0.2482  2.0590  0.5083
19731TIP3   OH280607   4.065   4.490   4.661 -0.1325  0.6030 -0.4347
19731TIP3    H180608   4.130   4.423   4.641 -1.9030 -1.1015 -0.6134
19731TIP3    H280609   3.990   4.441   4.695 -2.0369  2.3431 -2.0340
19732TIP3   OH280610   2.699   1.098  13.888 -0.3221  0.0893 -0.0425
19732TIP3    H180611   2.623   1.058  13.931 -1.9308  0.6440 -2.2522
19732TIP3    H280612   2.771   1.085  13.950 -2.0989 -0.8809  1.9077
19733TIP3   OH280613   4.568   2.678  15.324 -0.3885 -0.1243  0.6894
19733TIP3    H180614   4.543   2.586  15.334 -2.5821  0.4126  0.5910
19733TIP3    H280615   4.510   2.725  15.385  1.6090  1.0726  1.7064
19734TIP3   OH280616   4.238   2.670   0.425 -0.3670 -0.1852  0.2870
19734TIP3    H180617   4.173   2.730   0.388 -0.4052 -0.1439  0.4210
19734TIP3    H280618   4.279   2.630   0.349 -0.2388  0.1232  0.1928
19735TIP3   OH280619   4.164   3.312   5.662 -0.0559  0.2501 -0.1741
19735TIP3    H180620   4.150   3.291   5.569  0.4422 -1.2942  0.0847
19735TIP3    H280621   4.077   3.316   5.699 -0.1668 -2.2951 -0.0594
19736TIP3   OH280622   5.935   1.045   0.199  0.0368  0.1587 -0.5895
19736TIP3    H180623   5.861   1.086   0.244  1.0851  1.5114 -0.0612
19736TIP3    H280624   5.964   0.976   0.258 -0.3740  0.0622 -0.4957
19737TIP3   OH280625   2.340   2.008  16.023 -0.0328 -0.4100 -0.1802
19737TIP3    H180626   2.381   2.065  16.088  0.3266 -0.2381 -0.5565
19737TIP3    H280627   2.389   2.025  15.943 -1.0854  0.0803 -0.7230
19738TIP3   OH280628   0.156   1.986   5.286 -0.4570  0.3416 -0.2154
19738TIP3    H180629   0.153   2.079   5.308 -2.7401 -0.1132  1.6028
19738TIP3    H280630   0.220   1.949   5.346  0.6946  0.7501 -1.1572
19739TIP3   OH280631   3.460   0.517   1.082  0.2616  0.3100  0.1826
19739TIP3    H180632   3.405   0.592   1.102  1.4761  1.0131  0.9360
19739TIP3    H280633   3.501   0.538   0.998 -0.1732  0.0311 -0.1044
19740TIP3   OH280634   2.094   0.417  13.208  0.5177 -0.1381 -0.0994
19740TIP3    H180635   2.189   0.422  13.203  0.3888  0.7922 -2.1003
19740TIP3    H280636   2.063   0.475  13.139 -1.5120 -0.3862  0.5613
19741TIP3   OH280637   4.083   4.034  13.279 -0.1720  0.5072 -0.0371
19741TIP3    H180638   4.053   3.993  13.197 -1.6065  2.1467 -0.3644
19741TIP3    H280639   4.123   3.962  13.327  1.3839 -0.3425 -2.4877
19742TIP3   OH280640   0.610   3.616   2.243  0.0148 -0.0539 -0.3135
19742TIP3    H180641   0.632   3.645   2.332 -1.2792  3.7918 -1.1665
19742TIP3    H280642   0.525   3.572   2.254 -1.7992  3.3392 -0.0433
19743TIP3   OH280643   5.847   5.993   3.679 -0.3114  0.0633  0.1943
19743TIP3    H180644   5.753   5.997   3.701 -0.4646  1.4829 -0.6902
19743TIP3    H280645   5.849   5.970   3.586  0.2048  1.0698 -0.0394
19744TIP3   OH280646   3.072   0.854   5.542  0.0411 -0.6789 -0.6603
19744TIP3    H180647   3.106   0.900   5.466 -1.8603  0.1546 -1.0412
19744TIP3    H280648   3.145   0.800   5.573  2.0521  1.9515 -0.6936
19745TIP3   OH280649   0.572   1.756  15.680  0.1563  0.2237  0.0681
19745TIP3    H180650   0.529   1.687  15.631 -0.2051 -0.0714  0.7948
19745TIP3    H280651   0.661   1.723  15.697  0.5365  0.6470 -1.0408
19746TIP3   OH280652   2.294   1.315   4.883 -0.2786 -0.1343  0.1903
19746TIP3    H180653   2.278   1.242   4.943 -0.7186 -0.6253 -0.5130
19746TIP3    H280654   2.256   1.391   4.928 -0.1418 -0.4006  0.7658
19747TIP3   OH280655   1.317   2.888  10.867 -0.4002  0.4599  0.2999
19747TIP3    H180656   1.373   2.960  10.839 -0.6107  0.8385  0.8271
19747TIP3    H280657   1.229   2.926  10.869 -0.3980  0.4211  1.3793
19748TIP3   OH280658   4.654   1.813  16.456 -0.0555 -0.0859 -0.3042
19748TIP3    H180659   4.606   1.895  16.467  1.3670  0.6111  0.8221
19748TIP3    H280660   4.713   1.830  16.382 -1.3978 -0.8845 -1.5784
19749TIP3   OH280661   1.309   3.319   4.666  0.0125  0.8450  0.3285
19749TIP3    H180662   1.385   3.310   4.609  0.6777 -1.0259  1.4655
19749TIP3    H280663   1.337   3.379   4.734 -1.1795  4.0458 -1.9101
19750TIP3   OH280664   2.984   6.157   1.453  0.3402  0.3505  0.0175
19750TIP3    H180665   2.923   6.139   1.381 -0.7731  1.6830  0.6014
19750TIP3    H280666   3.035   6.077   1.462 -1.8980 -1.0951  0.0550
19751TIP3   OH280667   0.984   4.200  10.753  0.2156 -0.1021  0.4254
19751TIP3    H180668   0.929   4.264  10.798  2.0342  1.3481  0.6024
19751TIP3    H280669   0.980   4.225  10.661  0.5578 -0.0162  0.4344
19752TIP3   OH280670   4.848   1.030  11.851  0.2201 -0.8446 -0.2546
19752TIP3    H180671   4.778   1.094  11.859  0.4565 -0.2179 -2.7351
19752TIP3    H280672   4.907   1.050  11.924  1.0174  2.7382 -1.7677
19753TIP3   OH280673   4.325   3.920  13.841  0.0699  0.2446 -0.4960
19753TIP3    H180674   4.267   3.961  13.906 -1.2592  1.0201 -2.1298
19753TIP3    H280675   4.412   3.954  13.862 -0.5693  1.6298 -0.0395
19754TIP3   OH280676   0.957   6.672  12.646 -0.1149  0.4602  0.6079
19754TIP3    H180677   1.032   6.640  12.598 -1.6534  0.4483 -1.8623
19754TIP3    H280678   0.947   6.610  12.719  0.7066 -1.0242 -0.5171
19755TIP3   OH280679   1.760   0.681  16.328  0.0082  0.1544  0.1056
19755TIP3    H180680   1.744   0.613  16.394  1.6974 -1.3701 -0.9911
19755TIP3    H280681   1.749   0.636  16.245  0.6307  1.3635 -0.6391
19756TIP3   OH280682   1.169   1.485  11.380  0.0662  0.5890 -0.7716
19756TIP3    H180683   1.132   1.499  11.293 -0.6876  0.9285 -0.4008
19756TIP3    H280684   1.134   1.401  11.408 -0.1764  0.7607 -0.5532
19757TIP3   OH280685   6.759   0.940   0.929 -0.1905 -0.1072  0.0175
19757TIP3    H180686   6.850   0.955   0.900 -0.3258  0.6979 -0.0102
19757TIP3    H280687   6.712   1.019   0.901 -1.1394 -1.0052 -0.9543
19758TIP3   OH280688   3.470   6.316  14.039  0.0916  0.4454  0.5258
19758TIP3    H180689   3.557   6.328  14.077  0.4544 -0.8124  0.1268
19758TIP3    H280690   3.456   6.221  14.041 -0.1928  0.4122 -1.7484
19759TIP3   OH280691   3.018   4.014   6.876  0.1853  0.1229 -0.2757
19759TIP3    H180692   3.100   4.030   6.829 -1.1358 -0.7277 -3.0532
19759TIP3    H280693   2.998   3.922   6.856 -1.3457  0.2845  0.4909
19760TIP3   OH280694   6.160   1.699  13.566 -0.3856  0.0079 -0.3604
19760TIP3    H180695   6.101   1.624  13.565  1.3215 -1.3552 -2.1449
19760TIP3    H280696   6.105   1.774  13.544 -1.5457 -1.1615 -1.4688
19761TIP3   OH280697   2.436   5.532  16.168  0.5682 -0.8243  0.5840
19761TIP3    H180698   2.516   5.573  16.202 -0.3796 -0.4831  2.4533
19761TIP3    H280699   2.365   5.576  16.215 -0.7810 -0.6390 -1.5592
19762TIP3   OH280700   5.456   2.524  15.582  0.3126 -0.9800 -0.2130
19762TIP3    H180701   5.435   2.543  15.490  0.6314 -0.7354 -0.2356
19762TIP3    H280702   5.479   2.609  15.619 -0.3616 -0.9886  0.2396
19763TIP3   OH280703   5.681   6.455   5.953 -0.1810 -0.0672  0.4868
19763TIP3    H180704   5.624   6.379   5.936  0.9580 -0.8084 -0.0935
19763TIP3    H280705   5.765   6.416   5.979  0.2435  1.0048  0.7251
19764TIP3   OH280706   2.651   3.036  12.559  0.7216 -0.0049  0.8716
19764TIP3    H180707   2.638   2.962  12.618 -0.7247 -1.6125 -1.3638
19764TIP3    H280708   2.730   3.014  12.509  0.3597  0.0091  0.2868
19765TIP3   OH280709   4.389   1.376  15.275  0.4053  0.1864  0.6958
19765TIP3    H180710   4.295   1.387  15.261  0.3554 -0.9975  0.0369
19765TIP3    H280711   4.396   1.304  15.338  0.8710  0.2147  0.6824
19766TIP3   OH280712   6.669   3.543   0.563 -0.2392 -0.5977 -0.0893
19766TIP3    H180713   6.733   3.487   0.519 -1.0610 -0.6454 -1.2755
19766TIP3    H280714   6.640   3.493   0.639  0.0065 -1.2248 -0.4068
19767TIP3   OH280715   0.578   5.617  13.275  0.6950  0.1857 -0.3446
19767TIP3    H180716   0.487   5.625  13.304  0.7682 -2.2991  0.6490
19767TIP3    H280717   0.628   5.672  13.337  0.1401 -0.2813  0.5225
19768TIP3   OH280718   2.397   5.788  11.851  0.1295 -0.9822  0.6470
19768TIP3    H180719   2.385   5.729  11.777  0.3494  0.2829 -0.3990
19768TIP3    H280720   2.491   5.794  11.862  0.1515  0.4513 -0.2807
19769TIP3   OH280721   2.833   2.726  16.042  0.7414 -0.5942 -0.4844
19769TIP3    H180722   2.769   2.794  16.020 -0.2575 -0.8887  1.3578
19769TIP3    H280723   2.892   2.768  16.105  0.4778 -1.2370  0.2054
19770TIP3   OH280724   2.322   1.445  10.629 -0.0172  0.0400 -0.1502
19770TIP3    H180725   2.311   1.533  10.594  0.1401 -0.0484 -0.4252
19770TIP3    H280726   2.396   1.409  10.580  0.3551 -0.0021  0.4394
19771TIP3   OH280727   5.425   0.158  11.814  1.0019 -0.2978 -0.3943
19771TIP3    H180728   5.408   0.169  11.908  0.2360 -1.4514 -0.3934
19771TIP3    H280729   5.480   0.234  11.791  1.2544 -0.0416  0.9911
19772TIP3   OH280730   0.908   4.926  15.083  0.5716 -0.3748 -0.4739
19772TIP3    H180731   0.988   4.968  15.116  0.3427 -0.8159  0.6283
19772TIP3    H280732   0.858   4.903  15.161 -0.5752 -0.2442 -1.1558
19773TIP3   OH280733   0.138   3.480  17.037 -0.2830  0.1899 -0.1404
19773TIP3    H180734   0.221   3.528  17.039 -0.1405 -0.0707  0.3294
19773TIP3    H280735   0.111   3.476  17.129  0.4775 -1.9532  0.0216
19774TIP3   OH280736   4.265   1.498   2.967  0.2017 -0.4999 -0.1972
19774TIP3    H180737   4.195   1.553   2.930 -0.9867 -1.2952  0.8319
19774TIP3    H280738   4.343   1.553   2.963 -0.3491  0.1963 -1.9202
19775TIP3   OH280739   1.107   0.690   1.465  0.1690  0.4611  0.0121
19775TIP3    H180740   1.096   0.715   1.557  2.4717 -0.2681  0.5129
19775TIP3    H280741   1.184   0.739   1.436 -0.0814  0.0795 -1.3151
19776TIP3   OH280742   3.603   4.361   2.372  0.1994  0.1188 -0.1088
19776TIP3    H180743   3.652   4.333   2.296  0.4098 -0.7063  0.3155
19776TIP3    H280744   3.667   4.405   2.428 -0.1421  1.5133 -0.7983
19777TIP3   OH280745   4.044   6.655   3.041  0.1187 -0.4282  0.4674
19777TIP3    H180746   4.004   6.741   3.027 -1.0845 -1.1556 -0.6894
19777TIP3    H280747   4.138   6.673   3.047  0.0229  0.7778 -1.3518
19778TIP3   OH280748   4.342   2.664  14.524  0.3490  0.6776  0.1724
19778TIP3    H180749   4.276   2.622  14.469 -0.8547  1.7552  0.7709
19778TIP3    H280750   4.363   2.598  14.590 -0.2692  0.3976  0.0985
19779TIP3   OH280751   4.433   2.592   4.825  0.1131  0.3591 -0.1580
19779TIP3    H180752   4.460   2.656   4.891 -1.3904  0.2670  0.5715
19779TIP3    H280753   4.339   2.583   4.838  0.4644 -2.7946  0.4434
19780TIP3   OH280754   0.075   6.051  15.949 -0.4381 -0.1261 -0.2909
19780TIP3    H180755   0.005   6.063  15.885 -1.5073  0.5159  1.0030
19780TIP3    H280756   0.121   5.973  15.919 -1.4902 -0.3588 -1.3352
19781TIP3   OH280757   4.547   0.639  14.712 -0.5049  0.8443 -0.4638
19781TIP3    H180758   4.488   0.703  14.751 -1.8444 -1.0447  0.6984
19781TIP3    H280759   4.505   0.613  14.630 -0.6348  0.4768 -0.2825
19782TIP3   OH280760   2.323   5.277   3.358  0.1047  0.0598 -0.5193
19782TIP3    H180761   2.401   5.315   3.318 -0.2923  0.4096 -0.9676
19782TIP3    H280762   2.294   5.343   3.421  0.6186 -0.4081  0.2117
19783TIP3   OH280763   0.626   2.102  15.713 -0.1770  0.2182 -0.2980
19783TIP3    H180764   0.615   2.154  15.792 -0.3746  1.0493 -0.8682
19783TIP3    H280765   0.616   2.011  15.742  1.7992  0.3903  0.9987
19784TIP3   OH280766   6.085   0.216   3.813 -0.0231  0.0169  0.3145
19784TIP3    H180767   6.112   0.207   3.722 -1.8574 -2.8131 -0.0049
19784TIP3    H280768   6.165   0.196   3.863  0.3222 -1.1608 -0.6680
19785TIP3   OH280769   5.046   6.712   5.381 -0.2208  0.2222  0.0371
19785TIP3    H180770   4.983   6.672   5.441 -1.0779 -0.3524 -1.2162
19785TIP3    H280771   5.026   6.673   5.296 -0.3981  2.5401 -1.0364
19786TIP3   OH280772   3.366   3.983   2.636 -0.1145 -0.0696  0.1055
19786TIP3    H180773   3.370   4.070   2.596  0.1800  0.9448  2.2750
19786TIP3    H280774   3.273   3.968   2.650 -0.2355 -0.5227 -1.1360
19787TIP3   OH280775   3.516   3.097  12.210 -0.2395  0.2018  0.0028
19787TIP3    H180776   3.499   3.124  12.300 -0.3766 -2.2817  0.7443
19787TIP3    H280777   3.550   3.008  12.218 -0.2298 -0.0277 -2.4145
19788TIP3   OH280778   0.724   0.491  16.836  0.2545  1.1448  0.4299
19788TIP3    H180779   0.780   0.420  16.868  0.4476  1.5188  0.9247
19788TIP3    H280780   0.784   0.564  16.820  0.1085  1.0776 -0.4401
19789TIP3   OH280781   2.568   6.101  16.180  0.0268  0.1794 -0.7027
19789TIP3    H180782   2.612   6.170  16.131 -2.2458  0.5507 -2.3226
19789TIP3    H280783   2.480   6.097  16.142 -1.0759 -1.0995  1.8464
19790TIP3   OH280784   1.104   0.077   2.452 -0.1756 -0.2195 -0.3987
19790TIP3    H180785   1.062   0.127   2.522 -0.7078 -1.3400  0.0991
19790TIP3    H280786   1.063   0.110   2.372 -0.5720  0.0929 -0.0723
19791TIP3   OH280787   3.257   2.864  15.344 -0.1515  0.1791  0.6083
19791TIP3    H180788   3.198   2.791  15.324  0.0735  0.4230 -0.9331
19791TIP3    H280789   3.344   2.824  15.350 -0.3499 -0.0588  2.1531
19792TIP3   OH280790   3.832   3.989   6.614  0.4940  0.0644  0.5138
19792TIP3    H180791   3.869   3.919   6.667 -0.5879  0.2435  1.5180
19792TIP3    H280792   3.764   3.946   6.561  0.1645  0.2581  0.7762
19793TIP3   OH280793   5.287   5.651   2.331  0.3915  0.0639  0.2245
19793TIP3    H180794   5.260   5.562   2.353 -0.4377  0.0791 -0.6912
19793TIP3    H280795   5.295   5.695   2.415  1.4644 -1.0529  0.7275
19794TIP3   OH280796   4.399   5.275  14.873 -0.2051 -0.4176  0.7661
19794TIP3    H180797   4.399   5.194  14.924  0.1108  0.0255  1.4626
19794TIP3    H280798   4.320   5.269  14.819 -1.5601 -0.0194  2.6833
19795TIP3   OH280799   5.071   2.671   2.261  0.4123  0.0511  1.0819
19795TIP3    H180800   4.994   2.648   2.313  0.0410  2.9447  1.8943
19795TIP3    H280801   5.096   2.589   2.218 -3.0361 -1.0172  0.9078
19796TIP3   OH280802   3.898   0.010   3.971 -0.7522 -0.5289  0.1678
19796TIP3    H180803   3.834  -0.045   4.016 -3.1859  0.5243 -1.8762
19796TIP3    H280804   3.956  -0.052   3.926 -2.7779 -1.4728 -1.2034
19797TIP3   OH280805   4.674   0.902  14.665  0.1614  0.1432  0.3575
19797TIP3    H180806   4.643   0.812  14.654  2.3916 -0.8017  1.3840
19797TIP3    H280807   4.601   0.949  14.705 -0.1609 -1.8458  2.1689
19798TIP3   OH280808   6.075   6.254  16.432  0.1213  0.0762  0.4388
19798TIP3    H180809   6.161   6.270  16.392  0.1380 -0.4824  0.2464
19798TIP3    H280810   6.021   6.222  16.361 -0.6886  1.8887  0.2289
19799TIP3   OH280811   5.766   0.561  11.565 -0.4380  0.1318 -0.0878
19799TIP3    H180812   5.802   0.524  11.484  2.3525 -0.7082  1.4534
19799TIP3    H280813   5.748   0.485  11.620  0.5010  0.8207  1.1912
19800TIP3   OH280814   2.784   0.789   4.131 -0.2455  0.6807 -0.4185
19800TIP3    H180815   2.861   0.830   4.171 -0.6734  0.3504  0.7713
19800TIP3    H280816   2.820   0.714   4.083  0.0518 -0.3157  1.3044
19801TIP3   OH280817   5.306   2.896  16.012 -0.0943  0.3694  0.1626
19801TIP3    H180818   5.402   2.899  16.006  0.0562 -0.6308  1.8866
19801TIP3    H280819   5.278   2.986  15.994  1.3021  1.1275  1.6550
19802TIP3   OH280820   3.887   3.224  17.196 -0.8747 -0.2587 -0.0943
19802TIP3    H180821   3.921   3.296  17.248 -2.3214  0.1981  0.2507
19802TIP3    H280822   3.833   3.266  17.129 -0.1411 -0.9145 -1.1112
19803TIP3   OH280823   2.454   6.701   4.315 -0.3774 -0.1100  0.1183
19803TIP3    H180824   2.460   6.754   4.235 -0.5646 -0.9827 -0.4786
19803TIP3    H280825   2.398   6.752   4.373 -0.3515  0.4711 -0.3592
19804TIP3   OH280826   2.811   1.634   0.067  0.1928 -0.3394  0.0329
19804TIP3    H180827   2.798   1.579  -0.011 -1.6083  0.0172  0.0582
19804TIP3    H280828   2.791   1.576   0.140  2.5924 -0.8816  0.2920
19805TIP3   OH280829   0.046   5.347  11.116 -0.6156 -0.0780 -0.3963
19805TIP3    H180830   0.052   5.297  11.035 -0.5745 -0.8184  0.0521
19805TIP3    H280831  -0.022   5.413  11.099  0.0888  0.3969 -1.3479
19806TIP3   OH280832   6.438   6.302   1.741 -0.0081  0.0157 -0.1694
19806TIP3    H180833   6.457   6.211   1.721 -1.9854 -0.3077 -0.7100
19806TIP3    H280834   6.516   6.350   1.713  0.5892 -1.3866 -0.9421
19807TIP3   OH280835   5.833   2.691   1.375 -0.7328 -0.1252 -0.1018
19807TIP3    H180836   5.906   2.749   1.353 -1.0624  0.0798 -0.6863
19807TIP3    H280837   5.840   2.678   1.469 -1.2897  1.7490  0.2295
19808TIP3   OH280838   3.149   5.484   6.584 -0.3563 -0.0795 -0.1655
19808TIP3    H180839   3.243   5.479   6.599 -0.3391 -1.6149 -0.7225
19808TIP3    H280840   3.113   5.511   6.668  0.8295  3.4520 -0.7124
19809TIP3   OH280841   2.663   6.558  15.801  0.3585 -0.2840 -0.8287
19809TIP3    H180842   2.742   6.515  15.770 -0.4727 -1.6491 -1.0845
19809TIP3    H280843   2.593   6.494  15.786 -0.5823  0.3788  0.6475
19810TIP3   OH280844   5.825   6.267  15.540 -0.8315  0.4228  0.1997
19810TIP3    H180845   5.900   6.288  15.485 -2.0105  2.4275 -0.7103
19810TIP3    H280846   5.862   6.250  15.626  0.7186  0.8973 -0.3624
19811TIP3   OH280847   6.718   6.498  16.077  0.3689 -0.4799 -0.4462
19811TIP3    H180848   6.732   6.557  16.003 -1.5774 -0.1993 -0.6131
19811TIP3    H280849   6.640   6.448  16.054 -0.3629 -0.2736  1.4731
19812TIP3   OH280850   3.210   5.331  16.847 -0.5860  0.0470 -0.2238
19812TIP3    H180851   3.252   5.313  16.763 -1.2167 -2.6192 -0.0327
19812TIP3    H280852   3.123   5.294  16.839 -1.2523  1.3024  1.0159
19813TIP3   OH280853   1.478   5.572  12.642  0.1222 -0.4567  0.0829
19813TIP3    H180854   1.471   5.620  12.560  0.5045 -0.4374  0.0590
19813TIP3    H280855   1.462   5.637  12.710  3.2149  0.3079  0.1626
19814TIP3   OH280856   4.467   0.028  14.488 -0.3619  0.2159  0.1777
19814TIP3    H180857   4.528   0.010  14.560  0.5901 -2.1219 -1.1604
19814TIP3    H280858   4.519   0.078  14.425  0.3060 -1.9738 -1.0677
19815TIP3   OH280859   3.874   1.487   6.368 -0.1033 -0.7608  0.7900
19815TIP3    H180860   3.803   1.484   6.433 -0.5919  0.0392  0.3062
19815TIP3    H280861   3.914   1.573   6.381  0.3422 -0.9415  0.6003
19816TIP3   OH280862   1.763   1.466   2.771  0.0875 -0.4369 -0.1370
19816TIP3    H180863   1.810   1.384   2.757  0.4935 -0.4744  1.3143
19816TIP3    H280864   1.826   1.534   2.749  0.2341 -0.5072  0.0579
19817TIP3   OH280865   2.209   2.218  13.250 -0.2378  0.7036 -0.0540
19817TIP3    H180866   2.171   2.163  13.182 -0.0396 -0.0227  0.4215
19817TIP3    H280867   2.269   2.276  13.203  0.2033 -0.0664 -0.4509
19818TIP3   OH280868   6.576   2.127   5.495  0.1130  0.2908  0.1923
19818TIP3    H180869   6.600   2.215   5.466 -0.7077  1.0343  1.7242
19818TIP3    H280870   6.636   2.108   5.566 -0.6909  0.2376  0.8675
19819TIP3   OH280871   4.363   6.151   3.645 -0.5065  0.7652 -0.3720
19819TIP3    H180872   4.448   6.110   3.630 -0.4763  0.9137 -0.6135
19819TIP3    H280873   4.378   6.244   3.628 -0.1064  1.1773  1.9992
19820TIP3   OH280874   0.572   6.653  14.298  0.0245 -0.5345  0.7320
19820TIP3    H180875   0.643   6.601  14.261 -0.7648 -2.2868  1.6264
19820TIP3    H280876   0.615   6.712  14.360  0.8759 -0.4888  0.1019
19821TIP3   OH280877   0.341   2.670  11.230  0.0795 -0.1806  0.2750
19821TIP3    H180878   0.323   2.580  11.256 -0.7526 -0.0212  0.2537
19821TIP3    H280879   0.351   2.666  11.135 -0.3732 -0.1775  0.2287
19822TIP3   OH280880   0.134   3.863   5.406  0.3005 -0.0976 -0.8729
19822TIP3    H180881   0.095   3.946   5.433 -1.0179 -0.3146 -2.0380
19822TIP3    H280882   0.149   3.816   5.488  0.8693  1.1952 -0.2180
19823TIP3   OH280883   4.157   2.597   4.742 -0.5475  0.6545 -0.0493
19823TIP3    H180884   4.147   2.614   4.648 -1.1676  2.0051  0.2511
19823TIP3    H280885   4.178   2.504   4.747  0.3123  0.7392 -1.5842
19824TIP3   OH280886   4.424   4.701  12.732 -0.0811  0.3206 -0.0517
19824TIP3    H180887   4.513   4.721  12.760 -0.5268 -0.0279  1.7153
19824TIP3    H280888   4.369   4.734  12.803 -1.4234  1.1897 -1.4473
19825TIP3   OH280889   0.085   2.851  11.453 -0.2114 -0.5956  0.3192
19825TIP3    H180890   0.065   2.797  11.529  0.0564  0.0001  0.8160
19825TIP3    H280891   0.180   2.867  11.458 -0.4379  0.6835  0.6857
19826TIP3   OH280892   5.062   1.433   1.735 -0.0266  0.5537 -0.6153
19826TIP3    H180893   5.156   1.418   1.724 -0.0722  1.2656 -2.1216
19826TIP3    H280894   5.022   1.388   1.661 -0.9516 -0.4107  0.4503
19827TIP3   OH280895   4.821   3.483   5.439  0.4669  0.4286 -0.1761
19827TIP3    H180896   4.852   3.409   5.386  1.2340  0.3912  0.3126
19827TIP3    H280897   4.847   3.460   5.528 -0.5402  0.6412  0.1731
19828TIP3   OH280898   1.902   5.534   4.186  0.9057 -0.0812  0.2256
19828TIP3    H180899   1.851   5.464   4.145  0.5061  0.1215  0.3752
19828TIP3    H280900   1.840   5.606   4.198  1.8717  1.2288 -2.1848
19829TIP3   OH280901   2.822   1.035  14.794  0.2066  0.6259  0.7760
19829TIP3    H180902   2.824   0.943  14.820  0.7367  0.4838  0.2574
19829TIP3    H280903   2.734   1.049  14.760 -0.1881  0.5699  1.7708
19830TIP3   OH280904   0.991   4.171  12.024  0.1248 -0.0055 -0.7246
19830TIP3    H180905   1.084   4.159  12.044  0.7783  2.1699 -2.3034
19830TIP3    H280906   0.976   4.119  11.946  0.5782  1.4198 -1.7797
19831TIP3   OH280907   0.801   1.179   6.192 -0.1933 -0.0156  0.0393
19831TIP3    H180908   0.791   1.084   6.187  0.8590 -0.0332 -3.3080
19831TIP3    H280909   0.712   1.213   6.184 -0.3856 -0.7007 -0.8670
19832TIP3   OH280910   3.039   1.394   1.298 -0.5551 -0.0713  0.6882
19832TIP3    H180911   3.082   1.449   1.233  0.2871 -2.0346 -0.4821
19832TIP3    H280912   2.956   1.439   1.318 -0.2638  1.1627 -0.8282
19833TIP3   OH280913   1.319   0.114   3.960  0.2816  0.4344 -0.5324
19833TIP3    H180914   1.355   0.120   3.871  1.8371 -0.1297  0.0336
19833TIP3    H280915   1.362   0.187   4.006  1.3066 -0.7128  0.3522
19834TIP3   OH280916   5.134   1.887   2.796  0.5033  0.1857 -0.1776
19834TIP3    H180917   5.215   1.839   2.814  2.4775  3.3280 -0.3486
19834TIP3    H280918   5.121   1.878   2.702  0.5472 -0.4803 -0.1224
19835TIP3   OH280919   2.935   2.927   0.002  0.8881 -0.3594  0.6715
19835TIP3    H180920   2.947   2.832   0.008  1.5476 -0.5116 -2.3526
19835TIP3    H280921   2.966   2.949  -0.086 -0.5440  2.4698  0.8464
19836TIP3   OH280922   3.237   2.332   5.586 -0.5863 -0.0682  0.0521
19836TIP3    H180923   3.269   2.244   5.602 -0.6661  0.0865  1.1391
19836TIP3    H280924   3.148   2.320   5.552 -0.5630 -0.4129  0.1165
19837TIP3   OH280925   2.882   3.894   5.692 -0.4127 -0.4000  0.3900
19837TIP3    H180926   2.793   3.929   5.686 -0.5443 -0.7383  0.3624
19837TIP3    H280927   2.937   3.972   5.702 -0.4958 -0.0144 -1.8518
19838TIP3   OH280928   2.697   3.053   4.069  0.5934 -0.3740 -0.0188
19838TIP3    H180929   2.766   3.105   4.027  1.6796 -1.4889  0.3450
19838TIP3    H280930   2.684   3.095   4.155  0.2289  0.3278 -0.4109
19839TIP3   OH280931   4.632   6.043   3.163  0.0099 -0.2461  0.5074
19839TIP3    H180932   4.718   6.049   3.205  0.2523  0.7614 -0.1097
19839TIP3    H280933   4.632   5.959   3.118  0.6406 -0.2922  0.5933
19840TIP3   OH280934   3.917   5.459  14.707  0.4774 -0.5275  0.2419
19840TIP3    H180935   3.862   5.531  14.740 -0.5862 -0.6792 -1.1270
19840TIP3    H280936   3.998   5.502  14.678  0.0739  0.0615 -0.0417
19841TIP3   OH280937   5.111   0.710  13.414 -0.1948  0.2826  0.1267
19841TIP3    H180938   5.048   0.724  13.486  1.6484  1.7046  1.5151
19841TIP3    H280939   5.090   0.777  13.350 -0.6019  0.2455  0.2202
19842TIP3   OH280940   3.145   3.678  15.404  0.3074  0.3621  0.2064
19842TIP3    H180941   3.049   3.680  15.403  0.2748 -1.0111 -1.0034
19842TIP3    H280942   3.170   3.766  15.433 -1.3159  1.1654 -0.7078
19843TIP3   OH280943   0.472   3.490  16.353  0.1391 -0.2644  0.3959
19843TIP3    H180944   0.436   3.478  16.441 -0.6590  0.9551  0.2508
19843TIP3    H280945   0.558   3.528  16.367 -0.0359  0.0399  0.6491
19844TIP3   OH280946   2.855   1.337  11.547 -0.2211  0.4959 -0.1158
19844TIP3    H180947   2.949   1.337  11.565 -0.2131  0.5221 -0.1558
19844TIP3    H280948   2.831   1.244  11.541  0.1291  0.4890 -1.7714
19845TIP3   OH280949   2.694   4.879  11.331 -0.2284 -0.0808 -0.2474
19845TIP3    H180950   2.713   4.873  11.425 -2.7249 -4.3172  0.0872
19845TIP3    H280951   2.616   4.934  11.326  0.3691  0.8087  0.0567
19846TIP3   OH280952   3.574   2.531   0.286 -0.3230  0.0711 -0.2461
19846TIP3    H180953   3.514   2.542   0.360 -3.6020  0.1517 -2.8301
19846TIP3    H280954   3.552   2.446   0.249  0.1954  0.6925 -2.0528
19847TIP3   OH280955   4.273   5.831  16.041 -0.1236  0.4118 -0.9026
19847TIP3    H180956   4.197   5.837  16.099  1.0970 -0.6185  0.8008
19847TIP3    H280957   4.262   5.748  15.994 -0.1629  0.3732 -0.8250
19848TIP3   OH280958   6.593   3.229   0.092 -0.1755  0.5383 -0.1001
19848TIP3    H180959   6.619   3.277   0.171 -1.2550  0.1489  0.5017
19848TIP3    H280960   6.509   3.190   0.115 -1.0442  1.3485 -1.8382
19849TIP3   OH280961   5.716   3.281  13.175 -0.2444 -0.5863  0.3565
19849TIP3    H180962   5.737   3.370  13.204  0.8311 -0.6212 -0.2865
19849TIP3    H280963   5.767   3.270  13.094 -0.8987 -1.5432  0.0768
19850TIP3   OH280964   1.671   2.900  13.744  0.3262  0.8937  0.2852
19850TIP3    H180965   1.724   2.873  13.819  3.4331  0.5255 -1.9473
19850TIP3    H280966   1.639   2.818  13.706 -0.3646  1.0158  0.6093
19851TIP3   OH280967   3.584   5.503   4.340 -0.0081 -0.3208  0.0425
19851TIP3    H180968   3.500   5.548   4.329  0.6159  0.5894 -1.2128
19851TIP3    H280969   3.570   5.417   4.300 -0.0677  0.1932 -1.0859
19852TIP3   OH280970   2.050   0.172  13.270  0.4270  0.0477 -0.0660
19852TIP3    H180971   2.060   0.143  13.179  0.5734 -0.3016  0.0603
19852TIP3    H280972   2.036   0.266  13.263 -0.3803 -0.1036 -0.5014
19853TIP3   OH280973   4.089   4.188   0.098  0.0088  0.1685 -0.2476
19853TIP3    H180974   4.063   4.155   0.184 -1.3338 -1.9817 -1.4267
19853TIP3    H280975   4.046   4.273   0.090 -1.0396 -0.2701  0.6158
19854TIP3   OH280976   0.811   2.600   3.769 -0.2506  0.5527  0.7380
19854TIP3    H180977   0.869   2.524   3.757 -1.4018 -0.0755 -1.1834
19854TIP3    H280978   0.869   2.676   3.761  0.3661 -0.0651 -0.9364
19855TIP3   OH280979   1.225   4.064  12.101 -0.2148 -0.1213 -1.0591
19855TIP3    H180980   1.280   4.015  12.040  0.1462  0.3706 -1.1368
19855TIP3    H280981   1.269   4.149  12.108 -1.0557  0.3315 -1.2485
19856TIP3   OH280982   2.273   5.554   6.149  0.1840 -0.0221  0.6372
19856TIP3    H180983   2.260   5.557   6.243  0.8051  1.1072  0.6882
19856TIP3    H280984   2.362   5.586   6.135 -0.1438  0.4693 -0.3869
19857TIP3   OH280985   2.860   1.282   0.652  0.2124  0.2851  0.1257
19857TIP3    H180986   2.869   1.246   0.564  3.0944 -1.8967  1.2384
19857TIP3    H280987   2.899   1.370   0.647 -0.6777  0.6219 -1.0070
19858TIP3   OH280988   2.179   3.501  14.438 -0.0286 -0.0016  0.4785
19858TIP3    H180989   2.175   3.436  14.368 -0.0426  0.3211  0.1752
19858TIP3    H280990   2.242   3.465  14.500  1.0701  0.3704 -0.3998
19859TIP3   OH280991   3.003   0.866   2.564 -0.1446  0.4557  0.0505
19859TIP3    H180992   2.921   0.887   2.520 -0.8189 -1.0696  0.5373
19859TIP3    H280993   3.054   0.818   2.499 -0.8859 -1.2450  0.6921
19860TIP3   OH280994   5.369   6.437  13.366  0.5668  0.9170  1.1267
19860TIP3    H180995   5.384   6.364  13.306 -0.3087  1.9341 -0.3646
19860TIP3    H280996   5.384   6.515  13.313 -4.8594  1.9754  0.7951
19861TIP3   OH280997   2.797   5.092  14.318 -0.4097 -0.1998  0.3334
19861TIP3    H180998   2.860   5.038  14.364 -1.2971 -0.5834  1.1111
19861TIP3    H280999   2.724   5.033  14.298 -0.8884  0.4290  0.1917
19862TIP3   OH281000   0.903   6.653  13.877  0.2209 -0.3211  0.1619
19862TIP3    H181001   0.869   6.604  13.952 -1.7016 -2.3479 -1.9288
19862TIP3    H281002   0.944   6.586  13.822  2.0798  1.2111 -0.3580
19863TIP3   OH281003   4.211   5.507   2.130  0.3501  0.1856  0.4363
19863TIP3    H181004   4.172   5.584   2.173  0.3815 -0.4178  1.5718
19863TIP3    H281005   4.278   5.477   2.191  0.3313 -0.7529  0.0034
19864TIP3   OH281006   5.433   6.545   0.523  0.3535  0.1574 -0.0140
19864TIP3    H181007   5.470   6.471   0.571 -0.6272 -0.2099  0.1848
19864TIP3    H281008   5.389   6.597   0.590 -0.5884 -0.0858 -0.4373
19865TIP3   OH281009   1.947   5.970   1.215 -0.0536 -0.9936 -0.4819
19865TIP3    H181010   1.985   5.882   1.212  0.1529 -0.9905  1.2391
19865TIP3    H281011   1.901   5.973   1.299  0.0553  0.5800 -0.4588
19866TIP3   OH281012   0.462   2.408   2.970  0.3458  1.2016 -0.6430
19866TIP3    H181013   0.557   2.422   2.973  0.6844 -1.1532  0.2966
19866TIP3    H281014   0.438   2.381   3.059 -1.2160  1.7135 -0.8831
19867TIP3   OH281015   4.860   4.548  12.667  0.0173 -0.6367  0.7816
19867TIP3    H181016   4.866   4.505  12.752 -0.3278  2.4732  2.4434
19867TIP3    H281017   4.788   4.611  12.676  1.1610  1.0439 -1.1869
19868TIP3   OH281018   4.158   5.357   0.552  0.0544  0.0338 -0.4777
19868TIP3    H181019   4.110   5.379   0.632  1.0414  2.3403 -0.4940
19868TIP3    H281020   4.090   5.358   0.484 -0.6469 -1.1670  0.1768
19869TIP3   OH281021   4.476   6.093   0.885  0.9081  0.1905  0.1540
19869TIP3    H181022   4.539   6.074   0.816  0.4780 -0.9061  0.0614
19869TIP3    H281023   4.510   6.047   0.962 -0.0882 -0.9142 -0.0485
19870TIP3   OH281024   6.145   1.834  15.477  0.1336  0.0731 -0.0143
19870TIP3    H181025   6.218   1.781  15.444 -1.2130 -1.2766 -0.9110
19870TIP3    H281026   6.104   1.870  15.399 -0.9321 -0.2449  0.3763
19871TIP3   OH281027   5.716   5.151   4.435  0.1067  0.0017  0.5525
19871TIP3    H181028   5.685   5.224   4.489 -0.0147  0.7282 -0.4886
19871TIP3    H281029   5.673   5.074   4.472 -0.6239  0.6039  0.9764
19872TIP3   OH281030   5.586   2.954  16.012 -0.0984 -0.0156 -0.2522
19872TIP3    H181031   5.622   2.865  16.011 -0.1762 -0.0448 -0.7077
19872TIP3    H281032   5.614   2.992  15.929  0.5257  0.6263  0.2414
19873TIP3   OH281033   3.758   3.543  14.092 -0.6378 -0.1636 -0.5461
19873TIP3    H181034   3.841   3.504  14.118 -0.4069 -0.6461 -1.9502
19873TIP3    H281035   3.694   3.507  14.153  0.0946 -0.1892  0.2155
19874TIP3   OH281036   3.123   2.906  15.808  0.4706  0.4544  0.2193
19874TIP3    H181037   3.182   2.975  15.778 -1.5944  0.9308 -2.9609
19874TIP3    H281038   3.176   2.855  15.869  3.6863  1.7672 -1.3246
19875TIP3   OH281039   3.704   3.380   0.768 -0.2022  0.0434  0.2653
19875TIP3    H181040   3.741   3.357   0.853 -0.8037 -0.5082  0.3783
19875TIP3    H281041   3.780   3.389   0.711  0.1881  0.1947  0.8069
19876TIP3   OH281042   2.375   3.371  13.685 -0.7038 -0.1889 -0.0009
19876TIP3    H181043   2.348   3.281  13.666 -0.2947 -0.0299 -1.4132
19876TIP3    H281044   2.417   3.367  13.771  0.8958 -1.6614 -0.8295
19877TIP3   OH281045   4.444   2.163   1.599  0.1103 -0.0357 -0.3104
19877TIP3    H181046   4.355   2.176   1.634  0.3351 -0.4145  0.4187
19877TIP3    H281047   4.485   2.104   1.662  0.9235  0.2480 -0.5765
19878TIP3   OH281048   2.050   4.253  10.809  0.2028  0.5968 -0.3723
19878TIP3    H181049   2.108   4.230  10.882 -0.0243  0.8903 -0.1019
19878TIP3    H281050   2.072   4.189  10.741 -0.4923 -0.5061  0.4124
19879TIP3   OH281051   1.928   6.517   6.035  0.4146  0.1103 -0.7476
19879TIP3    H181052   1.886   6.580   5.976  0.2027  0.4829 -0.2052
19879TIP3    H281053   1.870   6.441   6.033 -0.1524  0.5271 -0.1962
19880TIP3   OH281054   3.749   4.593  15.511  0.5168 -0.0493 -0.1074
19880TIP3    H181055   3.835   4.571  15.545  1.4422  0.3595 -2.1303
19880TIP3    H281056   3.751   4.564  15.420 -0.9979  1.2152 -0.5593
19881TIP3   OH281057   4.934   0.963  14.631  0.1531  0.5960 -0.7935
19881TIP3    H181058   4.839   0.970  14.636  0.1899  2.1339 -1.6565
19881TIP3    H281059   4.957   1.010  14.550  1.7412  1.4668  0.1310
19882TIP3   OH281060   3.962   3.828  12.008  1.0826 -0.5797  0.0063
19882TIP3    H181061   3.921   3.844  11.922 -0.2582  0.2337  0.7690
19882TIP3    H281062   4.018   3.904  12.022  0.5951 -0.2536  0.2351
19883TIP3   OH281063   1.613   3.678   5.257 -0.2516  0.1884 -0.4389
19883TIP3    H181064   1.701   3.689   5.294 -0.4419  3.9983 -0.8687
19883TIP3    H281065   1.626   3.685   5.162 -0.7765 -1.2110 -0.6148
19884TIP3   OH281066   1.988   1.286   2.773 -0.3688  0.0464  0.0985
19884TIP3    H181067   2.069   1.256   2.733  0.7040 -0.8237  2.8586
19884TIP3    H281068   2.005   1.285   2.867 -2.8669  1.9244  0.6307
19885TIP3   OH281069   1.261   2.741  15.217 -0.3497  0.2701  0.4400
19885TIP3    H181070   1.321   2.721  15.288 -1.4418  1.1552  1.6170
19885TIP3    H281071   1.190   2.677  15.226 -0.6490  0.5840  0.3319
19886TIP3   OH281072   3.419   5.774  11.529 -0.1578  0.0170  0.0121
19886TIP3    H181073   3.349   5.823  11.485  0.2057  1.4416  0.9948
19886TIP3    H281074   3.380   5.748  11.612 -0.5863 -2.0171 -0.7879
19887TIP3   OH281075   0.423   5.788  16.847  0.4839  0.0211  0.2338
19887TIP3    H181076   0.357   5.849  16.880  0.0498  0.6403 -1.7439
19887TIP3    H281077   0.379   5.739  16.779  1.0332 -2.0794  1.3578
19888TIP3   OH281078   4.834   4.899   3.491 -0.2771  0.3045 -0.1972
19888TIP3    H181079   4.793   4.911   3.405  1.0600 -1.8602 -1.1903
19888TIP3    H281080   4.760   4.896   3.552 -1.2139  2.4318 -1.1659
19889TIP3   OH281081   3.761   5.424  15.611 -0.2166 -0.1417  0.1441
19889TIP3    H181082   3.837   5.420  15.669  1.5917  0.4843 -2.0676
19889TIP3    H281083   3.719   5.339  15.621  0.5509 -0.3620  1.6971
19890TIP3   OH281084   0.458   0.161   2.649  0.4533 -0.1655 -0.1754
19890TIP3    H181085   0.494   0.250   2.645  0.4696 -0.1958 -0.8564
19890TIP3    H281086   0.365   0.173   2.668  0.5905 -0.0332  0.4175
19891TIP3   OH281087   4.603   1.828  13.747  0.1415 -0.2338 -0.4303
19891TIP3    H181088   4.698   1.840  13.744  0.0437  0.6294 -0.1554
19891TIP3    H281089   4.567   1.915  13.735 -0.5916 -0.2186  1.6634
19892TIP3   OH281090   3.747   6.110  14.359 -0.3502  0.4493  0.2375
19892TIP3    H181091   3.759   6.054  14.435 -1.2605  0.7452  0.6083
19892TIP3    H281092   3.699   6.186  14.392  0.2975  1.1456 -0.3896
19893TIP3   OH281093   4.970   5.867  13.114  0.0968  0.0074  0.0398
19893TIP3    H181094   4.956   5.962  13.119 -0.9288 -0.1770  0.9594
19893TIP3    H281095   4.985   5.850  13.021 -2.0543  0.7810 -0.4800
19894TIP3   OH281096   6.330   6.666  16.337  0.2272 -0.1690  0.5080
19894TIP3    H181097   6.359   6.583  16.376 -1.0599 -0.4165  0.9539
19894TIP3    H281098   6.259   6.642  16.278 -0.5878  0.6714  1.1146
19895TIP3   OH281099   4.113   2.824  10.784  0.1505 -0.0612  0.4247
19895TIP3    H181100   4.047   2.835  10.716  0.4669 -0.6505  0.0205
19895TIP3    H281101   4.179   2.767  10.745  1.1649  0.9423  0.6342
19896TIP3   OH281102   0.588   6.714   4.496  0.2414 -0.3679  0.3926
19896TIP3    H181103   0.612   6.623   4.515  1.1875  0.1532  1.7861
19896TIP3    H281104   0.513   6.731   4.554 -0.7127 -0.6381 -0.7591
19897TIP3   OH281105   0.701   3.304  11.631 -1.0786  0.4033  0.5167
19897TIP3    H181106   0.708   3.251  11.552 -0.8375  1.1360  0.0375
19897TIP3    H281107   0.622   3.272  11.675  0.2780 -1.8242  1.3529
19898TIP3   OH281108   3.959   1.402  11.362  0.4727 -0.1357  0.0022
19898TIP3    H181109   4.011   1.388  11.441  0.0430 -2.9366 -0.1355
19898TIP3    H281110   4.014   1.368  11.291  0.5583  1.6865 -0.8251
19899TIP3   OH281111   2.061   2.445  15.037  0.2155  0.3010 -0.2042
19899TIP3    H181112   2.090   2.516  14.980 -0.1500  0.5271 -0.1127
19899TIP3    H281113   2.088   2.472  15.124  0.6387  0.0273 -0.2509
19900TIP3   OH281114   5.074   3.179   1.012 -0.2294  0.1014 -0.3474
19900TIP3    H181115   5.157   3.146   1.047 -0.7087 -0.3594  0.3701
19900TIP3    H281116   5.057   3.124   0.936 -0.4725 -0.5797  0.2005
19901TIP3   OH281117   0.673   6.155   3.179  0.9896  0.1512 -0.1258
19901TIP3    H181118   0.718   6.118   3.254  0.2820 -0.5709 -0.0499
19901TIP3    H281119   0.738   6.155   3.109  1.1511 -0.7390  0.0238
19902TIP3   OH281120   2.152   1.441   3.348 -0.0583  0.4210 -0.2228
19902TIP3    H181121   2.213   1.426   3.275 -0.3737 -0.0169 -0.4007
19902TIP3    H281122   2.186   1.519   3.392  1.7548 -0.9323  0.8542
19903TIP3   OH281123   6.142   3.423   1.845  0.5955  0.3850 -0.0721
19903TIP3    H181124   6.129   3.331   1.869  0.8788  0.1157 -0.9040
19903TIP3    H281125   6.054   3.455   1.827  0.5759  0.0007 -0.7075
19904TIP3   OH281126   6.496   4.749   2.029  0.0342 -0.3203  0.0886
19904TIP3    H181127   6.503   4.707   1.943 -0.9591  0.3544 -0.3321
19904TIP3    H281128   6.477   4.678   2.089 -1.5902 -0.4892 -0.6081
19905TIP3   OH281129   3.957   5.005   0.993  0.4712  0.2433  0.2614
19905TIP3    H181130   4.039   5.054   1.000  0.3551  0.3433  0.9663
19905TIP3    H281131   3.943   4.969   1.080  0.2042 -0.4868 -0.0762
19906TIP3   OH281132   0.419   1.929  14.038  0.2589 -0.2202  0.8621
19906TIP3    H181133   0.332   1.890  14.043 -0.6268  1.6130  0.1923
19906TIP3    H281134   0.431   1.947  13.945  1.3360 -0.3980  0.9660
19907TIP3   OH281135   1.704   2.942  14.317  0.3465  0.3045 -0.0037
19907TIP3    H181136   1.628   2.940  14.260 -0.1995 -0.9016  0.7410
19907TIP3    H281137   1.676   2.995  14.392  0.6070  0.7640 -0.2293
19908TIP3   OH281138   3.819   2.482   1.261  0.2806 -0.2771  0.4122
19908TIP3    H181139   3.864   2.410   1.305 -2.6632 -1.4144  1.6986
19908TIP3    H281140   3.744   2.502   1.318  0.8952  3.6820 -0.0116
19909TIP3   OH281141   5.972   4.061   2.595  0.3075  0.2966  0.4829
19909TIP3    H181142   5.883   4.058   2.561 -0.0106 -0.3067  1.3332
19909TIP3    H281143   5.974   4.138   2.652  0.3904  0.4271  0.3031
19910TIP3   OH281144   1.621   3.783  14.435 -0.1181 -0.3524  0.6212
19910TIP3    H181145   1.617   3.743  14.348  2.2302 -2.0569  1.2671
19910TIP3    H281146   1.674   3.862  14.422 -2.2857  1.0421 -0.0556
19911TIP3   OH281147   2.415   4.653  13.707  0.5984 -0.1995 -0.0272
19911TIP3    H181148   2.319   4.652  13.710  0.4812 -1.7416 -2.6351
19911TIP3    H281149   2.438   4.746  13.701 -0.6519  0.2713  2.1395
19912TIP3   OH281150   3.481   1.943   3.544 -0.1824 -0.3085 -0.3326
19912TIP3    H181151   3.423   2.008   3.505 -0.3561 -0.9974 -1.2632
19912TIP3    H281152   3.564   1.988   3.556 -0.8239  0.6034  0.7428
19913TIP3   OH281153   4.472   6.146  14.298  0.3677  0.0959  0.4110
19913TIP3    H181154   4.425   6.220  14.261  0.9393  0.5004  0.4952
19913TIP3    H281155   4.454   6.074  14.237  3.0393  1.2508 -1.9043
19914TIP3   OH281156   4.624   6.621   4.845  0.4884  0.1092 -0.4644
19914TIP3    H181157   4.589   6.691   4.900  1.3841 -0.1796  0.5055
19914TIP3    H281158   4.616   6.542   4.899  1.7188 -0.1115 -0.5880
19915TIP3   OH281159   3.237   6.672   0.234  0.2971 -0.0672  0.5694
19915TIP3    H181160   3.251   6.596   0.291 -3.2577  0.2092  1.8892
19915TIP3    H281161   3.147   6.698   0.250  1.2630  4.1329 -0.2555
19916TIP3   OH281162   0.141   2.863   0.613 -0.3404  0.5006  0.1812
19916TIP3    H181163   0.234   2.867   0.591 -0.2295 -0.3798  0.4750
19916TIP3    H281164   0.119   2.770   0.609 -1.6172  0.8611 -1.5052
19917TIP3   OH281165   0.257   1.193  14.825  0.5827 -0.2855  0.2090
19917TIP3    H181166   0.305   1.141  14.761 -0.5907 -0.5987 -0.4243
19917TIP3    H281167   0.167   1.194  14.793  0.7401  2.9225 -0.3316
19918TIP3   OH281168   6.016   0.987  17.178 -0.2713  0.4371  0.3005
19918TIP3    H181169   6.001   1.008  17.270  1.7606  1.7986  0.3637
19918TIP3    H281170   6.083   1.049  17.150  2.3328 -2.7187 -0.8988
19919TIP3   OH281171   2.450   1.742  16.684  0.2557  0.1653 -0.5039
19919TIP3    H181172   2.405   1.803  16.625 -0.0150  1.0558  0.6071
19919TIP3    H281173   2.392   1.666  16.688  0.5659 -0.1593 -1.8584
19920TIP3   OH281174   1.082   4.736   3.185  0.0195  0.0782  0.3941
19920TIP3    H181175   1.042   4.653   3.213 -0.1648  0.1398  0.3096
19920TIP3    H281176   1.116   4.717   3.098  0.4111 -0.0515  0.5729
19921TIP3   OH281177   1.799   1.043   0.073 -0.6942  0.0403 -0.2528
19921TIP3    H181178   1.863   0.977   0.098 -1.0494  0.1983  1.0943
19921TIP3    H281179   1.801   1.044  -0.023  1.2857  0.0159 -0.2222
19922TIP3   OH281180   6.210   3.741   1.684  0.4273  0.0525  0.5152
19922TIP3    H181181   6.160   3.750   1.765  0.7580  1.2968  0.5884
19922TIP3    H281182   6.300   3.764   1.708  0.3750  1.2743 -0.3831
19923TIP3   OH281183   3.787   0.540   4.202  0.4699 -0.3395  0.2373
19923TIP3    H181184   3.764   0.631   4.183 -1.3807 -0.8072  0.0937
19923TIP3    H281185   3.773   0.531   4.296  0.5694 -0.4988  0.2362
19924TIP3   OH281186   1.023   0.391  13.537  0.6902 -0.1084  0.2868
19924TIP3    H181187   1.016   0.448  13.460  1.2036  2.6788  2.2622
19924TIP3    H281188   0.935   0.393  13.576  0.7865 -0.4700  0.5268
19925TIP3   OH281189   2.200   6.473   4.291  0.4702  0.3446 -0.0279
19925TIP3    H181190   2.198   6.559   4.334 -1.8021 -0.2201  1.0881
19925TIP3    H281191   2.217   6.411   4.362 -0.3635 -0.3357 -0.4056
19926TIP3   OH281192   2.365   3.903  13.539 -0.1180  0.1514  0.3916
19926TIP3    H181193   2.408   3.975  13.491 -4.1351  1.5296 -1.4277
19926TIP3    H281194   2.375   3.827  13.481 -2.9675  1.2829 -1.7384
19927TIP3   OH281195   0.885   1.869  16.655  0.2337 -0.4350 -0.0301
19927TIP3    H181196   0.867   1.775  16.652  1.3305 -0.6179 -1.4046
19927TIP3    H281197   0.854   1.902  16.570 -0.1951  0.4574  0.4649
19928TIP3   OH281198   0.174   2.596  14.336 -0.1430  0.2200 -0.0432
19928TIP3    H181199   0.172   2.544  14.416  2.2723 -0.9211 -0.6869
19928TIP3    H281200   0.195   2.533  14.267  2.4921  1.9515 -0.8770
19929TIP3   OH281201   2.805   2.152  14.247  0.2769 -0.1816  0.2634
19929TIP3    H181202   2.900   2.158  14.250  0.3332 -0.8100 -0.2262
19929TIP3    H281203   2.775   2.209  14.318  1.0230 -0.3781  0.7360
19930TIP3   OH281204   3.598   4.680   2.757  0.1093 -0.0054 -0.1298
19930TIP3    H181205   3.615   4.611   2.821 -3.2912  0.5863  1.5214
19930TIP3    H281206   3.618   4.761   2.804 -0.1658  0.3342 -0.6001
19931TIP3   OH281207   0.372   0.749   1.459 -0.0139  0.3922  0.2549
19931TIP3    H181208   0.459   0.787   1.473 -0.3275  1.0020  0.5934
19931TIP3    H281209   0.311   0.820   1.480 -0.5597  0.6392 -2.0251
19932TIP3   OH281210   2.999   2.602   2.019  0.1700  0.5718 -0.4836
19932TIP3    H181211   2.976   2.510   2.010  0.7514  0.4968 -1.2267
19932TIP3    H281212   2.973   2.625   2.108  0.0048 -0.3050 -0.3074
19933TIP3   OH281213   2.693   3.826  15.884 -0.8757 -0.3676 -0.3814
19933TIP3    H181214   2.655   3.914  15.888  0.2201  0.0534  1.0432
19933TIP3    H281215   2.674   3.788  15.969  0.7891 -0.5979 -0.0903
19934TIP3   OH281216   0.145   6.585   4.977  0.1169  0.0797  0.5427
19934TIP3    H181217   0.220   6.526   4.974 -0.7063 -0.9400  0.0585
19934TIP3    H281218   0.092   6.562   4.901 -0.2450  1.4017  0.3717
19935TIP3   OH281219   4.665   6.292  15.437  0.3790 -0.0605  0.2219
19935TIP3    H181220   4.722   6.366  15.458 -1.1315  1.4631 -0.9127
19935TIP3    H281221   4.612   6.279  15.516  1.3148 -0.5929  0.7764
19936TIP3   OH281222   1.446   5.464  13.726 -0.4326  0.4611 -0.1510
19936TIP3    H181223   1.494   5.528  13.779  1.1785  1.4079 -2.7140
19936TIP3    H281224   1.507   5.392  13.714 -0.6097  0.4738 -1.1346
19937TIP3   OH281225   2.666   4.962   1.362  0.0454 -0.4418  0.2876
19937TIP3    H181226   2.710   4.896   1.416  0.5515  0.6435  1.2317
19937TIP3    H281227   2.583   4.979   1.406 -1.5185 -2.7143 -1.6625
19938TIP3   OH281228   2.519   5.553   5.852 -0.0778 -0.0971  0.0920
19938TIP3    H181229   2.607   5.516   5.849 -1.4060 -3.1960 -1.9892
19938TIP3    H281230   2.468   5.490   5.903 -1.8046  0.0686 -1.3913
19939TIP3   OH281231   1.768   6.115   4.540 -0.3021 -0.2568 -0.6557
19939TIP3    H181232   1.793   6.204   4.516 -1.4138  0.6535  1.4150
19939TIP3    H281233   1.737   6.122   4.630  0.6641 -2.9560 -0.0675
19940TIP3   OH281234   0.733   6.095   0.742 -0.0292 -0.0185  0.0332
19940TIP3    H181235   0.782   6.177   0.739 -1.6356  1.0541  2.2590
19940TIP3    H281236   0.798   6.028   0.720  1.7776  1.6401  0.2130
19941TIP3   OH281237   6.277   3.532  16.670 -0.1637  0.0776  0.0970
19941TIP3    H181238   6.339   3.542  16.743 -1.3517 -1.3600  1.3565
19941TIP3    H281239   6.314   3.461  16.617  0.8570  1.3264 -0.8889
19942TIP3   OH281240   6.169   4.259  16.855  0.6284 -0.4520 -0.0464
19942TIP3    H181241   6.110   4.274  16.929 -0.0767 -0.3535 -0.6199
19942TIP3    H281242   6.251   4.232  16.895 -0.1491 -1.7244  0.7256
19943TIP3   OH281243   4.968   2.814  14.719  0.2902  0.2160 -0.2179
19943TIP3    H181244   5.061   2.821  14.697  0.5768  0.9061  1.1984
19943TIP3    H281245   4.953   2.882  14.784 -0.9456 -0.6699  0.4486
19944TIP3   OH281246   5.294   4.326   5.175 -0.0288  0.1061  0.1091
19944TIP3    H181247   5.254   4.400   5.222 -0.8572 -0.5729  0.4850
19944TIP3    H281248   5.244   4.250   5.203 -0.2274 -0.3830 -1.5216
19945TIP3   OH281249   3.891   4.648  16.467  0.5641 -0.7083 -0.2636
19945TIP3    H181250   3.832   4.575  16.446  0.9472 -1.1972  0.3556
19945TIP3    H281251   3.966   4.606  16.509  0.5611  0.1043  0.5503
19946TIP3   OH281252   4.995   0.330   1.034 -0.0034  0.0577  0.1943
19946TIP3    H181253   4.969   0.418   1.059  1.1513  1.1925 -2.4765
19946TIP3    H281254   4.927   0.301   0.974 -0.2404 -0.7797  0.8590
19947TIP3   OH281255   2.548   6.578  16.812  0.2584  0.4599 -0.0323
19947TIP3    H181256   2.621   6.605  16.757  0.1230  1.2278  0.1604
19947TIP3    H281257   2.483   6.647  16.802 -0.8996 -0.7345 -1.0338
19948TIP3   OH281258   4.789   3.545  13.999 -0.5117 -0.6988 -0.3566
19948TIP3    H181259   4.878   3.561  13.969 -0.9813 -1.0874 -1.9693
19948TIP3    H281260   4.793   3.459  14.042  0.6723  0.8934  2.8891
19949TIP3   OH281261   3.125   4.599  12.847  0.2298 -0.4304 -0.5291
19949TIP3    H181262   3.164   4.587  12.933 -3.4345 -1.3579  1.1097
19949TIP3    H281263   3.177   4.543  12.789  2.0124 -0.7195  1.2964
19950TIP3   OH281264   3.119   6.064  13.107 -0.2171  0.5337  0.1645
19950TIP3    H181265   3.116   6.051  13.012 -0.1623  1.2689  0.0632
19950TIP3    H281266   3.028   6.080  13.132 -0.1082  1.2459  0.1089
19951TIP3   OH281267   6.018   1.353   1.696 -0.7275  0.0996 -0.3323
19951TIP3    H181268   6.038   1.427   1.754 -2.8387  0.6818 -0.3161
19951TIP3    H281269   5.932   1.374   1.660 -0.2935 -1.2126 -2.1732
19952TIP3   OH281270   4.327   4.909   0.501  0.3260  0.2013 -0.5128
19952TIP3    H181271   4.404   4.963   0.519  0.5752 -0.0659 -0.7697
19952TIP3    H281272   4.256   4.951   0.549  0.8253 -0.0647  0.4689
19953TIP3   OH281273   3.161   5.990  15.130 -0.0969  0.0924  0.4070
19953TIP3    H181274   3.154   6.074  15.085  0.5848 -0.0178  0.0834
19953TIP3    H281275   3.175   5.926  15.059  3.5187  0.2338  0.9036
19954TIP3   OH281276   1.578   3.462  11.494  0.1656 -0.2535  0.0660
19954TIP3    H181277   1.586   3.432  11.404 -0.3760 -1.0524  0.2743
19954TIP3    H281278   1.623   3.395  11.546  2.1363  1.1567  0.2495
19955TIP3   OH281279   6.629   6.162  12.666 -0.5822 -0.2149  0.1803
19955TIP3    H181280   6.534   6.150  12.658 -0.3861 -0.8808 -1.2319
19955TIP3    H281281   6.644   6.251  12.634 -0.5857 -0.5486 -0.7548
19956TIP3   OH281282   5.719   2.323   0.665  0.5487 -0.4675  0.2279
19956TIP3    H181283   5.696   2.238   0.704 -1.1887 -0.5636 -0.9635
19956TIP3    H281284   5.712   2.385   0.737  2.2691 -1.3877  1.2215
19957TIP3   OH281285   3.524   6.056  11.477 -0.2804  0.6448  0.4067
19957TIP3    H181286   3.434   6.026  11.491 -0.0040 -0.0899  0.6230
19957TIP3    H281287   3.564   5.988  11.422  0.3660  0.5923  0.9353
19958TIP3   OH281288   0.907   4.313   1.657 -0.1898  0.4501 -0.0182
19958TIP3    H181289   0.933   4.223   1.677  0.6691  0.6698 -0.1459
19958TIP3    H281290   0.973   4.344   1.595 -0.8407  0.9578 -0.4658
19959TIP3   OH281291   3.376   2.963   2.973  0.4291  0.4109 -0.2982
19959TIP3    H181292   3.471   2.962   2.965  0.6119  1.9435  1.3685
19959TIP3    H281293   3.360   2.936   3.064 -0.5998  2.5923  0.1902
19960TIP3   OH281294   0.958   1.645   1.247 -0.7138  0.2091 -0.4403
19960TIP3    H181295   1.044   1.617   1.279 -0.6464  0.0900 -0.7239
19960TIP3    H281296   0.902   1.568   1.258 -0.8104  0.3188 -0.1604
19961TIP3   OH281297   5.080   5.018   3.441 -0.1414 -1.1357  0.1222
19961TIP3    H181298   5.061   5.043   3.351  1.1309 -1.0637 -0.1381
19961TIP3    H281299   5.005   4.965   3.468 -0.9706 -0.3892 -0.6584
19962TIP3   OH281300   2.291   3.229  15.619  0.1509 -0.8093  0.1287
19962TIP3    H181301   2.344   3.309  15.614  1.2094 -1.4271  1.2247
19962TIP3    H281302   2.242   3.238  15.700 -0.1975 -0.9842 -0.0657
19963TIP3   OH281303   5.147   3.830   1.749  0.2763 -0.0847 -0.3599
19963TIP3    H181304   5.093   3.891   1.699  0.5020  0.0702 -0.4162
19963TIP3    H281305   5.094   3.751   1.756 -0.6407  0.6204  1.0044
19964LIG      O81306   1.670   5.259  16.382  0.2995  0.4620  0.9857
19964LIG      N81307   1.521   5.002  16.764 -0.9336  0.0772  0.3363
19964LIG     C181308   1.788   5.064  16.404 -0.3128 -0.3068  0.2488
19964LIG     C281309   1.647   5.123  16.409 -0.7540  0.2621 -0.0112
19964LIG     C381310   1.856   5.077  16.270  0.4627  0.1151 -0.8964
19964LIG     C481311   1.884   5.122  16.516  0.0424  0.4499 -0.4115
19964LIG     C581312   1.580   5.114  16.556  0.3047 -0.2218  0.1491
19964LIG     C681313   1.984   4.995  16.256  0.0479  0.3627  0.0604
19964LIG     C781314   2.028   5.059  16.508  0.7215 -0.1858 -0.4759
19964LIG     C881315   2.090   5.044  16.362 -0.1166 -0.4296 -0.4504
19964LIG     C981316   1.555   4.978  16.619 -0.6776  0.5514 -0.0390
19964LIG    C1081317   1.551   5.049  16.310 -0.0831 -0.2969 -0.6883
19964LIG    C1181318   1.569   4.886  16.845  0.2108 -0.2271  0.1123
19964LIG    C1281319   1.377   5.031  16.791  0.5315  0.2764  0.6377
19964LIG    C1381320   1.532   4.894  16.993 -0.2499  0.5902 -0.2224
19964LIG    C1481321   1.346   5.035  16.941  1.0215 -0.0427 -0.2480
19964LIG    C1581322   1.380   4.912  17.015 -0.2642  0.7536  0.2673
19964LIG    C1681323   1.559   4.910  16.295  0.7739  0.1147 -0.1043
19964LIG    C1781324   1.455   5.118  16.240 -0.4606  0.0697 -0.1411
19964LIG    C1881325   1.479   4.846  16.206  0.3267  0.2909  0.2015
19964LIG    C1981326   1.376   5.054  16.143 -0.1277 -0.3031 -0.8144
19964LIG    C2081327   1.385   4.917  16.125  0.4606 -0.1130 -0.6381
19964LIG     H181328   1.792   4.954  16.422 -1.1135 -0.5224 -0.8834
19964LIG     H281329   1.891   5.182  16.261 -0.3871  0.4260 -0.5959
19964LIG     H381330   1.793   5.061  16.180  1.8642  1.4571 -2.1439
19964LIG     H481331   1.847   5.108  16.620 -0.7537  2.3163 -0.4339
19964LIG     H581332   1.897   5.226  16.481 -0.2866  0.0519 -1.7440
19964LIG     H681333   1.484   5.169  16.551 -0.7017 -1.8433  1.1969
19964LIG     H781334   1.641   5.180  16.622 -2.7567  0.7686  2.0879
19964LIG     H881335   2.027   5.004  16.154  0.9724  0.8411  0.4915
19964LIG     H981336   1.964   4.886  16.267 -0.0173  0.1702 -1.7365
19964LIG    H1081337   2.016   4.953  16.541 -1.6646 -0.4550 -2.0449
19964LIG    H1181338   2.105   5.101  16.575 -0.0922  1.1954 -0.4045
19964LIG    H1281339   2.123   5.147  16.336  1.3717 -0.5602  0.8485
19964LIG    H1381340   2.183   4.984  16.364  1.3524  1.7393 -1.6677
19964LIG    H1481341   1.471   4.928  16.567 -0.3887 -2.5501  2.3218
19964LIG    H1581342   1.645   4.917  16.594 -0.0532  2.2307 -1.9869
19964LIG    H1681343   1.679   4.879  16.832  0.4536  3.4002 -0.3653
19964LIG    H1781344   1.518   4.796  16.803  2.9499 -0.7004 -2.3909
19964LIG    H1881345   1.302   4.962  16.746  0.4456  0.6053  0.2740
19964LIG    H1981346   1.355   5.129  16.742 -0.0236 -0.3348 -0.3555
19964LIG    H2081347   1.734   5.262  16.311 -1.0301  0.0893 -0.2505
19964LIG    H2181348   1.588   4.982  17.032 -0.1051  0.7504 -0.7748
19964LIG    H2281349   1.571   4.808  17.051 -0.4493  1.2458  0.9032
19964LIG    H2381350   1.236   5.049  16.949  1.0137 -0.9422  1.6309
19964LIG    H2481351   1.394   5.123  16.990  1.6468 -0.4545 -0.1197
19964LIG    H2581352   1.357   4.922  17.123  0.2796  3.1502  0.1894
19964LIG    H2681353   1.327   4.827  16.968  2.8226 -0.7870 -0.5289
19964LIG    H2781354   1.638   4.855  16.344  1.3979  0.5111 -0.6603
19964LIG    H2881355   1.444   5.226  16.246 -0.8756 -0.0470  1.3263
19964LIG    H2981356   1.479   4.738  16.195  0.2452  0.3955 -0.8231
19964LIG    H3081357   1.311   5.118  16.084 -2.2631  0.4465  2.2563
19964LIG    H3181358   1.323   4.861  16.057  0.4649  1.3275 -1.8551
   6.78697   6.78697  17.23950
